; ITP file created by ByteFF-ML, 2026-02-21 08:13:53.047717

[ atomtypes ]
;name           bonded.type        at.num        mass        charge   ptype           sigma         epsilon
 c0bf                                   6      0.0000       0.00000       A     3.39646e-01     4.50152e-01
 c1bf                                   6      0.0000       0.00000       A     3.48008e-01     6.67168e-01
 c2bf                                   6      0.0000       0.00000       A     3.47993e-01     6.66156e-01
 c3bf                                   6      0.0000       0.00000       A     3.31455e-01     4.12415e-01
 c4bf                                   6      0.0000       0.00000       A     3.31492e-01     4.12949e-01
 n5bf                                   7      0.0000       0.00000       A     3.38267e-01     3.92488e-01
 c6bf                                   6      0.0000       0.00000       A     3.31492e-01     4.13371e-01
 c7bf                                   6      0.0000       0.00000       A     3.31238e-01     4.13039e-01
 c8bf                                   6      0.0000       0.00000       A     3.31411e-01     4.13074e-01
 c9bf                                   6      0.0000       0.00000       A     3.31504e-01     4.12557e-01
 c10bf                                  6      0.0000       0.00000       A     3.31499e-01     4.13443e-01
 c11bf                                  6      0.0000       0.00000       A     3.31488e-01     4.13866e-01
 c12bf                                  6      0.0000       0.00000       A     3.31648e-01     4.15198e-01
 c13bf                                  6      0.0000       0.00000       A     3.39536e-01     4.48869e-01
 c14bf                                  6      0.0000       0.00000       A     3.39513e-01     4.48946e-01
 c15bf                                  6      0.0000       0.00000       A     3.39757e-01     4.48772e-01
 c16bf                                  6      0.0000       0.00000       A     3.39757e-01     4.48772e-01
 n17bf                                  7      0.0000       0.00000       A     3.26713e-01     6.48769e-01
 c18bf                                  6      0.0000       0.00000       A     3.31264e-01     4.10570e-01
 n19bf                                  7      0.0000       0.00000       A     3.36721e-01     4.77448e-01
 n20bf                                  7      0.0000       0.00000       A     3.18287e-01     7.03250e-01
 c21bf                                  6      0.0000       0.00000       A     3.39909e-01     4.52588e-01
 c22bf                                  6      0.0000       0.00000       A     3.31408e-01     4.15537e-01
 o23bf                                  8      0.0000       0.00000       A     3.04503e-01     6.16156e-01
 c24bf                                  6      0.0000       0.00000       A     3.31574e-01     4.14788e-01
 c25bf                                  6      0.0000       0.00000       A     3.31437e-01     4.12557e-01
 h26bf                                  1      0.0000       0.00000       A     2.59927e-01     8.75364e-02
 h27bf                                  1      0.0000       0.00000       A     2.59927e-01     8.75364e-02
 h28bf                                  1      0.0000       0.00000       A     2.59927e-01     8.75364e-02
 h29bf                                  1      0.0000       0.00000       A     2.53693e-01     6.69120e-02
 h30bf                                  1      0.0000       0.00000       A     2.53647e-01     6.70142e-02
 h31bf                                  1      0.0000       0.00000       A     2.62472e-01     6.74738e-02
 h32bf                                  1      0.0000       0.00000       A     2.62513e-01     6.74259e-02
 h33bf                                  1      0.0000       0.00000       A     2.62572e-01     6.77436e-02
 h34bf                                  1      0.0000       0.00000       A     2.59520e-01     8.50290e-02
 h35bf                                  1      0.0000       0.00000       A     2.60287e-01     8.57424e-02
 h36bf                                  1      0.0000       0.00000       A     2.60287e-01     8.57424e-02
 h37bf                                  1      0.0000       0.00000       A     2.60287e-01     8.57424e-02
 h38bf                                  1      0.0000       0.00000       A     2.60287e-01     8.57424e-02
 h39bf                                  1      0.0000       0.00000       A     1.10320e-01     4.03279e-02
 h40bf                                  1      0.0000       0.00000       A     1.10384e-01     3.90095e-02
 h41bf                                  1      0.0000       0.00000       A     2.42205e-01     8.61909e-02
 h42bf                                  1      0.0000       0.00000       A     2.42205e-01     8.61909e-02
 h43bf                                  1      0.0000       0.00000       A     2.42205e-01     8.61909e-02
 h44bf                                  1      0.0000       0.00000       A     2.62565e-01     6.76829e-02
 h45bf                                  1      0.0000       0.00000       A     2.62352e-01     6.75632e-02
 h46bf                                  1      0.0000       0.00000       A     1.10384e-01     3.90095e-02

[ moleculetype ]
;name             nrexcl
 CAT-24                3

[ atoms ]
;       nr            type      resi   res      atom      cgnr      charge          mass ; qtot
         1            c0bf         1   UNL        c0         1    -0.01104       12.0110 ; qtot   -0.011
         2            c1bf         1   UNL        c1         2    -0.10048       12.0110 ; qtot   -0.112
         3            c2bf         1   UNL        c2         3    -0.14127       12.0110 ; qtot   -0.253
         4            c3bf         1   UNL        c3         4    -0.01208       12.0110 ; qtot   -0.265
         5            c4bf         1   UNL        c4         5     0.35217       12.0110 ; qtot    0.087
         6            n5bf         1   UNL        n5         6    -0.65949       14.0070 ; qtot   -0.572
         7            c6bf         1   UNL        c6         7     0.34260       12.0110 ; qtot   -0.230
         8            c7bf         1   UNL        c7         8    -0.08586       12.0110 ; qtot   -0.315
         9            c8bf         1   UNL        c8         9    -0.02634       12.0110 ; qtot   -0.342
        10            c9bf         1   UNL        c9        10    -0.09342       12.0110 ; qtot   -0.435
        11           c10bf         1   UNL       c10        11    -0.09643       12.0110 ; qtot   -0.532
        12           c11bf         1   UNL       c11        12    -0.07458       12.0110 ; qtot   -0.606
        13           c12bf         1   UNL       c12        13    -0.12404       12.0110 ; qtot   -0.730
        14           c13bf         1   UNL       c13        14     0.12041       12.0110 ; qtot   -0.610
        15           c14bf         1   UNL       c14        15    -0.16654       12.0110 ; qtot   -0.776
        16           c15bf         1   UNL       c15        16    -0.10388       12.0110 ; qtot   -0.880
        17           c16bf         1   UNL       c16        17    -0.10388       12.0110 ; qtot   -0.984
        18           n17bf         1   UNL       n17        18    -0.61445       14.0070 ; qtot   -1.599
        19           c18bf         1   UNL       c18        19     0.92602       12.0110 ; qtot   -0.673
        20           n19bf         1   UNL       n19        20    -0.58697       14.0070 ; qtot   -1.260
        21           n20bf         1   UNL       n20        21    -0.59326       14.0070 ; qtot   -1.853
        22           c21bf         1   UNL       c21        22     0.07261       12.0110 ; qtot   -1.780
        23           c22bf         1   UNL       c22        23     0.55423       12.0110 ; qtot   -1.226
        24           o23bf         1   UNL       o23        24    -0.39240       15.9990 ; qtot   -1.618
        25           c24bf         1   UNL       c24        25    -0.05861       12.0110 ; qtot   -1.677
        26           c25bf         1   UNL       c25        26    -0.05242       12.0110 ; qtot   -1.729
        27           h26bf         1   UNL       h26        27     0.05443        1.0080 ; qtot   -1.675
        28           h27bf         1   UNL       h27        28     0.05443        1.0080 ; qtot   -1.621
        29           h28bf         1   UNL       h28        29     0.05443        1.0080 ; qtot   -1.566
        30           h29bf         1   UNL       h29        30     0.03032        1.0080 ; qtot   -1.536
        31           h30bf         1   UNL       h30        31     0.03044        1.0080 ; qtot   -1.505
        32           h31bf         1   UNL       h31        32     0.11718        1.0080 ; qtot   -1.388
        33           h32bf         1   UNL       h32        33     0.11984        1.0080 ; qtot   -1.268
        34           h33bf         1   UNL       h33        34     0.12888        1.0080 ; qtot   -1.139
        35           h34bf         1   UNL       h34        35     0.10393        1.0080 ; qtot   -1.036
        36           h35bf         1   UNL       h35        36     0.08180        1.0080 ; qtot   -0.954
        37           h36bf         1   UNL       h36        37     0.08180        1.0080 ; qtot   -0.872
        38           h37bf         1   UNL       h37        38     0.08180        1.0080 ; qtot   -0.790
        39           h38bf         1   UNL       h38        39     0.08180        1.0080 ; qtot   -0.708
        40           h39bf         1   UNL       h39        40     0.41057        1.0080 ; qtot   -0.298
        41           h40bf         1   UNL       h40        41     0.38441        1.0080 ; qtot    0.087
        42           h41bf         1   UNL       h41        42     0.08926        1.0080 ; qtot    0.176
        43           h42bf         1   UNL       h42        43     0.08926        1.0080 ; qtot    0.265
        44           h43bf         1   UNL       h43        44     0.08926        1.0080 ; qtot    0.354
        45           h44bf         1   UNL       h44        45     0.13080        1.0080 ; qtot    0.485
        46           h45bf         1   UNL       h45        46     0.13033        1.0080 ; qtot    0.616
        47           h46bf         1   UNL       h46        47     0.38443        1.0080 ; qtot    1.000

[ bonds ]
;       ai        aj funct               r               k
         1         2     1        0.146431   266797.290283
         1        27     1        0.109467   299542.376465
         1        28     1        0.109467   299542.376465
         1        29     1        0.109467   299542.376465
         2         3     1        0.121595   952588.931250
         3         4     1        0.142834   286838.124219
         4         5     1        0.141112   267381.911328
         4        26     1        0.140417   295721.922754
         5         6     1        0.133520   326287.493262
         5        30     1        0.108743   318392.772510
         6         7     1        0.133762   324483.015576
         7         8     1        0.140862   270019.588281
         7        31     1        0.108774   316681.249902
         8         9     1        0.148099   216468.806201
         8        26     1        0.140017   295083.648242
         9        10     1        0.140522   286316.554297
         9        25     1        0.140364   288133.162109
        10        11     1        0.139603   315779.406885
        10        32     1        0.108594   318502.760840
        11        12     1        0.139655   314826.183203
        11        33     1        0.108618   319848.566504
        12        13     1        0.140053   293210.348047
        12        34     1        0.108541   320854.371094
        13        14     1        0.152262   166830.385889
        13        25     1        0.139868   296592.278516
        14        15     1        0.152416   168644.784741
        14        18     1        0.148913   139630.299951
        14        23     1        0.154577   128147.845166
        15        16     1        0.151266   194349.315405
        15        17     1        0.151266   194349.315405
        15        35     1        0.108537   319742.613037
        16        17     1        0.151225   199579.992139
        16        36     1        0.108483   323654.872656
        16        37     1        0.108483   323654.872656
        17        38     1        0.108483   323654.872656
        17        39     1        0.108483   323654.872656
        18        19     1        0.133302   386902.401611
        18        40     1        0.101337   424655.417090
        19        20     1        0.133058   418634.532812
        19        21     1        0.135493   307944.213135
        20        41     1        0.101328   425154.871875
        20        47     1        0.101328   425154.871875
        21        22     1        0.146737   195108.827344
        21        23     1        0.142426   148868.502490
        22        42     1        0.109021   312351.867139
        22        43     1        0.109021   312351.867139
        22        44     1        0.109021   312351.867139
        23        24     1        0.120460   715141.721680
        25        45     1        0.108523   319695.037402
        26        46     1        0.108522   321974.249951

[ angles ]
;       ai        aj        ak funct           theta             cth
         1         2         3     1      179.653168      167.360000
         2         1        27     1      110.881737      461.423390
         2         1        28     1      110.881737      461.423390
         2         1        29     1      110.881737      461.423390
         2         3         4     1      179.624130      167.360000
         3         4         5     1      120.894150      469.363388
         3         4        26     1      121.495743      408.642941
         4         5         6     1      123.538330      698.746259
         4         5        30     1      119.648949      414.064150
         4        26         8     1      120.213356      735.090928
         4        26        46     1      119.485703      432.360308
         5         4        26     1      117.495346      740.442485
         5         6         7     1      117.937576      686.445353
         6         5        30     1      116.848068      335.809062
         6         7         8     1      124.291870      735.973555
         6         7        31     1      115.976173      329.941528
         7         8         9     1      121.250854      549.434866
         7         8        26     1      116.851242      664.912717
         8         7        31     1      119.929344      407.181292
         8         9        10     1      120.788734      510.639113
         8         9        25     1      120.774254      423.178057
         8        26        46     1      120.584763      419.250194
         9         8        26     1      121.646568      442.921850
         9        10        11     1      120.309425      699.474003
         9        10        32     1      119.891891      429.149782
         9        25        13     1      121.083534      661.388532
         9        25        45     1      119.134628      420.800105
        10         9        25     1      118.509789      663.111713
        10        11        12     1      120.354919      724.479813
        10        11        33     1      119.794922      436.724312
        11        10        32     1      119.750404      430.330076
        11        12        13     1      119.710999      677.588381
        11        12        34     1      119.735275      425.147000
        12        11        33     1      119.842361      433.129102
        12        13        14     1      120.241966      490.003086
        12        13        25     1      119.589684      687.179991
        13        12        34     1      120.439598      409.425302
        13        14        15     1      114.064102      533.010738
        13        14        18     1      110.812096      603.925759
        13        14        23     1      111.595871      602.042333
        13        25        45     1      119.798691      407.978593
        14        13        25     1      120.049706      446.194239
        14        15        16     1      121.414719      410.920436
        14        15        17     1      121.414719      410.920436
        14        15        35     1      112.401169      424.131102
        14        18        19     1      111.918991      621.631020
        14        18        40     1      121.067909      366.714263
        14        23        21     1      106.404617      167.360000
        14        23        24     1      127.712059      357.779307
        15        14        18     1      110.691429      585.051792
        15        14        23     1      110.442825      625.809785
        15        16        17     1       59.965576      167.360000
        15        16        36     1      117.870682      377.010219
        15        16        37     1      117.870682      377.010219
        15        17        16     1       59.965576      167.360000
        15        17        38     1      117.870682      377.010219
        15        17        39     1      117.870682      377.010219
        16        15        17     1       60.013451      167.360000
        16        15        35     1      116.334984      367.698048
        16        17        38     1      118.112976      373.159798
        16        17        39     1      118.112976      373.159798
        17        15        35     1      116.334984      367.698048
        17        16        36     1      118.112976      373.159798
        17        16        37     1      118.112976      373.159798
        18        14        23     1      100.735214      334.101427
        18        19        20     1      125.425232      615.144530
        18        19        21     1      111.327232      587.108742
        19        18        40     1      123.480003      428.649734
        19        20        41     1      121.317368      450.542953
        19        20        47     1      121.317368      450.542953
        19        21        22     1      126.596352      465.851780
        19        21        23     1      109.854813      830.456710
        20        19        21     1      123.849709      628.052837
        21        22        42     1      109.233238      484.690058
        21        22        43     1      109.233238      484.690058
        21        22        44     1      109.233238      484.690058
        21        23        24     1      124.414818      651.466344
        22        21        23     1      123.154587      533.875425
        27         1        28     1      108.021866      356.580723
        27         1        29     1      108.021866      356.580723
        28         1        29     1      108.021866      356.580723
        36        16        37     1      114.508240      310.792335
        38        17        39     1      114.508240      310.792335
        41        20        47     1      117.449059      314.118256
        42        22        43     1      109.817101      349.345262
        42        22        44     1      109.817101      349.345262
        43        22        44     1      109.817101      349.345262

[ dihedrals ] ; propers for gromacs 4.5 or higher, use funct 9
;       ai        aj        ak        al funct           phase               k        pn
         1         2         3         4     9        0.000000        0.000000         1
         1         2         3         4     9      180.000000        0.000000         2
         1         2         3         4     9        0.000000        0.000000         3
         1         2         3         4     9      180.000000        0.000000         4
         2         3         4         5     9        0.000000        0.000000         1
         2         3         4         5     9      180.000000        0.000000         2
         2         3         4         5     9        0.000000        0.000000         3
         2         3         4         5     9      180.000000        0.000000         4
         2         3         4        26     9        0.000000        0.000000         1
         2         3         4        26     9      180.000000        0.000000         2
         2         3         4        26     9        0.000000        0.000000         3
         2         3         4        26     9      180.000000        0.000000         4
         3         2         1        27     9        0.000000        0.000000         1
         3         2         1        27     9      180.000000        0.000000         2
         3         2         1        27     9        0.000000        0.000000         3
         3         2         1        27     9      180.000000        0.000000         4
         3         2         1        28     9        0.000000        0.000000         1
         3         2         1        28     9      180.000000        0.000000         2
         3         2         1        28     9        0.000000        0.000000         3
         3         2         1        28     9      180.000000        0.000000         4
         3         2         1        29     9        0.000000        0.000000         1
         3         2         1        29     9      180.000000        0.000000         2
         3         2         1        29     9        0.000000        0.000000         3
         3         2         1        29     9      180.000000        0.000000         4
         3         4         5         6     9        0.000000       -0.178033         1
         3         4         5         6     9      180.000000       16.355813         2
         3         4         5         6     9        0.000000       -0.092237         3
         3         4         5         6     9      180.000000       -0.547798         4
         3         4         5        30     9        0.000000        0.065238         1
         3         4         5        30     9      180.000000       13.596447         2
         3         4         5        30     9        0.000000       -0.138618         3
         3         4         5        30     9      180.000000        0.166522         4
         3         4        26         8     9        0.000000        0.155910         1
         3         4        26         8     9      180.000000       18.352335         2
         3         4        26         8     9        0.000000       -0.119021         3
         3         4        26         8     9      180.000000       -0.495666         4
         3         4        26        46     9        0.000000        0.011945         1
         3         4        26        46     9      180.000000       13.921274         2
         3         4        26        46     9        0.000000       -0.252795         3
         3         4        26        46     9      180.000000        0.216611         4
         4         5         6         7     9        0.000000        0.051706         1
         4         5         6         7     9      180.000000       22.683501         2
         4         5         6         7     9        0.000000       -0.612853         3
         4         5         6         7     9      180.000000       -0.176900         4
         4        26         8         7     9        0.000000       -0.272698         1
         4        26         8         7     9      180.000000       17.906052         2
         4        26         8         7     9        0.000000       -1.734836         3
         4        26         8         7     9      180.000000       -0.423190         4
         4        26         8         9     9        0.000000        0.241870         1
         4        26         8         9     9      180.000000       16.527665         2
         4        26         8         9     9        0.000000       -0.015319         3
         4        26         8         9     9      180.000000       -0.408688         4
         5         4        26         8     9        0.000000        0.051570         1
         5         4        26         8     9      180.000000       17.642773         2
         5         4        26         8     9        0.000000       -1.736442         3
         5         4        26         8     9      180.000000       -0.413869         4
         5         4        26        46     9        0.000000        0.027674         1
         5         4        26        46     9      180.000000       13.638055         2
         5         4        26        46     9        0.000000       -0.661247         3
         5         4        26        46     9      180.000000        0.156289         4
         5         6         7         8     9        0.000000        0.158707         1
         5         6         7         8     9      180.000000       22.196981         2
         5         6         7         8     9        0.000000       -0.663653         3
         5         6         7         8     9      180.000000       -0.169624         4
         5         6         7        31     9        0.000000        1.108118         1
         5         6         7        31     9      180.000000       20.428528         2
         5         6         7        31     9        0.000000        0.145086         3
         5         6         7        31     9      180.000000       -0.221185         4
         6         5         4        26     9        0.000000       -0.065626         1
         6         5         4        26     9      180.000000       15.288243         2
         6         5         4        26     9        0.000000       -0.724705         3
         6         5         4        26     9      180.000000       -0.286014         4
         6         7         8         9     9        0.000000        0.404911         1
         6         7         8         9     9      180.000000       15.055054         2
         6         7         8         9     9        0.000000        0.072408         3
         6         7         8         9     9      180.000000       -0.458227         4
         6         7         8        26     9        0.000000       -0.022004         1
         6         7         8        26     9      180.000000       16.194179         2
         6         7         8        26     9        0.000000       -0.597028         3
         6         7         8        26     9      180.000000       -0.269267         4
         7         6         5        30     9        0.000000        0.935893         1
         7         6         5        30     9      180.000000       20.653564         2
         7         6         5        30     9        0.000000        0.239905         3
         7         6         5        30     9      180.000000       -0.340940         4
         7         8         9        10     9        0.000000       -0.043610         1
         7         8         9        10     9      180.000000        2.636367         2
         7         8         9        10     9        0.000000        0.072107         3
         7         8         9        10     9      180.000000       -0.203123         4
         7         8         9        25     9        0.000000       -0.010258         1
         7         8         9        25     9      180.000000        2.792032         2
         7         8         9        25     9        0.000000        0.106307         3
         7         8         9        25     9      180.000000       -0.218578         4
         7         8        26        46     9        0.000000       -0.055626         1
         7         8        26        46     9      180.000000       13.557018         2
         7         8        26        46     9        0.000000       -0.657667         3
         7         8        26        46     9      180.000000        0.126719         4
         8         9        10        11     9        0.000000        0.257989         1
         8         9        10        11     9      180.000000       16.384220         2
         8         9        10        11     9        0.000000       -0.193722         3
         8         9        10        11     9      180.000000       -0.288983         4
         8         9        10        32     9        0.000000       -0.120989         1
         8         9        10        32     9      180.000000       13.453223         2
         8         9        10        32     9        0.000000       -0.259290         3
         8         9        10        32     9      180.000000        0.157262         4
         8         9        25        13     9        0.000000        0.326495         1
         8         9        25        13     9      180.000000       17.033384         2
         8         9        25        13     9        0.000000       -0.143358         3
         8         9        25        13     9      180.000000       -0.461097         4
         8         9        25        45     9        0.000000       -0.125870         1
         8         9        25        45     9      180.000000       13.436169         2
         8         9        25        45     9        0.000000       -0.170999         3
         8         9        25        45     9      180.000000        0.149121         4
         9         8         7        31     9        0.000000        0.122436         1
         9         8         7        31     9      180.000000       12.893235         2
         9         8         7        31     9        0.000000       -0.133004         3
         9         8         7        31     9      180.000000        0.156445         4
         9         8        26        46     9        0.000000       -0.053850         1
         9         8        26        46     9      180.000000       13.286525         2
         9         8        26        46     9        0.000000       -0.158646         3
         9         8        26        46     9      180.000000        0.204497         4
         9        10        11        12     9        0.000000       -0.018670         1
         9        10        11        12     9      180.000000       18.797110         2
         9        10        11        12     9        0.000000       -1.505306         3
         9        10        11        12     9      180.000000       -0.337191         4
         9        10        11        33     9        0.000000       -0.052092         1
         9        10        11        33     9      180.000000       14.842315         2
         9        10        11        33     9        0.000000       -0.609189         3
         9        10        11        33     9      180.000000        0.090473         4
         9        25        13        12     9        0.000000       -0.072479         1
         9        25        13        12     9      180.000000       19.051647         2
         9        25        13        12     9        0.000000       -1.473354         3
         9        25        13        12     9      180.000000       -0.458190         4
         9        25        13        14     9        0.000000        0.171365         1
         9        25        13        14     9      180.000000       14.560185         2
         9        25        13        14     9        0.000000       -0.147041         3
         9        25        13        14     9      180.000000       -0.177950         4
        10         9         8        26     9        0.000000        0.042621         1
        10         9         8        26     9      180.000000        3.023622         2
        10         9         8        26     9        0.000000        0.046890         3
        10         9         8        26     9      180.000000       -0.141382         4
        10         9        25        13     9        0.000000       -0.081419         1
        10         9        25        13     9      180.000000       18.708829         2
        10         9        25        13     9        0.000000       -1.603528         3
        10         9        25        13     9      180.000000       -0.491328         4
        10         9        25        45     9        0.000000       -0.141693         1
        10         9        25        45     9      180.000000       14.801417         2
        10         9        25        45     9        0.000000       -0.623601         3
        10         9        25        45     9      180.000000       -0.032298         4
        10        11        12        13     9        0.000000        0.109050         1
        10        11        12        13     9      180.000000       18.616529         2
        10        11        12        13     9        0.000000       -1.515084         3
        10        11        12        13     9      180.000000       -0.456085         4
        10        11        12        34     9        0.000000        0.052747         1
        10        11        12        34     9      180.000000       14.634508         2
        10        11        12        34     9        0.000000       -0.634940         3
        10        11        12        34     9      180.000000        0.081292         4
        11        10         9        25     9        0.000000       -0.219448         1
        11        10         9        25     9      180.000000       18.778554         2
        11        10         9        25     9        0.000000       -1.535895         3
        11        10         9        25     9      180.000000       -0.351384         4
        11        12        13        14     9        0.000000        0.175750         1
        11        12        13        14     9      180.000000       14.708349         2
        11        12        13        14     9        0.000000       -0.202608         3
        11        12        13        14     9      180.000000       -0.099357         4
        11        12        13        25     9        0.000000       -0.132126         1
        11        12        13        25     9      180.000000       19.083595         2
        11        12        13        25     9        0.000000       -1.437675         3
        11        12        13        25     9      180.000000       -0.459673         4
        12        11        10        32     9        0.000000        0.077440         1
        12        11        10        32     9      180.000000       14.585815         2
        12        11        10        32     9        0.000000       -0.742600         3
        12        11        10        32     9      180.000000        0.171579         4
        12        13        14        15     9        0.000000       -0.241508         1
        12        13        14        15     9      180.000000        1.377442         2
        12        13        14        15     9        0.000000        0.140578         3
        12        13        14        15     9      180.000000        0.090995         4
        12        13        14        18     9        0.000000       -0.231459         1
        12        13        14        18     9      180.000000        1.367796         2
        12        13        14        18     9        0.000000        0.169382         3
        12        13        14        18     9      180.000000        0.152539         4
        12        13        14        23     9        0.000000       -0.307022         1
        12        13        14        23     9      180.000000       -0.481876         2
        12        13        14        23     9        0.000000        0.144676         3
        12        13        14        23     9      180.000000        0.132200         4
        12        13        25        45     9        0.000000        0.035719         1
        12        13        25        45     9      180.000000       14.339579         2
        12        13        25        45     9        0.000000       -0.689340         3
        12        13        25        45     9      180.000000        0.075035         4
        13        12        11        33     9        0.000000        0.071512         1
        13        12        11        33     9      180.000000       15.083015         2
        13        12        11        33     9        0.000000       -0.584435         3
        13        12        11        33     9      180.000000        0.085537         4
        13        14        15        16     9        0.000000       -0.047012         1
        13        14        15        16     9      180.000000        0.459080         2
        13        14        15        16     9        0.000000        1.284585         3
        13        14        15        16     9      180.000000        0.092191         4
        13        14        15        17     9        0.000000       -0.047012         1
        13        14        15        17     9      180.000000        0.459080         2
        13        14        15        17     9        0.000000        1.284585         3
        13        14        15        17     9      180.000000        0.092191         4
        13        14        15        35     9        0.000000        0.063878         1
        13        14        15        35     9      180.000000        0.865170         2
        13        14        15        35     9        0.000000        1.585218         3
        13        14        15        35     9      180.000000        0.061512         4
        13        14        18        19     9        0.000000        0.012920         1
        13        14        18        19     9      180.000000        0.605239         2
        13        14        18        19     9        0.000000        0.247696         3
        13        14        18        19     9      180.000000        0.225341         4
        13        14        18        40     9        0.000000        1.059554         1
        13        14        18        40     9      180.000000        0.527404         2
        13        14        18        40     9        0.000000        0.152015         3
        13        14        18        40     9      180.000000       -0.043896         4
        13        14        23        21     9        0.000000        0.580673         1
        13        14        23        21     9      180.000000        0.779045         2
        13        14        23        21     9        0.000000        0.419813         3
        13        14        23        21     9      180.000000        0.785128         4
        13        14        23        24     9        0.000000       -0.842679         1
        13        14        23        24     9      180.000000        1.204222         2
        13        14        23        24     9        0.000000       -0.336938         3
        13        14        23        24     9      180.000000        0.433070         4
        14        13        12        34     9        0.000000       -0.024046         1
        14        13        12        34     9      180.000000       12.655441         2
        14        13        12        34     9        0.000000       -0.307111         3
        14        13        12        34     9      180.000000        0.222241         4
        14        13        25        45     9        0.000000       -0.029778         1
        14        13        25        45     9      180.000000       12.773273         2
        14        13        25        45     9        0.000000       -0.300560         3
        14        13        25        45     9      180.000000        0.221158         4
        14        15        16        17     9        0.000000       36.756380         1
        14        15        16        17     9      180.000000       -1.256458         2
        14        15        16        17     9        0.000000        1.578942         3
        14        15        16        17     9      180.000000       11.424950         4
        14        15        16        36     9        0.000000        0.702706         1
        14        15        16        36     9      180.000000       -1.580479         2
        14        15        16        36     9        0.000000        0.019185         3
        14        15        16        36     9      180.000000        1.344228         4
        14        15        16        37     9        0.000000        0.702706         1
        14        15        16        37     9      180.000000       -1.580479         2
        14        15        16        37     9        0.000000        0.019185         3
        14        15        16        37     9      180.000000        1.344228         4
        14        15        17        16     9        0.000000       36.756380         1
        14        15        17        16     9      180.000000       -1.256458         2
        14        15        17        16     9        0.000000        1.578942         3
        14        15        17        16     9      180.000000       11.424950         4
        14        15        17        38     9        0.000000        0.702706         1
        14        15        17        38     9      180.000000       -1.580479         2
        14        15        17        38     9        0.000000        0.019185         3
        14        15        17        38     9      180.000000        1.344228         4
        14        15        17        39     9        0.000000        0.702706         1
        14        15        17        39     9      180.000000       -1.580479         2
        14        15        17        39     9        0.000000        0.019185         3
        14        15        17        39     9      180.000000        1.344228         4
        14        18        19        20     9        0.000000        2.225654         1
        14        18        19        20     9      180.000000       17.710704         2
        14        18        19        20     9        0.000000        0.846330         3
        14        18        19        20     9      180.000000       -1.899073         4
        14        18        19        21     9        0.000000       -1.503541         1
        14        18        19        21     9      180.000000       22.318135         2
        14        18        19        21     9        0.000000       -1.492200         3
        14        18        19        21     9      180.000000       -2.587925         4
        14        23        21        19     9        0.000000       -3.199269         1
        14        23        21        19     9      180.000000       11.134571         2
        14        23        21        19     9        0.000000       -1.424548         3
        14        23        21        19     9      180.000000       -0.354714         4
        14        23        21        22     9        0.000000       -0.927348         1
        14        23        21        22     9      180.000000        5.632266         2
        14        23        21        22     9        0.000000        0.194517         3
        14        23        21        22     9      180.000000       -0.146003         4
        15        14        13        25     9        0.000000       -0.455351         1
        15        14        13        25     9      180.000000        1.476769         2
        15        14        13        25     9        0.000000        0.087463         3
        15        14        13        25     9      180.000000        0.082650         4
        15        14        18        19     9        0.000000       -3.192217         1
        15        14        18        19     9      180.000000        1.786950         2
        15        14        18        19     9        0.000000        0.247241         3
        15        14        18        19     9      180.000000        0.162775         4
        15        14        18        40     9        0.000000        1.093011         1
        15        14        18        40     9      180.000000        0.895513         2
        15        14        18        40     9        0.000000        0.083133         3
        15        14        18        40     9      180.000000        0.034288         4
        15        14        23        21     9        0.000000       -1.663483         1
        15        14        23        21     9      180.000000        1.743965         2
        15        14        23        21     9        0.000000        0.204177         3
        15        14        23        21     9      180.000000        0.678616         4
        15        14        23        24     9        0.000000       -0.690913         1
        15        14        23        24     9      180.000000        1.656975         2
        15        14        23        24     9        0.000000       -0.529450         3
        15        14        23        24     9      180.000000        0.437851         4
        15        16        17        38     9        0.000000       27.788818         1
        15        16        17        38     9      180.000000        2.343705         2
        15        16        17        38     9        0.000000       -0.080764         3
        15        16        17        38     9      180.000000        5.696217         4
        15        16        17        39     9        0.000000       27.788818         1
        15        16        17        39     9      180.000000        2.343705         2
        15        16        17        39     9        0.000000       -0.080764         3
        15        16        17        39     9      180.000000        5.696217         4
        15        17        16        36     9        0.000000       27.788822         1
        15        17        16        36     9      180.000000        2.343704         2
        15        17        16        36     9        0.000000       -0.080764         3
        15        17        16        36     9      180.000000        5.696217         4
        15        17        16        37     9        0.000000       27.788818         1
        15        17        16        37     9      180.000000        2.343705         2
        15        17        16        37     9        0.000000       -0.080764         3
        15        17        16        37     9      180.000000        5.696217         4
        16        15        14        18     9        0.000000        0.135020         1
        16        15        14        18     9      180.000000       -0.526363         2
        16        15        14        18     9        0.000000        1.071461         3
        16        15        14        18     9      180.000000        0.128479         4
        16        15        14        23     9        0.000000       -0.543666         1
        16        15        14        23     9      180.000000       -0.010015         2
        16        15        14        23     9        0.000000        0.823229         3
        16        15        14        23     9      180.000000        0.023438         4
        16        15        17        38     9        0.000000       32.216267         1
        16        15        17        38     9      180.000000        2.449346         2
        16        15        17        38     9        0.000000        0.006301         3
        16        15        17        38     9      180.000000        6.330639         4
        16        15        17        39     9        0.000000       32.216267         1
        16        15        17        39     9      180.000000        2.449346         2
        16        15        17        39     9        0.000000        0.006301         3
        16        15        17        39     9      180.000000        6.330639         4
        16        17        15        35     9        0.000000       33.214311         1
        16        17        15        35     9      180.000000        4.388815         2
        16        17        15        35     9        0.000000       -0.341486         3
        16        17        15        35     9      180.000000        6.831463         4
        17        15        14        18     9        0.000000        0.135020         1
        17        15        14        18     9      180.000000       -0.526363         2
        17        15        14        18     9        0.000000        1.071461         3
        17        15        14        18     9      180.000000        0.128479         4
        17        15        14        23     9        0.000000       -0.543666         1
        17        15        14        23     9      180.000000       -0.010015         2
        17        15        14        23     9        0.000000        0.823229         3
        17        15        14        23     9      180.000000        0.023438         4
        17        15        16        36     9        0.000000       32.216271         1
        17        15        16        36     9      180.000000        2.449346         2
        17        15        16        36     9        0.000000        0.006300         3
        17        15        16        36     9      180.000000        6.330639         4
        17        15        16        37     9        0.000000       32.216267         1
        17        15        16        37     9      180.000000        2.449346         2
        17        15        16        37     9        0.000000        0.006301         3
        17        15        16        37     9      180.000000        6.330639         4
        17        16        15        35     9        0.000000       33.214311         1
        17        16        15        35     9      180.000000        4.388815         2
        17        16        15        35     9        0.000000       -0.341486         3
        17        16        15        35     9      180.000000        6.831463         4
        18        14        13        25     9        0.000000       -0.088742         1
        18        14        13        25     9      180.000000        1.421687         2
        18        14        13        25     9        0.000000        0.103807         3
        18        14        13        25     9      180.000000        0.135944         4
        18        14        15        35     9        0.000000       -0.825186         1
        18        14        15        35     9      180.000000       -0.748654         2
        18        14        15        35     9        0.000000        1.187461         3
        18        14        15        35     9      180.000000       -0.113455         4
        18        14        23        21     9        0.000000        0.846267         1
        18        14        23        21     9      180.000000        7.674253         2
        18        14        23        21     9        0.000000       -0.129959         3
        18        14        23        21     9      180.000000       -0.374181         4
        18        14        23        24     9        0.000000        6.954343         1
        18        14        23        24     9      180.000000        5.214521         2
        18        14        23        24     9        0.000000        0.085530         3
        18        14        23        24     9      180.000000        0.381754         4
        18        19        20        41     9        0.000000       -1.912810         1
        18        19        20        41     9      180.000000        6.401110         2
        18        19        20        41     9        0.000000       -0.119591         3
        18        19        20        41     9      180.000000       -0.499019         4
        18        19        20        47     9        0.000000       -1.912810         1
        18        19        20        47     9      180.000000        6.401110         2
        18        19        20        47     9        0.000000       -0.119591         3
        18        19        20        47     9      180.000000       -0.499019         4
        18        19        21        22     9        0.000000       -2.595472         1
        18        19        21        22     9      180.000000        5.687022         2
        18        19        21        22     9        0.000000       -0.270199         3
        18        19        21        22     9      180.000000        0.071016         4
        18        19        21        23     9        0.000000       -1.530473         1
        18        19        21        23     9      180.000000       14.535265         2
        18        19        21        23     9        0.000000       -2.812515         3
        18        19        21        23     9      180.000000       -1.257192         4
        19        18        14        23     9        0.000000       -2.410526         1
        19        18        14        23     9      180.000000        7.090548         2
        19        18        14        23     9        0.000000       -0.379500         3
        19        18        14        23     9      180.000000       -1.884004         4
        19        21        22        42     9        0.000000        0.017243         1
        19        21        22        42     9      180.000000        0.009278         2
        19        21        22        42     9        0.000000        0.186287         3
        19        21        22        42     9      180.000000       -0.015663         4
        19        21        22        43     9        0.000000        0.017243         1
        19        21        22        43     9      180.000000        0.009278         2
        19        21        22        43     9        0.000000        0.186287         3
        19        21        22        43     9      180.000000       -0.015663         4
        19        21        22        44     9        0.000000        0.017243         1
        19        21        22        44     9      180.000000        0.009278         2
        19        21        22        44     9        0.000000        0.186287         3
        19        21        22        44     9      180.000000       -0.015663         4
        19        21        23        24     9        0.000000        1.863267         1
        19        21        23        24     9      180.000000       16.900331         2
        19        21        23        24     9        0.000000       -0.487083         3
        19        21        23        24     9      180.000000       -0.863534         4
        20        19        18        40     9        0.000000       -0.804131         1
        20        19        18        40     9      180.000000        8.071699         2
        20        19        18        40     9        0.000000        0.396356         3
        20        19        18        40     9      180.000000       -0.383885         4
        20        19        21        22     9        0.000000        1.681250         1
        20        19        21        22     9      180.000000        7.565634         2
        20        19        21        22     9        0.000000       -0.084198         3
        20        19        21        22     9      180.000000       -0.117755         4
        20        19        21        23     9        0.000000        1.215504         1
        20        19        21        23     9      180.000000       13.015315         2
        20        19        21        23     9        0.000000       -0.233097         3
        20        19        21        23     9      180.000000       -0.792367         4
        21        19        18        40     9        0.000000       -0.423671         1
        21        19        18        40     9      180.000000        8.960265         2
        21        19        18        40     9        0.000000        0.006718         3
        21        19        18        40     9      180.000000       -0.794589         4
        21        19        20        41     9        0.000000       -0.692758         1
        21        19        20        41     9      180.000000        6.266682         2
        21        19        20        41     9        0.000000        0.276009         3
        21        19        20        41     9      180.000000       -0.640727         4
        21        19        20        47     9        0.000000       -0.692758         1
        21        19        20        47     9      180.000000        6.266682         2
        21        19        20        47     9        0.000000        0.276009         3
        21        19        20        47     9      180.000000       -0.640727         4
        22        21        23        24     9        0.000000       -0.372579         1
        22        21        23        24     9      180.000000        9.241157         2
        22        21        23        24     9        0.000000       -0.366743         3
        22        21        23        24     9      180.000000        0.272899         4
        23        14        13        25     9        0.000000       -0.645006         1
        23        14        13        25     9      180.000000       -0.374447         2
        23        14        13        25     9        0.000000        0.117428         3
        23        14        13        25     9      180.000000        0.136619         4
        23        14        15        35     9        0.000000        0.320143         1
        23        14        15        35     9      180.000000        0.180785         2
        23        14        15        35     9        0.000000        0.829727         3
        23        14        15        35     9      180.000000        0.033272         4
        23        14        18        40     9        0.000000       -0.684303         1
        23        14        18        40     9      180.000000       -0.486763         2
        23        14        18        40     9        0.000000        0.139437         3
        23        14        18        40     9      180.000000        0.153061         4
        23        21        22        42     9        0.000000       -0.076232         1
        23        21        22        42     9      180.000000       -0.069377         2
        23        21        22        42     9        0.000000       -0.309860         3
        23        21        22        42     9      180.000000        0.046067         4
        23        21        22        43     9        0.000000       -0.076232         1
        23        21        22        43     9      180.000000       -0.069377         2
        23        21        22        43     9        0.000000       -0.309860         3
        23        21        22        43     9      180.000000        0.046067         4
        23        21        22        44     9        0.000000       -0.076232         1
        23        21        22        44     9      180.000000       -0.069377         2
        23        21        22        44     9        0.000000       -0.309860         3
        23        21        22        44     9      180.000000        0.046067         4
        25         9         8        26     9        0.000000        0.043311         1
        25         9         8        26     9      180.000000        3.142217         2
        25         9         8        26     9        0.000000        0.041956         3
        25         9         8        26     9      180.000000       -0.147572         4
        25         9        10        32     9        0.000000       -0.128742         1
        25         9        10        32     9      180.000000       14.769122         2
        25         9        10        32     9        0.000000       -0.709169         3
        25         9        10        32     9      180.000000        0.037978         4
        25        13        12        34     9        0.000000        0.034406         1
        25        13        12        34     9      180.000000       14.253557         2
        25        13        12        34     9        0.000000       -0.628435         3
        25        13        12        34     9      180.000000        0.068791         4
        26         4         5        30     9        0.000000       -0.079406         1
        26         4         5        30     9      180.000000       12.646812         2
        26         4         5        30     9        0.000000       -0.373611         3
        26         4         5        30     9      180.000000        0.032664         4
        26         8         7        31     9        0.000000       -0.143567         1
        26         8         7        31     9      180.000000       13.021026         2
        26         8         7        31     9        0.000000       -0.392891         3
        26         8         7        31     9      180.000000        0.096285         4
        32        10        11        33     9        0.000000       -0.170501         1
        32        10        11        33     9      180.000000       11.978213         2
        32        10        11        33     9        0.000000       -0.721175         3
        32        10        11        33     9      180.000000        0.313437         4
        33        11        12        34     9        0.000000       -0.140623         1
        33        11        12        34     9      180.000000       11.913582         2
        33        11        12        34     9        0.000000       -0.716171         3
        33        11        12        34     9      180.000000        0.300768         4
        35        15        16        36     9        0.000000        1.157644         1
        35        15        16        36     9      180.000000       -0.567150         2
        35        15        16        36     9        0.000000        0.081132         3
        35        15        16        36     9      180.000000        1.453199         4
        35        15        16        37     9        0.000000        1.157643         1
        35        15        16        37     9      180.000000       -0.567150         2
        35        15        16        37     9        0.000000        0.081132         3
        35        15        16        37     9      180.000000        1.453199         4
        35        15        17        38     9        0.000000        1.157643         1
        35        15        17        38     9      180.000000       -0.567150         2
        35        15        17        38     9        0.000000        0.081132         3
        35        15        17        38     9      180.000000        1.453199         4
        35        15        17        39     9        0.000000        1.157643         1
        35        15        17        39     9      180.000000       -0.567150         2
        35        15        17        39     9        0.000000        0.081132         3
        35        15        17        39     9      180.000000        1.453199         4
        36        16        17        38     9        0.000000        1.448266         1
        36        16        17        38     9      180.000000        0.067814         2
        36        16        17        38     9        0.000000        0.081954         3
        36        16        17        38     9      180.000000        1.066064         4
        36        16        17        39     9        0.000000        1.448266         1
        36        16        17        39     9      180.000000        0.067814         2
        36        16        17        39     9        0.000000        0.081954         3
        36        16        17        39     9      180.000000        1.066064         4
        37        16        17        38     9        0.000000        1.448267         1
        37        16        17        38     9      180.000000        0.067814         2
        37        16        17        38     9        0.000000        0.081954         3
        37        16        17        38     9      180.000000        1.066064         4
        37        16        17        39     9        0.000000        1.448267         1
        37        16        17        39     9      180.000000        0.067814         2
        37        16        17        39     9        0.000000        0.081954         3
        37        16        17        39     9      180.000000        1.066064         4

[ dihedrals ] ; impropers
;       ai        aj        ak        al funct           phase               k        pn
         5         4         6        30     4      180.000000        5.940900         2
         5         6        30         4     4      180.000000        5.940900         2
         5        30         4         6     4      180.000000        5.940900         2
         7         6         8        31     4      180.000000        2.815888         2
         7         8        31         6     4      180.000000        2.815888         2
         7        31         6         8     4      180.000000        2.815888         2
        19        18        20        21     4      180.000000       10.969362         2
        19        20        21        18     4      180.000000       10.969362         2
        19        21        18        20     4      180.000000       10.969362         2
        23        14        21        24     4      180.000000       27.893333         2
        23        21        24        14     4      180.000000       27.893333         2
        23        24        14        21     4      180.000000       27.893333         2

[ pairs ]
;       ai        aj funct
         1         4     1
         2         5     1
         2        26     1
         3         6     1
         3         8     1
         3        27     1
         3        28     1
         3        29     1
         3        30     1
         3        46     1
         4         7     1
         4         9     1
         5         8     1
         5        31     1
         5        46     1
         6         9     1
         6        26     1
         7        10     1
         7        25     1
         7        30     1
         7        46     1
         8        11     1
         8        13     1
         8        32     1
         8        45     1
         9        12     1
         9        14     1
         9        31     1
         9        33     1
         9        46     1
        10        13     1
        10        26     1
        10        34     1
        10        45     1
        11        14     1
        11        25     1
        12        15     1
        12        18     1
        12        23     1
        12        32     1
        12        45     1
        13        16     1
        13        17     1
        13        19     1
        13        21     1
        13        24     1
        13        33     1
        13        35     1
        13        40     1
        14        20     1
        14        22     1
        14        34     1
        14        36     1
        14        37     1
        14        38     1
        14        39     1
        14        45     1
        15        19     1
        15        21     1
        15        24     1
        15        25     1
        15        40     1
        16        18     1
        16        23     1
        17        18     1
        17        23     1
        18        22     1
        18        24     1
        18        25     1
        18        35     1
        18        41     1
        18        47     1
        19        24     1
        19        42     1
        19        43     1
        19        44     1
        20        22     1
        20        23     1
        20        40     1
        21        40     1
        21        41     1
        21        47     1
        22        24     1
        23        25     1
        23        35     1
        23        40     1
        23        42     1
        23        43     1
        23        44     1
        25        26     1
        25        32     1
        25        34     1
        26        30     1
        26        31     1
        32        33     1
        33        34     1
        35        36     1
        35        37     1
        35        38     1
        35        39     1
        36        38     1
        36        39     1
        37        38     1
        37        39     1
