; ITP file created by ByteFF-ML, 2026-02-21 08:14:12.540857

[ atomtypes ]
;name           bonded.type        at.num        mass        charge   ptype           sigma         epsilon
 c0bf                                   6      0.0000       0.00000       A     3.39909e-01     4.52588e-01
 n1bf                                   7      0.0000       0.00000       A     3.18287e-01     7.03250e-01
 c2bf                                   6      0.0000       0.00000       A     3.31264e-01     4.10570e-01
 n3bf                                   7      0.0000       0.00000       A     3.36721e-01     4.77448e-01
 n4bf                                   7      0.0000       0.00000       A     3.26713e-01     6.48769e-01
 c5bf                                   6      0.0000       0.00000       A     3.39536e-01     4.48869e-01
 c6bf                                   6      0.0000       0.00000       A     3.31648e-01     4.15198e-01
 c7bf                                   6      0.0000       0.00000       A     3.31488e-01     4.13867e-01
 c8bf                                   6      0.0000       0.00000       A     3.31499e-01     4.13444e-01
 c9bf                                   6      0.0000       0.00000       A     3.31504e-01     4.12557e-01
 c10bf                                  6      0.0000       0.00000       A     3.31419e-01     4.13417e-01
 c11bf                                  6      0.0000       0.00000       A     3.31231e-01     4.13159e-01
 c12bf                                  6      0.0000       0.00000       A     3.31511e-01     4.13957e-01
 n13bf                                  7      0.0000       0.00000       A     3.38302e-01     3.92446e-01
 c14bf                                  6      0.0000       0.00000       A     3.31550e-01     4.12586e-01
 c15bf                                  6      0.0000       0.00000       A     3.31586e-01     4.14145e-01
 f16bf                                  9      0.0000       0.00000       A     3.03331e-01     3.48569e-01
 c17bf                                  6      0.0000       0.00000       A     3.31517e-01     4.13012e-01
 c18bf                                  6      0.0000       0.00000       A     3.31574e-01     4.14790e-01
 c19bf                                  6      0.0000       0.00000       A     3.39513e-01     4.48947e-01
 c20bf                                  6      0.0000       0.00000       A     3.39757e-01     4.48772e-01
 c21bf                                  6      0.0000       0.00000       A     3.39757e-01     4.48772e-01
 c22bf                                  6      0.0000       0.00000       A     3.31408e-01     4.15537e-01
 o23bf                                  8      0.0000       0.00000       A     3.04503e-01     6.16156e-01
 h24bf                                  1      0.0000       0.00000       A     2.42205e-01     8.61909e-02
 h25bf                                  1      0.0000       0.00000       A     2.42205e-01     8.61909e-02
 h26bf                                  1      0.0000       0.00000       A     2.42205e-01     8.61909e-02
 h27bf                                  1      0.0000       0.00000       A     1.10384e-01     3.90095e-02
 h28bf                                  1      0.0000       0.00000       A     1.10320e-01     4.03279e-02
 h29bf                                  1      0.0000       0.00000       A     2.62572e-01     6.77436e-02
 h30bf                                  1      0.0000       0.00000       A     2.62513e-01     6.74259e-02
 h31bf                                  1      0.0000       0.00000       A     2.62472e-01     6.74738e-02
 h32bf                                  1      0.0000       0.00000       A     2.53647e-01     6.70142e-02
 h33bf                                  1      0.0000       0.00000       A     2.53614e-01     6.68466e-02
 h34bf                                  1      0.0000       0.00000       A     2.62446e-01     6.74674e-02
 h35bf                                  1      0.0000       0.00000       A     2.62565e-01     6.76829e-02
 h36bf                                  1      0.0000       0.00000       A     2.59520e-01     8.50290e-02
 h37bf                                  1      0.0000       0.00000       A     2.60287e-01     8.57424e-02
 h38bf                                  1      0.0000       0.00000       A     2.60287e-01     8.57424e-02
 h39bf                                  1      0.0000       0.00000       A     2.60287e-01     8.57424e-02
 h40bf                                  1      0.0000       0.00000       A     2.60287e-01     8.57424e-02
 h41bf                                  1      0.0000       0.00000       A     1.10384e-01     3.90095e-02

[ moleculetype ]
;name             nrexcl
 CAT-17g               3

[ atoms ]
;       nr            type      resi   res      atom      cgnr      charge          mass ; qtot
         1            c0bf         1   UNL        c0         1     0.07261       12.0110 ; qtot    0.073
         2            n1bf         1   UNL        n1         2    -0.59326       14.0070 ; qtot   -0.521
         3            c2bf         1   UNL        c2         3     0.92602       12.0110 ; qtot    0.405
         4            n3bf         1   UNL        n3         4    -0.58697       14.0070 ; qtot   -0.182
         5            n4bf         1   UNL        n4         5    -0.61445       14.0070 ; qtot   -0.796
         6            c5bf         1   UNL        c5         6     0.12041       12.0110 ; qtot   -0.676
         7            c6bf         1   UNL        c6         7    -0.12404       12.0110 ; qtot   -0.800
         8            c7bf         1   UNL        c7         8    -0.07458       12.0110 ; qtot   -0.874
         9            c8bf         1   UNL        c8         9    -0.09643       12.0110 ; qtot   -0.971
        10            c9bf         1   UNL        c9        10    -0.09367       12.0110 ; qtot   -1.064
        11           c10bf         1   UNL       c10        11    -0.02861       12.0110 ; qtot   -1.093
        12           c11bf         1   UNL       c11        12    -0.05753       12.0110 ; qtot   -1.151
        13           c12bf         1   UNL       c12        13     0.32814       12.0110 ; qtot   -0.822
        14           n13bf         1   UNL       n13        14    -0.63676       14.0070 ; qtot   -1.459
        15           c14bf         1   UNL       c14        15     0.30504       12.0110 ; qtot   -1.154
        16           c15bf         1   UNL       c15        16     0.11230       12.0110 ; qtot   -1.042
        17           f16bf         1   UNL       f16        17    -0.16703       18.9980 ; qtot   -1.209
        18           c17bf         1   UNL       c17        18    -0.10714       12.0110 ; qtot   -1.316
        19           c18bf         1   UNL       c18        19    -0.05949       12.0110 ; qtot   -1.375
        20           c19bf         1   UNL       c19        20    -0.16654       12.0110 ; qtot   -1.542
        21           c20bf         1   UNL       c20        21    -0.10388       12.0110 ; qtot   -1.646
        22           c21bf         1   UNL       c21        22    -0.10388       12.0110 ; qtot   -1.750
        23           c22bf         1   UNL       c22        23     0.55423       12.0110 ; qtot   -1.196
        24           o23bf         1   UNL       o23        24    -0.39240       15.9990 ; qtot   -1.588
        25           h24bf         1   UNL       h24        25     0.08926        1.0080 ; qtot   -1.499
        26           h25bf         1   UNL       h25        26     0.08926        1.0080 ; qtot   -1.409
        27           h26bf         1   UNL       h26        27     0.08926        1.0080 ; qtot   -1.320
        28           h27bf         1   UNL       h27        28     0.38441        1.0080 ; qtot   -0.936
        29           h28bf         1   UNL       h28        29     0.41057        1.0080 ; qtot   -0.525
        30           h29bf         1   UNL       h29        30     0.12888        1.0080 ; qtot   -0.396
        31           h30bf         1   UNL       h30        31     0.11984        1.0080 ; qtot   -0.276
        32           h31bf         1   UNL       h31        32     0.11718        1.0080 ; qtot   -0.159
        33           h32bf         1   UNL       h32        33     0.02783        1.0080 ; qtot   -0.131
        34           h33bf         1   UNL       h33        34     0.04327        1.0080 ; qtot   -0.088
        35           h34bf         1   UNL       h34        35     0.14179        1.0080 ; qtot    0.054
        36           h35bf         1   UNL       h35        36     0.13080        1.0080 ; qtot    0.184
        37           h36bf         1   UNL       h36        37     0.10393        1.0080 ; qtot    0.288
        38           h37bf         1   UNL       h37        38     0.08180        1.0080 ; qtot    0.370
        39           h38bf         1   UNL       h38        39     0.08180        1.0080 ; qtot    0.452
        40           h39bf         1   UNL       h39        40     0.08180        1.0080 ; qtot    0.534
        41           h40bf         1   UNL       h40        41     0.08180        1.0080 ; qtot    0.616
        42           h41bf         1   UNL       h41        42     0.38443        1.0080 ; qtot    1.000

[ bonds ]
;       ai        aj funct               r               k
         1         2     1        0.146737   195108.827344
         1        25     1        0.109021   312351.867139
         1        26     1        0.109021   312351.867139
         1        27     1        0.109021   312351.867139
         2         3     1        0.135493   307944.238672
         2        23     1        0.142426   148868.502490
         3         4     1        0.133058   418634.532812
         3         5     1        0.133302   386902.376074
         4        28     1        0.101328   425154.871875
         4        42     1        0.101328   425154.871875
         5         6     1        0.148913   139630.299951
         5        29     1        0.101337   424655.417090
         6         7     1        0.152262   166830.385889
         6        20     1        0.152416   168644.784741
         6        23     1        0.154577   128147.845166
         7         8     1        0.140053   293210.348047
         7        19     1        0.139868   296592.227441
         8         9     1        0.139655   314826.183203
         8        30     1        0.108541   320854.320020
         9        10     1        0.139603   315779.381348
         9        31     1        0.108618   319848.540967
        10        11     1        0.140535   285817.737939
        10        32     1        0.108594   318502.760840
        11        12     1        0.148074   216417.323389
        11        19     1        0.140378   287541.671582
        12        13     1        0.140840   270027.811230
        12        18     1        0.140397   290813.205127
        13        14     1        0.133689   326258.406494
        13        33     1        0.108770   316263.284033
        14        15     1        0.133787   319636.812793
        15        16     1        0.139402   285966.951270
        15        34     1        0.108694   320889.765527
        16        17     1        0.135312   296964.098828
        16        18     1        0.138707   318695.157422
        18        35     1        0.108496   323807.329199
        19        36     1        0.108523   319695.037402
        20        21     1        0.151266   194349.289868
        20        22     1        0.151266   194349.289868
        20        37     1        0.108537   319742.587500
        21        22     1        0.151225   199579.992139
        21        38     1        0.108483   323654.872656
        21        39     1        0.108483   323654.872656
        22        40     1        0.108483   323654.872656
        22        41     1        0.108483   323654.872656
        23        24     1        0.120460   715141.721680

[ angles ]
;       ai        aj        ak funct           theta             cth
         1         2         3     1      126.596352      465.851780
         1         2        23     1      123.154587      533.875393
         2         1        25     1      109.233238      484.690090
         2         1        26     1      109.233238      484.690090
         2         1        27     1      109.233238      484.690090
         2         3         4     1      123.849709      628.052901
         2         3         5     1      111.327248      587.108806
         2        23         6     1      106.404617      167.360000
         2        23        24     1      124.414818      651.466280
         3         2        23     1      109.854813      830.456710
         3         4        28     1      121.317360      450.542985
         3         4        42     1      121.317360      450.542985
         3         5         6     1      111.918991      621.631084
         3         5        29     1      123.479996      428.649734
         4         3         5     1      125.425247      615.144594
         5         6         7     1      110.812096      603.925695
         5         6        20     1      110.691429      585.051728
         5         6        23     1      100.735207      334.101395
         6         5        29     1      121.067909      366.714263
         6         7         8     1      120.241966      490.003054
         6         7        19     1      120.049706      446.194239
         6        20        21     1      121.414719      410.920436
         6        20        22     1      121.414719      410.920436
         6        20        37     1      112.401169      424.131102
         6        23        24     1      127.712059      357.779307
         7         6        20     1      114.064102      533.010738
         7         6        23     1      111.595871      602.042333
         7         8         9     1      119.710999      677.588381
         7         8        30     1      120.439598      409.425302
         7        19        11     1      121.099808      663.230460
         7        19        36     1      119.798691      407.978593
         8         7        19     1      119.589684      687.179991
         8         9        10     1      120.354919      724.479813
         8         9        31     1      119.842361      433.129134
         9         8        30     1      119.735275      425.147000
         9        10        11     1      120.333008      701.149556
         9        10        32     1      119.750404      430.330108
        10         9        31     1      119.794922      436.724312
        10        11        12     1      120.772217      512.519666
        10        11        19     1      118.478333      663.312945
        11        10        32     1      119.863602      429.464463
        11        12        13     1      121.296829      545.347907
        11        12        18     1      121.445763      477.959338
        11        19        36     1      119.100464      421.160370
        12        11        19     1      120.764503      423.736330
        12        13        14     1      124.212479      730.713868
        12        13        33     1      119.930435      409.471524
        12        18        16     1      117.977928      754.582638
        12        18        35     1      122.067200      415.576713
        13        12        18     1      117.053284      615.751292
        13        14        15     1      118.346008      679.725007
        14        13        33     1      116.007912      330.912992
        14        15        16     1      121.311607      662.169138
        14        15        34     1      118.054955      349.548378
        15        16        17     1      119.311462      550.638941
        15        16        18     1      121.144852      665.389687
        16        15        34     1      120.459518      412.336884
        16        18        35     1      120.079872      440.646493
        17        16        18     1      119.500381      537.553790
        20         6        23     1      110.442825      625.809785
        20        21        22     1       59.965576      167.360000
        20        21        38     1      117.870682      377.010219
        20        21        39     1      117.870682      377.010219
        20        22        21     1       59.965576      167.360000
        20        22        40     1      117.870667      377.010219
        20        22        41     1      117.870667      377.010219
        21        20        22     1       60.013451      167.360000
        21        20        37     1      116.334984      367.698112
        21        22        40     1      118.112976      373.159862
        21        22        41     1      118.112976      373.159862
        22        20        37     1      116.334984      367.698112
        22        21        38     1      118.112976      373.159862
        22        21        39     1      118.112976      373.159862
        25         1        26     1      109.817101      349.345230
        25         1        27     1      109.817101      349.345230
        26         1        27     1      109.817101      349.345230
        28         4        42     1      117.449059      314.118256
        38        21        39     1      114.508240      310.792335
        40        22        41     1      114.508240      310.792367

[ dihedrals ] ; propers for gromacs 4.5 or higher, use funct 9
;       ai        aj        ak        al funct           phase               k        pn
         1         2         3         4     9        0.000000        1.681251         1
         1         2         3         4     9      180.000000        7.565632         2
         1         2         3         4     9        0.000000       -0.084196         3
         1         2         3         4     9      180.000000       -0.117755         4
         1         2         3         5     9        0.000000       -2.595472         1
         1         2         3         5     9      180.000000        5.687022         2
         1         2         3         5     9        0.000000       -0.270197         3
         1         2         3         5     9      180.000000        0.071015         4
         1         2        23         6     9        0.000000       -0.927348         1
         1         2        23         6     9      180.000000        5.632267         2
         1         2        23         6     9        0.000000        0.194516         3
         1         2        23         6     9      180.000000       -0.146003         4
         1         2        23        24     9        0.000000       -0.372579         1
         1         2        23        24     9      180.000000        9.241160         2
         1         2        23        24     9        0.000000       -0.366743         3
         1         2        23        24     9      180.000000        0.272898         4
         2         3         4        28     9        0.000000       -0.692757         1
         2         3         4        28     9      180.000000        6.266683         2
         2         3         4        28     9        0.000000        0.276010         3
         2         3         4        28     9      180.000000       -0.640727         4
         2         3         4        42     9        0.000000       -0.692758         1
         2         3         4        42     9      180.000000        6.266682         2
         2         3         4        42     9        0.000000        0.276009         3
         2         3         4        42     9      180.000000       -0.640727         4
         2         3         5         6     9        0.000000       -1.503540         1
         2         3         5         6     9      180.000000       22.318135         2
         2         3         5         6     9        0.000000       -1.492200         3
         2         3         5         6     9      180.000000       -2.587925         4
         2         3         5        29     9        0.000000       -0.423671         1
         2         3         5        29     9      180.000000        8.960263         2
         2         3         5        29     9        0.000000        0.006719         3
         2         3         5        29     9      180.000000       -0.794589         4
         2        23         6         5     9        0.000000        0.846264         1
         2        23         6         5     9      180.000000        7.674254         2
         2        23         6         5     9        0.000000       -0.129959         3
         2        23         6         5     9      180.000000       -0.374181         4
         2        23         6         7     9        0.000000        0.580672         1
         2        23         6         7     9      180.000000        0.779047         2
         2        23         6         7     9        0.000000        0.419813         3
         2        23         6         7     9      180.000000        0.785128         4
         2        23         6        20     9        0.000000       -1.663485         1
         2        23         6        20     9      180.000000        1.743965         2
         2        23         6        20     9        0.000000        0.204177         3
         2        23         6        20     9      180.000000        0.678616         4
         3         2         1        25     9        0.000000        0.017242         1
         3         2         1        25     9      180.000000        0.009277         2
         3         2         1        25     9        0.000000        0.186287         3
         3         2         1        25     9      180.000000       -0.015663         4
         3         2         1        26     9        0.000000        0.017242         1
         3         2         1        26     9      180.000000        0.009277         2
         3         2         1        26     9        0.000000        0.186287         3
         3         2         1        26     9      180.000000       -0.015663         4
         3         2         1        27     9        0.000000        0.017242         1
         3         2         1        27     9      180.000000        0.009277         2
         3         2         1        27     9        0.000000        0.186287         3
         3         2         1        27     9      180.000000       -0.015663         4
         3         2        23         6     9        0.000000       -3.199270         1
         3         2        23         6     9      180.000000       11.134570         2
         3         2        23         6     9        0.000000       -1.424547         3
         3         2        23         6     9      180.000000       -0.354715         4
         3         2        23        24     9        0.000000        1.863270         1
         3         2        23        24     9      180.000000       16.900331         2
         3         2        23        24     9        0.000000       -0.487083         3
         3         2        23        24     9      180.000000       -0.863534         4
         3         5         6         7     9        0.000000        0.012918         1
         3         5         6         7     9      180.000000        0.605239         2
         3         5         6         7     9        0.000000        0.247695         3
         3         5         6         7     9      180.000000        0.225342         4
         3         5         6        20     9        0.000000       -3.192218         1
         3         5         6        20     9      180.000000        1.786951         2
         3         5         6        20     9        0.000000        0.247241         3
         3         5         6        20     9      180.000000        0.162776         4
         3         5         6        23     9        0.000000       -2.410528         1
         3         5         6        23     9      180.000000        7.090548         2
         3         5         6        23     9        0.000000       -0.379500         3
         3         5         6        23     9      180.000000       -1.884004         4
         4         3         2        23     9        0.000000        1.215505         1
         4         3         2        23     9      180.000000       13.015313         2
         4         3         2        23     9        0.000000       -0.233095         3
         4         3         2        23     9      180.000000       -0.792368         4
         4         3         5         6     9        0.000000        2.225656         1
         4         3         5         6     9      180.000000       17.710702         2
         4         3         5         6     9        0.000000        0.846330         3
         4         3         5         6     9      180.000000       -1.899073         4
         4         3         5        29     9        0.000000       -0.804130         1
         4         3         5        29     9      180.000000        8.071696         2
         4         3         5        29     9        0.000000        0.396356         3
         4         3         5        29     9      180.000000       -0.383884         4
         5         3         2        23     9        0.000000       -1.530473         1
         5         3         2        23     9      180.000000       14.535260         2
         5         3         2        23     9        0.000000       -2.812513         3
         5         3         2        23     9      180.000000       -1.257193         4
         5         3         4        28     9        0.000000       -1.912809         1
         5         3         4        28     9      180.000000        6.401111         2
         5         3         4        28     9        0.000000       -0.119590         3
         5         3         4        28     9      180.000000       -0.499018         4
         5         3         4        42     9        0.000000       -1.912809         1
         5         3         4        42     9      180.000000        6.401112         2
         5         3         4        42     9        0.000000       -0.119590         3
         5         3         4        42     9      180.000000       -0.499018         4
         5         6         7         8     9        0.000000       -0.231461         1
         5         6         7         8     9      180.000000        1.367796         2
         5         6         7         8     9        0.000000        0.169382         3
         5         6         7         8     9      180.000000        0.152540         4
         5         6         7        19     9        0.000000       -0.088742         1
         5         6         7        19     9      180.000000        1.421686         2
         5         6         7        19     9        0.000000        0.103807         3
         5         6         7        19     9      180.000000        0.135944         4
         5         6        20        21     9        0.000000        0.135020         1
         5         6        20        21     9      180.000000       -0.526363         2
         5         6        20        21     9        0.000000        1.071462         3
         5         6        20        21     9      180.000000        0.128480         4
         5         6        20        22     9        0.000000        0.135020         1
         5         6        20        22     9      180.000000       -0.526363         2
         5         6        20        22     9        0.000000        1.071462         3
         5         6        20        22     9      180.000000        0.128480         4
         5         6        20        37     9        0.000000       -0.825185         1
         5         6        20        37     9      180.000000       -0.748652         2
         5         6        20        37     9        0.000000        1.187461         3
         5         6        20        37     9      180.000000       -0.113455         4
         5         6        23        24     9        0.000000        6.954345         1
         5         6        23        24     9      180.000000        5.214521         2
         5         6        23        24     9        0.000000        0.085529         3
         5         6        23        24     9      180.000000        0.381754         4
         6         7         8         9     9        0.000000        0.175751         1
         6         7         8         9     9      180.000000       14.708349         2
         6         7         8         9     9        0.000000       -0.202608         3
         6         7         8         9     9      180.000000       -0.099356         4
         6         7         8        30     9        0.000000       -0.024047         1
         6         7         8        30     9      180.000000       12.655440         2
         6         7         8        30     9        0.000000       -0.307111         3
         6         7         8        30     9      180.000000        0.222241         4
         6         7        19        11     9        0.000000        0.177121         1
         6         7        19        11     9      180.000000       14.579154         2
         6         7        19        11     9        0.000000       -0.138975         3
         6         7        19        11     9      180.000000       -0.181447         4
         6         7        19        36     9        0.000000       -0.029779         1
         6         7        19        36     9      180.000000       12.773272         2
         6         7        19        36     9        0.000000       -0.300560         3
         6         7        19        36     9      180.000000        0.221157         4
         6        20        21        22     9        0.000000       36.756372         1
         6        20        21        22     9      180.000000       -1.256455         2
         6        20        21        22     9        0.000000        1.578942         3
         6        20        21        22     9      180.000000       11.424949         4
         6        20        21        38     9        0.000000        0.702705         1
         6        20        21        38     9      180.000000       -1.580479         2
         6        20        21        38     9        0.000000        0.019185         3
         6        20        21        38     9      180.000000        1.344229         4
         6        20        21        39     9        0.000000        0.702705         1
         6        20        21        39     9      180.000000       -1.580479         2
         6        20        21        39     9        0.000000        0.019185         3
         6        20        21        39     9      180.000000        1.344229         4
         6        20        22        21     9        0.000000       36.756372         1
         6        20        22        21     9      180.000000       -1.256455         2
         6        20        22        21     9        0.000000        1.578942         3
         6        20        22        21     9      180.000000       11.424949         4
         6        20        22        40     9        0.000000        0.702705         1
         6        20        22        40     9      180.000000       -1.580479         2
         6        20        22        40     9        0.000000        0.019185         3
         6        20        22        40     9      180.000000        1.344229         4
         6        20        22        41     9        0.000000        0.702705         1
         6        20        22        41     9      180.000000       -1.580479         2
         6        20        22        41     9        0.000000        0.019185         3
         6        20        22        41     9      180.000000        1.344229         4
         7         6         5        29     9        0.000000        1.059554         1
         7         6         5        29     9      180.000000        0.527404         2
         7         6         5        29     9        0.000000        0.152015         3
         7         6         5        29     9      180.000000       -0.043896         4
         7         6        20        21     9        0.000000       -0.047011         1
         7         6        20        21     9      180.000000        0.459078         2
         7         6        20        21     9        0.000000        1.284585         3
         7         6        20        21     9      180.000000        0.092191         4
         7         6        20        22     9        0.000000       -0.047011         1
         7         6        20        22     9      180.000000        0.459078         2
         7         6        20        22     9        0.000000        1.284585         3
         7         6        20        22     9      180.000000        0.092191         4
         7         6        20        37     9        0.000000        0.063877         1
         7         6        20        37     9      180.000000        0.865171         2
         7         6        20        37     9        0.000000        1.585218         3
         7         6        20        37     9      180.000000        0.061512         4
         7         6        23        24     9        0.000000       -0.842678         1
         7         6        23        24     9      180.000000        1.204222         2
         7         6        23        24     9        0.000000       -0.336938         3
         7         6        23        24     9      180.000000        0.433070         4
         7         8         9        10     9        0.000000        0.109051         1
         7         8         9        10     9      180.000000       18.616525         2
         7         8         9        10     9        0.000000       -1.515084         3
         7         8         9        10     9      180.000000       -0.456085         4
         7         8         9        31     9        0.000000        0.071512         1
         7         8         9        31     9      180.000000       15.083015         2
         7         8         9        31     9        0.000000       -0.584435         3
         7         8         9        31     9      180.000000        0.085537         4
         7        19        11        10     9        0.000000       -0.075110         1
         7        19        11        10     9      180.000000       18.727116         2
         7        19        11        10     9        0.000000       -1.587034         3
         7        19        11        10     9      180.000000       -0.492885         4
         7        19        11        12     9        0.000000        0.306958         1
         7        19        11        12     9      180.000000       16.868300         2
         7        19        11        12     9        0.000000       -0.154084         3
         7        19        11        12     9      180.000000       -0.427653         4
         8         7         6        20     9        0.000000       -0.241508         1
         8         7         6        20     9      180.000000        1.377441         2
         8         7         6        20     9        0.000000        0.140578         3
         8         7         6        20     9      180.000000        0.090995         4
         8         7         6        23     9        0.000000       -0.307022         1
         8         7         6        23     9      180.000000       -0.481876         2
         8         7         6        23     9        0.000000        0.144676         3
         8         7         6        23     9      180.000000        0.132200         4
         8         7        19        11     9        0.000000       -0.071189         1
         8         7        19        11     9      180.000000       19.050614         2
         8         7        19        11     9        0.000000       -1.473436         3
         8         7        19        11     9      180.000000       -0.459014         4
         8         7        19        36     9        0.000000        0.035718         1
         8         7        19        36     9      180.000000       14.339579         2
         8         7        19        36     9        0.000000       -0.689340         3
         8         7        19        36     9      180.000000        0.075035         4
         8         9        10        11     9        0.000000       -0.022289         1
         8         9        10        11     9      180.000000       18.828451         2
         8         9        10        11     9        0.000000       -1.500430         3
         8         9        10        11     9      180.000000       -0.340674         4
         8         9        10        32     9        0.000000        0.077440         1
         8         9        10        32     9      180.000000       14.585813         2
         8         9        10        32     9        0.000000       -0.742600         3
         8         9        10        32     9      180.000000        0.171579         4
         9         8         7        19     9        0.000000       -0.132125         1
         9         8         7        19     9      180.000000       19.083593         2
         9         8         7        19     9        0.000000       -1.437675         3
         9         8         7        19     9      180.000000       -0.459673         4
         9        10        11        12     9        0.000000        0.220756         1
         9        10        11        12     9      180.000000       16.211326         2
         9        10        11        12     9        0.000000       -0.222765         3
         9        10        11        12     9      180.000000       -0.266792         4
         9        10        11        19     9        0.000000       -0.215051         1
         9        10        11        19     9      180.000000       18.787927         2
         9        10        11        19     9        0.000000       -1.526915         3
         9        10        11        19     9      180.000000       -0.353131         4
        10         9         8        30     9        0.000000        0.052747         1
        10         9         8        30     9      180.000000       14.634509         2
        10         9         8        30     9        0.000000       -0.634940         3
        10         9         8        30     9      180.000000        0.081291         4
        10        11        12        13     9        0.000000       -0.089832         1
        10        11        12        13     9      180.000000        2.661290         2
        10        11        12        13     9        0.000000        0.051823         3
        10        11        12        13     9      180.000000       -0.199714         4
        10        11        12        18     9        0.000000        0.054213         1
        10        11        12        18     9      180.000000        3.023133         2
        10        11        12        18     9        0.000000        0.033248         3
        10        11        12        18     9      180.000000       -0.142855         4
        10        11        19        36     9        0.000000       -0.143509         1
        10        11        19        36     9      180.000000       14.726530         2
        10        11        19        36     9        0.000000       -0.609334         3
        10        11        19        36     9      180.000000       -0.024810         4
        11        10         9        31     9        0.000000       -0.051041         1
        11        10         9        31     9      180.000000       14.883104         2
        11        10         9        31     9        0.000000       -0.603725         3
        11        10         9        31     9      180.000000        0.088226         4
        11        12        13        14     9        0.000000        0.384055         1
        11        12        13        14     9      180.000000       15.108462         2
        11        12        13        14     9        0.000000        0.039651         3
        11        12        13        14     9      180.000000       -0.464689         4
        11        12        13        33     9        0.000000        0.084147         1
        11        12        13        33     9      180.000000       12.921916         2
        11        12        13        33     9        0.000000       -0.144165         3
        11        12        13        33     9      180.000000        0.165998         4
        11        12        18        16     9        0.000000        0.325515         1
        11        12        18        16     9      180.000000       16.755285         2
        11        12        18        16     9        0.000000       -0.098532         3
        11        12        18        16     9      180.000000       -0.480251         4
        11        12        18        35     9        0.000000        0.024831         1
        11        12        18        35     9      180.000000       13.023668         2
        11        12        18        35     9        0.000000       -0.178619         3
        11        12        18        35     9      180.000000        0.155855         4
        12        11        10        32     9        0.000000       -0.142342         1
        12        11        10        32     9      180.000000       13.424539         2
        12        11        10        32     9        0.000000       -0.275769         3
        12        11        10        32     9      180.000000        0.159582         4
        12        11        19        36     9        0.000000       -0.140019         1
        12        11        19        36     9      180.000000       13.387128         2
        12        11        19        36     9        0.000000       -0.180373         3
        12        11        19        36     9      180.000000        0.153918         4
        12        13        14        15     9        0.000000        0.142168         1
        12        13        14        15     9      180.000000       23.313625         2
        12        13        14        15     9        0.000000       -0.819777         3
        12        13        14        15     9      180.000000       -0.157791         4
        12        18        16        15     9        0.000000       -0.025295         1
        12        18        16        15     9      180.000000       17.261043         2
        12        18        16        15     9        0.000000       -1.280103         3
        12        18        16        15     9      180.000000       -0.391634         4
        12        18        16        17     9        0.000000        0.353873         1
        12        18        16        17     9      180.000000       23.476155         2
        12        18        16        17     9        0.000000        0.616035         3
        12        18        16        17     9      180.000000       -0.861575         4
        13        12        11        19     9        0.000000       -0.057390         1
        13        12        11        19     9      180.000000        2.819107         2
        13        12        11        19     9        0.000000        0.087221         3
        13        12        11        19     9      180.000000       -0.211000         4
        13        12        18        16     9        0.000000       -0.222713         1
        13        12        18        16     9      180.000000       18.178771         2
        13        12        18        16     9        0.000000       -1.787935         3
        13        12        18        16     9      180.000000       -0.385395         4
        13        12        18        35     9        0.000000       -0.031858         1
        13        12        18        35     9      180.000000       12.999950         2
        13        12        18        35     9        0.000000       -0.637777         3
        13        12        18        35     9      180.000000        0.106498         4
        13        14        15        16     9        0.000000        0.047013         1
        13        14        15        16     9      180.000000       22.526238         2
        13        14        15        16     9        0.000000       -0.651798         3
        13        14        15        16     9      180.000000       -0.103088         4
        13        14        15        34     9        0.000000        0.892286         1
        13        14        15        34     9      180.000000       19.989631         2
        13        14        15        34     9        0.000000        0.214844         3
        13        14        15        34     9      180.000000       -0.398007         4
        14        13        12        18     9        0.000000       -0.088552         1
        14        13        12        18     9      180.000000       17.292942         2
        14        13        12        18     9        0.000000       -0.734521         3
        14        13        12        18     9      180.000000       -0.369335         4
        14        15        16        17     9        0.000000        0.167382         1
        14        15        16        17     9      180.000000       22.231476         2
        14        15        16        17     9        0.000000        0.540697         3
        14        15        16        17     9      180.000000       -1.057061         4
        14        15        16        18     9        0.000000       -0.067149         1
        14        15        16        18     9      180.000000       15.514241         2
        14        15        16        18     9        0.000000       -0.733321         3
        14        15        16        18     9      180.000000       -0.336713         4
        15        14        13        33     9        0.000000        1.169034         1
        15        14        13        33     9      180.000000       21.611515         2
        15        14        13        33     9        0.000000        0.176882         3
        15        14        13        33     9      180.000000       -0.234489         4
        15        16        18        35     9        0.000000        0.105793         1
        15        16        18        35     9      180.000000       12.743263         2
        15        16        18        35     9        0.000000       -0.518246         3
        15        16        18        35     9      180.000000        0.157750         4
        17        16        15        34     9        0.000000        0.357491         1
        17        16        15        34     9      180.000000       15.533965         2
        17        16        15        34     9        0.000000        0.259986         3
        17        16        15        34     9      180.000000        0.147955         4
        17        16        18        35     9        0.000000        0.369777         1
        17        16        18        35     9      180.000000       16.073596         2
        17        16        18        35     9        0.000000        0.285323         3
        17        16        18        35     9      180.000000        0.169640         4
        18        12        11        19     9        0.000000        0.084252         1
        18        12        11        19     9      180.000000        3.156147         2
        18        12        11        19     9        0.000000        0.020871         3
        18        12        11        19     9      180.000000       -0.144631         4
        18        12        13        33     9        0.000000       -0.121854         1
        18        12        13        33     9      180.000000       13.458913         2
        18        12        13        33     9        0.000000       -0.380568         3
        18        12        13        33     9      180.000000        0.102213         4
        18        16        15        34     9        0.000000        0.259923         1
        18        16        15        34     9      180.000000       12.598775         2
        18        16        15        34     9        0.000000       -0.385153         3
        18        16        15        34     9      180.000000        0.042657         4
        19         7         6        20     9        0.000000       -0.455351         1
        19         7         6        20     9      180.000000        1.476769         2
        19         7         6        20     9        0.000000        0.087463         3
        19         7         6        20     9      180.000000        0.082650         4
        19         7         6        23     9        0.000000       -0.645005         1
        19         7         6        23     9      180.000000       -0.374448         2
        19         7         6        23     9        0.000000        0.117428         3
        19         7         6        23     9      180.000000        0.136619         4
        19         7         8        30     9        0.000000        0.034407         1
        19         7         8        30     9      180.000000       14.253554         2
        19         7         8        30     9        0.000000       -0.628434         3
        19         7         8        30     9      180.000000        0.068790         4
        19        11        10        32     9        0.000000       -0.135162         1
        19        11        10        32     9      180.000000       14.721285         2
        19        11        10        32     9        0.000000       -0.698784         3
        19        11        10        32     9      180.000000        0.044035         4
        20         6         5        29     9        0.000000        1.093009         1
        20         6         5        29     9      180.000000        0.895513         2
        20         6         5        29     9        0.000000        0.083132         3
        20         6         5        29     9      180.000000        0.034288         4
        20         6        23        24     9        0.000000       -0.690912         1
        20         6        23        24     9      180.000000        1.656976         2
        20         6        23        24     9        0.000000       -0.529450         3
        20         6        23        24     9      180.000000        0.437851         4
        20        21        22        40     9        0.000000       27.788818         1
        20        21        22        40     9      180.000000        2.343703         2
        20        21        22        40     9        0.000000       -0.080764         3
        20        21        22        40     9      180.000000        5.696217         4
        20        21        22        41     9        0.000000       27.788818         1
        20        21        22        41     9      180.000000        2.343703         2
        20        21        22        41     9        0.000000       -0.080764         3
        20        21        22        41     9      180.000000        5.696217         4
        20        22        21        38     9        0.000000       27.788818         1
        20        22        21        38     9      180.000000        2.343703         2
        20        22        21        38     9        0.000000       -0.080764         3
        20        22        21        38     9      180.000000        5.696217         4
        20        22        21        39     9        0.000000       27.788818         1
        20        22        21        39     9      180.000000        2.343703         2
        20        22        21        39     9        0.000000       -0.080764         3
        20        22        21        39     9      180.000000        5.696217         4
        21        20         6        23     9        0.000000       -0.543666         1
        21        20         6        23     9      180.000000       -0.010016         2
        21        20         6        23     9        0.000000        0.823229         3
        21        20         6        23     9      180.000000        0.023438         4
        21        20        22        40     9        0.000000       32.216265         1
        21        20        22        40     9      180.000000        2.449345         2
        21        20        22        40     9        0.000000        0.006300         3
        21        20        22        40     9      180.000000        6.330640         4
        21        20        22        41     9        0.000000       32.216265         1
        21        20        22        41     9      180.000000        2.449345         2
        21        20        22        41     9        0.000000        0.006300         3
        21        20        22        41     9      180.000000        6.330640         4
        21        22        20        37     9        0.000000       33.214309         1
        21        22        20        37     9      180.000000        4.388816         2
        21        22        20        37     9        0.000000       -0.341486         3
        21        22        20        37     9      180.000000        6.831461         4
        22        20         6        23     9        0.000000       -0.543666         1
        22        20         6        23     9      180.000000       -0.010016         2
        22        20         6        23     9        0.000000        0.823229         3
        22        20         6        23     9      180.000000        0.023438         4
        22        20        21        38     9        0.000000       32.216265         1
        22        20        21        38     9      180.000000        2.449345         2
        22        20        21        38     9        0.000000        0.006300         3
        22        20        21        38     9      180.000000        6.330640         4
        22        20        21        39     9        0.000000       32.216265         1
        22        20        21        39     9      180.000000        2.449345         2
        22        20        21        39     9        0.000000        0.006300         3
        22        20        21        39     9      180.000000        6.330640         4
        22        21        20        37     9        0.000000       33.214309         1
        22        21        20        37     9      180.000000        4.388816         2
        22        21        20        37     9        0.000000       -0.341486         3
        22        21        20        37     9      180.000000        6.831461         4
        23         2         1        25     9        0.000000       -0.076232         1
        23         2         1        25     9      180.000000       -0.069377         2
        23         2         1        25     9        0.000000       -0.309860         3
        23         2         1        25     9      180.000000        0.046067         4
        23         2         1        26     9        0.000000       -0.076232         1
        23         2         1        26     9      180.000000       -0.069377         2
        23         2         1        26     9        0.000000       -0.309860         3
        23         2         1        26     9      180.000000        0.046067         4
        23         2         1        27     9        0.000000       -0.076232         1
        23         2         1        27     9      180.000000       -0.069377         2
        23         2         1        27     9        0.000000       -0.309860         3
        23         2         1        27     9      180.000000        0.046067         4
        23         6         5        29     9        0.000000       -0.684303         1
        23         6         5        29     9      180.000000       -0.486763         2
        23         6         5        29     9        0.000000        0.139437         3
        23         6         5        29     9      180.000000        0.153062         4
        23         6        20        37     9        0.000000        0.320144         1
        23         6        20        37     9      180.000000        0.180787         2
        23         6        20        37     9        0.000000        0.829727         3
        23         6        20        37     9      180.000000        0.033272         4
        30         8         9        31     9        0.000000       -0.140623         1
        30         8         9        31     9      180.000000       11.913578         2
        30         8         9        31     9        0.000000       -0.716172         3
        30         8         9        31     9      180.000000        0.300768         4
        31         9        10        32     9        0.000000       -0.170500         1
        31         9        10        32     9      180.000000       11.978213         2
        31         9        10        32     9        0.000000       -0.721176         3
        31         9        10        32     9      180.000000        0.313437         4
        37        20        21        38     9        0.000000        1.157646         1
        37        20        21        38     9      180.000000       -0.567151         2
        37        20        21        38     9        0.000000        0.081132         3
        37        20        21        38     9      180.000000        1.453200         4
        37        20        21        39     9        0.000000        1.157646         1
        37        20        21        39     9      180.000000       -0.567151         2
        37        20        21        39     9        0.000000        0.081132         3
        37        20        21        39     9      180.000000        1.453200         4
        37        20        22        40     9        0.000000        1.157646         1
        37        20        22        40     9      180.000000       -0.567151         2
        37        20        22        40     9        0.000000        0.081132         3
        37        20        22        40     9      180.000000        1.453200         4
        37        20        22        41     9        0.000000        1.157646         1
        37        20        22        41     9      180.000000       -0.567151         2
        37        20        22        41     9        0.000000        0.081132         3
        37        20        22        41     9      180.000000        1.453200         4
        38        21        22        40     9        0.000000        1.448269         1
        38        21        22        40     9      180.000000        0.067816         2
        38        21        22        40     9        0.000000        0.081954         3
        38        21        22        40     9      180.000000        1.066065         4
        38        21        22        41     9        0.000000        1.448269         1
        38        21        22        41     9      180.000000        0.067816         2
        38        21        22        41     9        0.000000        0.081954         3
        38        21        22        41     9      180.000000        1.066065         4
        39        21        22        40     9        0.000000        1.448269         1
        39        21        22        40     9      180.000000        0.067816         2
        39        21        22        40     9        0.000000        0.081954         3
        39        21        22        40     9      180.000000        1.066065         4
        39        21        22        41     9        0.000000        1.448269         1
        39        21        22        41     9      180.000000        0.067816         2
        39        21        22        41     9        0.000000        0.081954         3
        39        21        22        41     9      180.000000        1.066065         4

[ dihedrals ] ; impropers
;       ai        aj        ak        al funct           phase               k        pn
         3         2         4         5     4      180.000000       10.969360         2
         3         4         5         2     4      180.000000       10.969360         2
         3         5         2         4     4      180.000000       10.969360         2
        13        12        14        33     4      180.000000        1.331291         2
        13        14        33        12     4      180.000000        1.331291         2
        13        33        12        14     4      180.000000        1.331291         2
        15        14        16        34     4      180.000000        2.510606         2
        15        16        34        14     4      180.000000        2.510606         2
        15        34        14        16     4      180.000000        2.510606         2
        23         2         6        24     4      180.000000       27.893333         2
        23         6        24         2     4      180.000000       27.893333         2
        23        24         2         6     4      180.000000       27.893333         2

[ pairs ]
;       ai        aj funct
         1         4     1
         1         5     1
         1         6     1
         1        24     1
         2         7     1
         2        20     1
         2        28     1
         2        29     1
         2        42     1
         3         7     1
         3        20     1
         3        24     1
         3        25     1
         3        26     1
         3        27     1
         4         6     1
         4        23     1
         4        29     1
         5         8     1
         5        19     1
         5        21     1
         5        22     1
         5        24     1
         5        28     1
         5        37     1
         5        42     1
         6         9     1
         6        11     1
         6        30     1
         6        36     1
         6        38     1
         6        39     1
         6        40     1
         6        41     1
         7        10     1
         7        12     1
         7        21     1
         7        22     1
         7        24     1
         7        29     1
         7        31     1
         7        37     1
         8        11     1
         8        20     1
         8        23     1
         8        32     1
         8        36     1
         9        12     1
         9        19     1
        10        13     1
        10        18     1
        10        30     1
        10        36     1
        11        14     1
        11        16     1
        11        31     1
        11        33     1
        11        35     1
        12        15     1
        12        17     1
        12        32     1
        12        36     1
        13        16     1
        13        19     1
        13        34     1
        13        35     1
        14        17     1
        14        18     1
        15        33     1
        15        35     1
        17        34     1
        17        35     1
        18        19     1
        18        33     1
        18        34     1
        19        20     1
        19        23     1
        19        30     1
        19        32     1
        20        24     1
        20        29     1
        21        23     1
        22        23     1
        23        25     1
        23        26     1
        23        27     1
        23        29     1
        23        37     1
        30        31     1
        31        32     1
        37        38     1
        37        39     1
        37        40     1
        37        41     1
        38        40     1
        38        41     1
        39        40     1
        39        41     1
