; ITP file created by ByteFF-ML, 2026-02-21 08:13:26.452141

[ atomtypes ]
;name           bonded.type        at.num        mass        charge   ptype           sigma         epsilon
 c0bf                                   6      0.0000       0.00000       A     3.39898e-01     4.52593e-01
 n1bf                                   7      0.0000       0.00000       A     3.18321e-01     7.03038e-01
 c2bf                                   6      0.0000       0.00000       A     3.31223e-01     4.10380e-01
 n3bf                                   7      0.0000       0.00000       A     3.36731e-01     4.77019e-01
 n4bf                                   7      0.0000       0.00000       A     3.26871e-01     6.40659e-01
 c5bf                                   6      0.0000       0.00000       A     3.39379e-01     4.44341e-01
 c6bf                                   6      0.0000       0.00000       A     3.31546e-01     4.15024e-01
 c7bf                                   6      0.0000       0.00000       A     3.31529e-01     4.14153e-01
 c8bf                                   6      0.0000       0.00000       A     3.31506e-01     4.13240e-01
 c9bf                                   6      0.0000       0.00000       A     3.31502e-01     4.12817e-01
 c10bf                                  6      0.0000       0.00000       A     3.31506e-01     4.13240e-01
 c11bf                                  6      0.0000       0.00000       A     3.31529e-01     4.14153e-01
 c12bf                                  6      0.0000       0.00000       A     3.31613e-01     4.15067e-01
 c13bf                                  6      0.0000       0.00000       A     3.31511e-01     4.14036e-01
 c14bf                                  6      0.0000       0.00000       A     3.31496e-01     4.13510e-01
 c15bf                                  6      0.0000       0.00000       A     3.31479e-01     4.12381e-01
 c16bf                                  6      0.0000       0.00000       A     3.31348e-01     4.11614e-01
 c17bf                                  6      0.0000       0.00000       A     3.31363e-01     4.12691e-01
 c18bf                                  6      0.0000       0.00000       A     3.31468e-01     4.13821e-01
 n19bf                                  7      0.0000       0.00000       A     3.38253e-01     3.92722e-01
 c20bf                                  6      0.0000       0.00000       A     3.31513e-01     4.12544e-01
 c21bf                                  6      0.0000       0.00000       A     3.31465e-01     4.12427e-01
 n22bf                                  7      0.0000       0.00000       A     3.38346e-01     3.93626e-01
 c23bf                                  6      0.0000       0.00000       A     3.31538e-01     4.14357e-01
 c24bf                                  6      0.0000       0.00000       A     3.31448e-01     4.16660e-01
 o25bf                                  8      0.0000       0.00000       A     3.04556e-01     6.16025e-01
 h26bf                                  1      0.0000       0.00000       A     2.42205e-01     8.61909e-02
 h27bf                                  1      0.0000       0.00000       A     2.42205e-01     8.61909e-02
 h28bf                                  1      0.0000       0.00000       A     2.42205e-01     8.61909e-02
 h29bf                                  1      0.0000       0.00000       A     1.10384e-01     3.90095e-02
 h30bf                                  1      0.0000       0.00000       A     1.10491e-01     4.02241e-02
 h31bf                                  1      0.0000       0.00000       A     2.62565e-01     6.77340e-02
 h32bf                                  1      0.0000       0.00000       A     2.62462e-01     6.72839e-02
 h33bf                                  1      0.0000       0.00000       A     2.62457e-01     6.73477e-02
 h34bf                                  1      0.0000       0.00000       A     2.62462e-01     6.72839e-02
 h35bf                                  1      0.0000       0.00000       A     2.62565e-01     6.77340e-02
 h36bf                                  1      0.0000       0.00000       A     2.62565e-01     6.77340e-02
 h37bf                                  1      0.0000       0.00000       A     2.62513e-01     6.74259e-02
 h38bf                                  1      0.0000       0.00000       A     2.62488e-01     6.75042e-02
 h39bf                                  1      0.0000       0.00000       A     2.53642e-01     6.70796e-02
 h40bf                                  1      0.0000       0.00000       A     2.53703e-01     6.68290e-02
 h41bf                                  1      0.0000       0.00000       A     2.53528e-01     6.69344e-02
 h42bf                                  1      0.0000       0.00000       A     2.62588e-01     6.78313e-02
 h43bf                                  1      0.0000       0.00000       A     1.10384e-01     3.90095e-02

[ moleculetype ]
;name             nrexcl
 CAT-4l                3

[ atoms ]
;       nr            type      resi   res      atom      cgnr      charge          mass ; qtot
         1            c0bf         1   UNL        c0         1     0.07241       12.0110 ; qtot    0.072
         2            n1bf         1   UNL        n1         2    -0.59233       14.0070 ; qtot   -0.520
         3            c2bf         1   UNL        c2         3     0.93511       12.0110 ; qtot    0.415
         4            n3bf         1   UNL        n3         4    -0.58908       14.0070 ; qtot   -0.174
         5            n4bf         1   UNL        n4         5    -0.61420       14.0070 ; qtot   -0.788
         6            c5bf         1   UNL        c5         6     0.14226       12.0110 ; qtot   -0.646
         7            c6bf         1   UNL        c6         7    -0.13622       12.0110 ; qtot   -0.782
         8            c7bf         1   UNL        c7         8    -0.07841       12.0110 ; qtot   -0.860
         9            c8bf         1   UNL        c8         9    -0.10257       12.0110 ; qtot   -0.963
        10            c9bf         1   UNL        c9        10    -0.09285       12.0110 ; qtot   -1.056
        11           c10bf         1   UNL       c10        11    -0.10257       12.0110 ; qtot   -1.158
        12           c11bf         1   UNL       c11        12    -0.07841       12.0110 ; qtot   -1.237
        13           c12bf         1   UNL       c12        13    -0.13180       12.0110 ; qtot   -1.369
        14           c13bf         1   UNL       c13        14    -0.06922       12.0110 ; qtot   -1.438
        15           c14bf         1   UNL       c14        15    -0.10179       12.0110 ; qtot   -1.540
        16           c15bf         1   UNL       c15        16    -0.07326       12.0110 ; qtot   -1.613
        17           c16bf         1   UNL       c16        17    -0.14712       12.0110 ; qtot   -1.760
        18           c17bf         1   UNL       c17        18     0.35546       12.0110 ; qtot   -1.405
        19           c18bf         1   UNL       c18        19     0.28449       12.0110 ; qtot   -1.120
        20           n19bf         1   UNL       n19        20    -0.62244       14.0070 ; qtot   -1.743
        21           c20bf         1   UNL       c20        21     0.28049       12.0110 ; qtot   -1.462
        22           c21bf         1   UNL       c21        22     0.28799       12.0110 ; qtot   -1.174
        23           n22bf         1   UNL       n22        23    -0.63702       14.0070 ; qtot   -1.811
        24           c23bf         1   UNL       c23        24    -0.03017       12.0110 ; qtot   -1.841
        25           c24bf         1   UNL       c24        25     0.55441       12.0110 ; qtot   -1.287
        26           o25bf         1   UNL       o25        26    -0.38753       15.9990 ; qtot   -1.674
        27           h26bf         1   UNL       h26        27     0.08958        1.0080 ; qtot   -1.585
        28           h27bf         1   UNL       h27        28     0.08958        1.0080 ; qtot   -1.495
        29           h28bf         1   UNL       h28        29     0.08958        1.0080 ; qtot   -1.406
        30           h29bf         1   UNL       h29        30     0.38417        1.0080 ; qtot   -1.021
        31           h30bf         1   UNL       h30        31     0.41349        1.0080 ; qtot   -0.608
        32           h31bf         1   UNL       h31        32     0.12674        1.0080 ; qtot   -0.481
        33           h32bf         1   UNL       h32        33     0.11912        1.0080 ; qtot   -0.362
        34           h33bf         1   UNL       h33        34     0.11390        1.0080 ; qtot   -0.248
        35           h34bf         1   UNL       h34        35     0.11912        1.0080 ; qtot   -0.129
        36           h35bf         1   UNL       h35        36     0.12674        1.0080 ; qtot   -0.002
        37           h36bf         1   UNL       h36        37     0.12975        1.0080 ; qtot    0.127
        38           h37bf         1   UNL       h37        38     0.12127        1.0080 ; qtot    0.249
        39           h38bf         1   UNL       h38        39     0.12381        1.0080 ; qtot    0.372
        40           h39bf         1   UNL       h39        40     0.03470        1.0080 ; qtot    0.407
        41           h40bf         1   UNL       h40        41     0.03675        1.0080 ; qtot    0.444
        42           h41bf         1   UNL       h41        42     0.03439        1.0080 ; qtot    0.478
        43           h42bf         1   UNL       h42        43     0.13752        1.0080 ; qtot    0.616
        44           h43bf         1   UNL       h43        44     0.38416        1.0080 ; qtot    1.000

[ bonds ]
;       ai        aj funct               r               k
         1         2     1        0.146770   194545.402100
         1        27     1        0.109019   312430.214990
         1        28     1        0.109019   312430.214990
         1        29     1        0.109019   312430.214990
         2         3     1        0.135571   306128.141602
         2        25     1        0.142427   149007.730811
         3         4     1        0.133057   418437.999219
         3         5     1        0.133367   385280.003516
         4        30     1        0.101331   425032.293750
         4        44     1        0.101331   425032.293750
         5         6     1        0.148849   140457.127710
         5        31     1        0.101328   425133.088721
         6         7     1        0.152361   165060.408838
         6        13     1        0.152362   165331.229883
         6        25     1        0.154797   124308.621680
         7         8     1        0.140161   291585.804834
         7        12     1        0.140161   291585.804834
         8         9     1        0.139713   314164.414551
         8        32     1        0.108563   319867.744873
         9        10     1        0.139901   306343.725879
         9        33     1        0.108609   320432.753418
        10        11     1        0.139901   306343.725879
        10        34     1        0.108623   320033.506250
        11        12     1        0.139713   314164.414551
        11        35     1        0.108609   320432.753418
        12        36     1        0.108563   319867.744873
        13        14     1        0.140113   292616.252734
        13        24     1        0.139810   298701.592676
        14        15     1        0.139663   313873.189355
        14        37     1        0.108548   320727.094141
        15        16     1        0.139498   318825.422217
        15        38     1        0.108603   320350.804834
        16        17     1        0.140576   287825.082422
        16        39     1        0.108501   321568.720654
        17        18     1        0.148181   206650.719751
        17        24     1        0.140368   289202.171045
        18        19     1        0.141070   249081.967676
        18        23     1        0.134744   282156.559180
        19        20     1        0.133505   332046.954150
        19        40     1        0.108633   319672.820117
        20        21     1        0.133990   312620.185547
        21        22     1        0.139882   278327.780371
        21        41     1        0.108721   319255.799121
        22        23     1        0.133479   329168.130273
        22        42     1        0.108784   316797.954492
        24        43     1        0.108464   321944.856738
        25        26     1        0.120340   720922.965723

[ angles ]
;       ai        aj        ak funct           theta             cth
         1         2         3     1      126.578964      468.028818
         1         2        25     1      123.180504      536.340905
         2         1        27     1      109.237282      484.028775
         2         1        28     1      109.237282      484.028775
         2         1        29     1      109.237282      484.028775
         2         3         4     1      123.852600      626.812755
         2         3         5     1      111.298294      587.422338
         2        25         6     1      106.249046      167.360000
         2        25        26     1      124.686508      645.429180
         3         2        25     1      109.844299      842.413950
         3         4        30     1      121.296143      450.934533
         3         4        44     1      121.296143      450.934469
         3         5         6     1      111.971664      628.767046
         3         5        31     1      123.585732      427.054526
         4         3         5     1      125.357384      617.615756
         5         6         7     1      110.788513      594.970597
         5         6        13     1      110.790062      596.812908
         5         6        25     1      100.257896      341.583832
         6         5        31     1      120.754250      368.882364
         6         7         8     1      120.068604      477.433625
         6         7        12     1      120.068604      477.433625
         6        13        14     1      120.086655      485.279966
         6        13        24     1      119.972122      442.098246
         6        25        26     1      127.886978      362.102102
         7         6        13     1      114.657738      487.962416
         7         6        25     1      111.267578      601.092991
         7         8         9     1      120.195145      680.403464
         7         8        32     1      120.290939      398.410317
         7        12        11     1      120.195145      680.403464
         7        12        36     1      120.290939      398.410317
         8         7        12     1      119.478966      686.490936
         8         9        10     1      120.116295      721.653685
         8         9        33     1      119.730301      425.611775
         9         8        32     1      119.529823      427.934567
         9        10        11     1      119.660950      700.021263
         9        10        34     1      120.189026      428.146429
        10         9        33     1      120.129761      427.908647
        10        11        12     1      120.116295      721.653685
        10        11        35     1      120.129761      427.908679
        11        10        34     1      120.189026      428.146429
        11        12        36     1      119.529823      427.934599
        12        11        35     1      119.730301      425.611775
        13         6        25     1      111.185448      601.446489
        13        14        15     1      119.756592      675.753156
        13        14        37     1      120.407181      402.619024
        13        24        17     1      120.876808      658.564511
        13        24        43     1      120.027588      400.015516
        14        13        24     1      119.629738      697.428991
        14        15        16     1      120.330544      729.057276
        14        15        38     1      119.828232      432.115535
        15        14        37     1      119.772476      422.281896
        15        16        17     1      120.233109      689.445261
        15        16        39     1      120.043991      420.628687
        16        15        38     1      119.843224      437.930781
        16        17        18     1      120.785789      537.008701
        16        17        24     1      118.746986      657.931446
        17        16        39     1      119.729164      424.309096
        17        18        19     1      122.548767      534.380964
        17        18        23     1      117.599831      517.775714
        17        24        43     1      118.868607      415.155574
        18        17        24     1      120.606094      461.961297
        18        19        20     1      122.783592      754.075726
        18        19        40     1      120.932350      382.667136
        18        23        22     1      117.436142      864.929828
        19        18        23     1      119.669632      611.158571
        19        20        21     1      116.570557      839.565286
        20        19        40     1      116.326431      343.184466
        20        21        22     1      121.387245      702.549245
        20        21        41     1      117.187515      363.458090
        21        22        23     1      122.208168      731.964676
        21        22        42     1      120.889847      419.436519
        22        21        41     1      121.203171      417.142808
        23        22        42     1      116.843643      385.875746
        27         1        28     1      109.825012      349.354041
        27         1        29     1      109.825012      349.354041
        28         1        29     1      109.825012      349.354041
        30         4        44     1      117.458168      314.236876

[ dihedrals ] ; propers for gromacs 4.5 or higher, use funct 9
;       ai        aj        ak        al funct           phase               k        pn
         1         2         3         4     9        0.000000        1.750031         1
         1         2         3         4     9      180.000000        7.527046         2
         1         2         3         4     9        0.000000       -0.053234         3
         1         2         3         4     9      180.000000       -0.107064         4
         1         2         3         5     9        0.000000       -2.795685         1
         1         2         3         5     9      180.000000        5.725591         2
         1         2         3         5     9        0.000000       -0.188592         3
         1         2         3         5     9      180.000000        0.060183         4
         1         2        25         6     9        0.000000       -0.538857         1
         1         2        25         6     9      180.000000        5.575424         2
         1         2        25         6     9        0.000000        0.152376         3
         1         2        25         6     9      180.000000       -0.161733         4
         1         2        25        26     9        0.000000       -0.456215         1
         1         2        25        26     9      180.000000        9.244379         2
         1         2        25        26     9        0.000000       -0.319752         3
         1         2        25        26     9      180.000000        0.297308         4
         2         3         4        30     9        0.000000       -0.736374         1
         2         3         4        30     9      180.000000        6.300565         2
         2         3         4        30     9        0.000000        0.313029         3
         2         3         4        30     9      180.000000       -0.635641         4
         2         3         4        44     9        0.000000       -0.736375         1
         2         3         4        44     9      180.000000        6.300565         2
         2         3         4        44     9        0.000000        0.313029         3
         2         3         4        44     9      180.000000       -0.635641         4
         2         3         5         6     9        0.000000       -1.518929         1
         2         3         5         6     9      180.000000       21.988461         2
         2         3         5         6     9        0.000000       -1.439307         3
         2         3         5         6     9      180.000000       -2.630186         4
         2         3         5        31     9        0.000000       -0.583773         1
         2         3         5        31     9      180.000000        8.920949         2
         2         3         5        31     9        0.000000        0.096791         3
         2         3         5        31     9      180.000000       -0.874819         4
         2        25         6         5     9        0.000000        0.368981         1
         2        25         6         5     9      180.000000        8.187297         2
         2        25         6         5     9        0.000000       -0.153603         3
         2        25         6         5     9      180.000000       -0.438700         4
         2        25         6         7     9        0.000000        0.495500         1
         2        25         6         7     9      180.000000        0.481891         2
         2        25         6         7     9        0.000000        0.316943         3
         2        25         6         7     9      180.000000        0.846984         4
         2        25         6        13     9        0.000000        0.542527         1
         2        25         6        13     9      180.000000        0.483121         2
         2        25         6        13     9        0.000000        0.325444         3
         2        25         6        13     9      180.000000        0.830402         4
         3         2         1        27     9        0.000000        0.021130         1
         3         2         1        27     9      180.000000        0.000117         2
         3         2         1        27     9        0.000000        0.183870         3
         3         2         1        27     9      180.000000       -0.015824         4
         3         2         1        28     9        0.000000        0.021130         1
         3         2         1        28     9      180.000000        0.000117         2
         3         2         1        28     9        0.000000        0.183870         3
         3         2         1        28     9      180.000000       -0.015824         4
         3         2         1        29     9        0.000000        0.021130         1
         3         2         1        29     9      180.000000        0.000117         2
         3         2         1        29     9        0.000000        0.183870         3
         3         2         1        29     9      180.000000       -0.015824         4
         3         2        25         6     9        0.000000       -2.825559         1
         3         2        25         6     9      180.000000       10.925332         2
         3         2        25         6     9        0.000000       -1.470465         3
         3         2        25         6     9      180.000000       -0.300432         4
         3         2        25        26     9        0.000000        1.928666         1
         3         2        25        26     9      180.000000       16.805427         2
         3         2        25        26     9        0.000000       -0.505018         3
         3         2        25        26     9      180.000000       -0.817874         4
         3         5         6         7     9        0.000000        0.573703         1
         3         5         6         7     9      180.000000        0.602635         2
         3         5         6         7     9        0.000000        0.267748         3
         3         5         6         7     9      180.000000        0.243559         4
         3         5         6        13     9        0.000000        0.379784         1
         3         5         6        13     9      180.000000        0.621302         2
         3         5         6        13     9        0.000000        0.259972         3
         3         5         6        13     9      180.000000        0.235520         4
         3         5         6        25     9        0.000000       -2.323484         1
         3         5         6        25     9      180.000000        6.770824         2
         3         5         6        25     9        0.000000       -0.429740         3
         3         5         6        25     9      180.000000       -1.708534         4
         4         3         2        25     9        0.000000        1.384865         1
         4         3         2        25     9      180.000000       13.000208         2
         4         3         2        25     9        0.000000       -0.230674         3
         4         3         2        25     9      180.000000       -0.772286         4
         4         3         5         6     9        0.000000        1.917672         1
         4         3         5         6     9      180.000000       17.273762         2
         4         3         5         6     9        0.000000        0.746894         3
         4         3         5         6     9      180.000000       -1.864771         4
         4         3         5        31     9        0.000000       -0.563534         1
         4         3         5        31     9      180.000000        8.078403         2
         4         3         5        31     9        0.000000        0.471206         3
         4         3         5        31     9      180.000000       -0.472618         4
         5         3         2        25     9        0.000000       -1.562446         1
         5         3         2        25     9      180.000000       14.809948         2
         5         3         2        25     9        0.000000       -2.756051         3
         5         3         2        25     9      180.000000       -1.320170         4
         5         3         4        30     9        0.000000       -1.578259         1
         5         3         4        30     9      180.000000        6.607875         2
         5         3         4        30     9        0.000000        0.015933         3
         5         3         4        30     9      180.000000       -0.506731         4
         5         3         4        44     9        0.000000       -1.578259         1
         5         3         4        44     9      180.000000        6.607875         2
         5         3         4        44     9        0.000000        0.015933         3
         5         3         4        44     9      180.000000       -0.506730         4
         5         6         7         8     9        0.000000       -0.346790         1
         5         6         7         8     9      180.000000        1.241990         2
         5         6         7         8     9        0.000000        0.147219         3
         5         6         7         8     9      180.000000        0.192257         4
         5         6         7        12     9        0.000000       -0.346790         1
         5         6         7        12     9      180.000000        1.241990         2
         5         6         7        12     9        0.000000        0.147219         3
         5         6         7        12     9      180.000000        0.192257         4
         5         6        13        14     9        0.000000       -0.362090         1
         5         6        13        14     9      180.000000        1.317125         2
         5         6        13        14     9        0.000000        0.142940         3
         5         6        13        14     9      180.000000        0.198646         4
         5         6        13        24     9        0.000000       -0.349473         1
         5         6        13        24     9      180.000000        1.419457         2
         5         6        13        24     9        0.000000        0.042250         3
         5         6        13        24     9      180.000000        0.189696         4
         5         6        25        26     9        0.000000        6.446726         1
         5         6        25        26     9      180.000000        5.117103         2
         5         6        25        26     9        0.000000        0.133933         3
         5         6        25        26     9      180.000000        0.360037         4
         6         7         8         9     9        0.000000        0.162833         1
         6         7         8         9     9      180.000000       14.950996         2
         6         7         8         9     9        0.000000       -0.196275         3
         6         7         8         9     9      180.000000       -0.190856         4
         6         7         8        32     9        0.000000       -0.059051         1
         6         7         8        32     9      180.000000       12.509450         2
         6         7         8        32     9        0.000000       -0.335274         3
         6         7         8        32     9      180.000000        0.203866         4
         6         7        12        11     9        0.000000        0.162833         1
         6         7        12        11     9      180.000000       14.950996         2
         6         7        12        11     9        0.000000       -0.196275         3
         6         7        12        11     9      180.000000       -0.190856         4
         6         7        12        36     9        0.000000       -0.059052         1
         6         7        12        36     9      180.000000       12.509450         2
         6         7        12        36     9        0.000000       -0.335274         3
         6         7        12        36     9      180.000000        0.203866         4
         6        13        14        15     9        0.000000        0.183984         1
         6        13        14        15     9      180.000000       15.031331         2
         6        13        14        15     9        0.000000       -0.204217         3
         6        13        14        15     9      180.000000       -0.204754         4
         6        13        14        37     9        0.000000       -0.008545         1
         6        13        14        37     9      180.000000       12.555406         2
         6        13        14        37     9        0.000000       -0.313664         3
         6        13        14        37     9      180.000000        0.183355         4
         6        13        24        17     9        0.000000        0.205389         1
         6        13        24        17     9      180.000000       15.003121         2
         6        13        24        17     9        0.000000       -0.200321         3
         6        13        24        17     9      180.000000       -0.261054         4
         6        13        24        43     9        0.000000       -0.022533         1
         6        13        24        43     9      180.000000       12.891306         2
         6        13        24        43     9        0.000000       -0.316526         3
         6        13        24        43     9      180.000000        0.194658         4
         7         6         5        31     9        0.000000        1.059913         1
         7         6         5        31     9      180.000000        0.593355         2
         7         6         5        31     9        0.000000        0.126829         3
         7         6         5        31     9      180.000000       -0.016391         4
         7         6        13        14     9        0.000000        0.055348         1
         7         6        13        14     9      180.000000        0.377189         2
         7         6        13        14     9        0.000000        0.198157         3
         7         6        13        14     9      180.000000        0.078023         4
         7         6        13        24     9        0.000000       -0.071204         1
         7         6        13        24     9      180.000000        0.423111         2
         7         6        13        24     9        0.000000        0.130707         3
         7         6        13        24     9      180.000000        0.048063         4
         7         6        25        26     9        0.000000       -1.152817         1
         7         6        25        26     9      180.000000        1.072200         2
         7         6        25        26     9        0.000000       -0.348037         3
         7         6        25        26     9      180.000000        0.393151         4
         7         8         9        10     9        0.000000        0.112457         1
         7         8         9        10     9      180.000000       19.076179         2
         7         8         9        10     9        0.000000       -1.528293         3
         7         8         9        10     9      180.000000       -0.501395         4
         7         8         9        33     9        0.000000        0.036242         1
         7         8         9        33     9      180.000000       15.148456         2
         7         8         9        33     9        0.000000       -0.607416         3
         7         8         9        33     9      180.000000        0.081088         4
         7        12        11        10     9        0.000000        0.112457         1
         7        12        11        10     9      180.000000       19.076179         2
         7        12        11        10     9        0.000000       -1.528293         3
         7        12        11        10     9      180.000000       -0.501395         4
         7        12        11        35     9        0.000000        0.036242         1
         7        12        11        35     9      180.000000       15.148456         2
         7        12        11        35     9        0.000000       -0.607416         3
         7        12        11        35     9      180.000000        0.081089         4
         8         7         6        13     9        0.000000       -0.001991         1
         8         7         6        13     9      180.000000        0.383504         2
         8         7         6        13     9        0.000000        0.203843         3
         8         7         6        13     9      180.000000        0.093643         4
         8         7         6        25     9        0.000000       -0.388488         1
         8         7         6        25     9      180.000000       -0.678832         2
         8         7         6        25     9        0.000000        0.177104         3
         8         7         6        25     9      180.000000        0.152568         4
         8         7        12        11     9        0.000000       -0.125590         1
         8         7        12        11     9      180.000000       19.197404         2
         8         7        12        11     9        0.000000       -1.469704         3
         8         7        12        11     9      180.000000       -0.532165         4
         8         7        12        36     9        0.000000        0.001779         1
         8         7        12        36     9      180.000000       14.559357         2
         8         7        12        36     9        0.000000       -0.693507         3
         8         7        12        36     9      180.000000        0.005835         4
         8         9        10        11     9        0.000000       -0.072947         1
         8         9        10        11     9      180.000000       18.710862         2
         8         9        10        11     9        0.000000       -1.638188         3
         8         9        10        11     9      180.000000       -0.393764         4
         8         9        10        34     9        0.000000        0.032122         1
         8         9        10        34     9      180.000000       14.422667         2
         8         9        10        34     9        0.000000       -0.779016         3
         8         9        10        34     9      180.000000        0.114208         4
         9         8         7        12     9        0.000000       -0.125590         1
         9         8         7        12     9      180.000000       19.197404         2
         9         8         7        12     9        0.000000       -1.469704         3
         9         8         7        12     9      180.000000       -0.532165         4
         9        10        11        12     9        0.000000       -0.072947         1
         9        10        11        12     9      180.000000       18.710862         2
         9        10        11        12     9        0.000000       -1.638188         3
         9        10        11        12     9      180.000000       -0.393764         4
         9        10        11        35     9        0.000000        0.017562         1
         9        10        11        35     9      180.000000       14.269724         2
         9        10        11        35     9        0.000000       -0.769057         3
         9        10        11        35     9      180.000000        0.155538         4
        10         9         8        32     9        0.000000        0.047715         1
        10         9         8        32     9      180.000000       14.992779         2
        10         9         8        32     9        0.000000       -0.684086         3
        10         9         8        32     9      180.000000        0.101542         4
        10        11        12        36     9        0.000000        0.047714         1
        10        11        12        36     9      180.000000       14.992778         2
        10        11        12        36     9        0.000000       -0.684086         3
        10        11        12        36     9      180.000000        0.101543         4
        11        10         9        33     9        0.000000        0.017563         1
        11        10         9        33     9      180.000000       14.269722         2
        11        10         9        33     9        0.000000       -0.769057         3
        11        10         9        33     9      180.000000        0.155538         4
        12         7         6        13     9        0.000000       -0.001991         1
        12         7         6        13     9      180.000000        0.383504         2
        12         7         6        13     9        0.000000        0.203843         3
        12         7         6        13     9      180.000000        0.093643         4
        12         7         6        25     9        0.000000       -0.388488         1
        12         7         6        25     9      180.000000       -0.678832         2
        12         7         6        25     9        0.000000        0.177104         3
        12         7         6        25     9      180.000000        0.152568         4
        12         7         8        32     9        0.000000        0.001779         1
        12         7         8        32     9      180.000000       14.559357         2
        12         7         8        32     9        0.000000       -0.693508         3
        12         7         8        32     9      180.000000        0.005835         4
        12        11        10        34     9        0.000000        0.032122         1
        12        11        10        34     9      180.000000       14.422667         2
        12        11        10        34     9        0.000000       -0.779016         3
        12        11        10        34     9      180.000000        0.114208         4
        13         6         5        31     9        0.000000        0.895483         1
        13         6         5        31     9      180.000000        0.600539         2
        13         6         5        31     9        0.000000        0.134447         3
        13         6         5        31     9      180.000000       -0.017528         4
        13         6        25        26     9        0.000000       -0.935600         1
        13         6        25        26     9      180.000000        1.120218         2
        13         6        25        26     9        0.000000       -0.358026         3
        13         6        25        26     9      180.000000        0.388086         4
        13        14        15        16     9        0.000000        0.103116         1
        13        14        15        16     9      180.000000       18.599233         2
        13        14        15        16     9        0.000000       -1.457383         3
        13        14        15        16     9      180.000000       -0.481072         4
        13        14        15        38     9        0.000000        0.072792         1
        13        14        15        38     9      180.000000       15.184339         2
        13        14        15        38     9        0.000000       -0.532902         3
        13        14        15        38     9      180.000000        0.057467         4
        13        24        17        16     9        0.000000       -0.082541         1
        13        24        17        16     9      180.000000       18.282914         2
        13        24        17        16     9        0.000000       -1.400015         3
        13        24        17        16     9      180.000000       -0.456340         4
        13        24        17        18     9        0.000000        0.182697         1
        13        24        17        18     9      180.000000       16.066061         2
        13        24        17        18     9        0.000000       -0.214591         3
        13        24        17        18     9      180.000000       -0.294314         4
        14        13         6        25     9        0.000000       -0.314917         1
        14        13         6        25     9      180.000000       -0.621676         2
        14        13         6        25     9        0.000000        0.181221         3
        14        13         6        25     9      180.000000        0.151733         4
        14        13        24        17     9        0.000000       -0.133326         1
        14        13        24        17     9      180.000000       19.317064         2
        14        13        24        17     9        0.000000       -1.493878         3
        14        13        24        17     9      180.000000       -0.568687         4
        14        13        24        43     9        0.000000       -0.021211         1
        14        13        24        43     9      180.000000       14.782329         2
        14        13        24        43     9        0.000000       -0.728897         3
        14        13        24        43     9      180.000000       -0.004315         4
        14        15        16        17     9        0.000000       -0.052641         1
        14        15        16        17     9      180.000000       19.176326         2
        14        15        16        17     9        0.000000       -1.587530         3
        14        15        16        17     9      180.000000       -0.423761         4
        14        15        16        39     9        0.000000        0.054139         1
        14        15        16        39     9      180.000000       14.843905         2
        14        15        16        39     9        0.000000       -0.718785         3
        14        15        16        39     9      180.000000        0.140405         4
        15        14        13        24     9        0.000000       -0.148993         1
        15        14        13        24     9      180.000000       19.297416         2
        15        14        13        24     9        0.000000       -1.410385         3
        15        14        13        24     9      180.000000       -0.511787         4
        15        16        17        18     9        0.000000        0.078507         1
        15        16        17        18     9      180.000000       15.217169         2
        15        16        17        18     9        0.000000       -0.256831         3
        15        16        17        18     9      180.000000       -0.196531         4
        15        16        17        24     9        0.000000       -0.196669         1
        15        16        17        24     9      180.000000       18.605582         2
        15        16        17        24     9        0.000000       -1.482637         3
        15        16        17        24     9      180.000000       -0.349295         4
        16        15        14        37     9        0.000000        0.062868         1
        16        15        14        37     9      180.000000       14.526248         2
        16        15        14        37     9        0.000000       -0.658914         3
        16        15        14        37     9      180.000000        0.068222         4
        16        17        18        19     9        0.000000       -0.139263         1
        16        17        18        19     9      180.000000        3.176867         2
        16        17        18        19     9        0.000000        0.116361         3
        16        17        18        19     9      180.000000       -0.250419         4
        16        17        18        23     9        0.000000       -0.008045         1
        16        17        18        23     9      180.000000        3.760437         2
        16        17        18        23     9        0.000000        0.072751         3
        16        17        18        23     9      180.000000       -0.045019         4
        16        17        24        43     9        0.000000       -0.076287         1
        16        17        24        43     9      180.000000       14.302103         2
        16        17        24        43     9        0.000000       -0.618146         3
        16        17        24        43     9      180.000000        0.020063         4
        17        16        15        38     9        0.000000       -0.008506         1
        17        16        15        38     9      180.000000       15.002536         2
        17        16        15        38     9        0.000000       -0.516139         3
        17        16        15        38     9      180.000000        0.082396         4
        17        18        19        20     9        0.000000        0.115197         1
        17        18        19        20     9      180.000000       13.210870         2
        17        18        19        20     9        0.000000        0.149360         3
        17        18        19        20     9      180.000000       -0.585313         4
        17        18        19        40     9        0.000000        0.041395         1
        17        18        19        40     9      180.000000       11.296886         2
        17        18        19        40     9        0.000000       -0.231793         3
        17        18        19        40     9      180.000000        0.114206         4
        17        18        23        22     9        0.000000        0.723760         1
        17        18        23        22     9      180.000000       22.165814         2
        17        18        23        22     9        0.000000        0.942546         3
        17        18        23        22     9      180.000000       -0.925680         4
        18        17        16        39     9        0.000000       -0.236901         1
        18        17        16        39     9      180.000000       12.492275         2
        18        17        16        39     9        0.000000       -0.393806         3
        18        17        16        39     9      180.000000        0.139920         4
        18        17        24        43     9        0.000000       -0.145122         1
        18        17        24        43     9      180.000000       12.745641         2
        18        17        24        43     9        0.000000       -0.261210         3
        18        17        24        43     9      180.000000        0.121823         4
        18        19        20        21     9        0.000000        0.140405         1
        18        19        20        21     9      180.000000       22.653822         2
        18        19        20        21     9        0.000000       -0.779135         3
        18        19        20        21     9      180.000000       -0.069729         4
        18        23        22        21     9        0.000000        0.059957         1
        18        23        22        21     9      180.000000       21.573331         2
        18        23        22        21     9        0.000000       -0.649814         3
        18        23        22        21     9      180.000000       -0.107586         4
        18        23        22        42     9        0.000000        0.580686         1
        18        23        22        42     9      180.000000       20.248328         2
        18        23        22        42     9        0.000000        0.250724         3
        18        23        22        42     9      180.000000       -0.440591         4
        19        18        17        24     9        0.000000       -0.212681         1
        19        18        17        24     9      180.000000        3.287021         2
        19        18        17        24     9        0.000000        0.127086         3
        19        18        17        24     9      180.000000       -0.249651         4
        19        18        23        22     9        0.000000        0.026872         1
        19        18        23        22     9      180.000000       18.865011         2
        19        18        23        22     9        0.000000       -0.039475         3
        19        18        23        22     9      180.000000       -0.253577         4
        19        20        21        22     9        0.000000        0.146271         1
        19        20        21        22     9      180.000000       20.917217         2
        19        20        21        22     9        0.000000       -0.547840         3
        19        20        21        22     9      180.000000       -0.092383         4
        19        20        21        41     9        0.000000        0.848813         1
        19        20        21        41     9      180.000000       19.710359         2
        19        20        21        41     9        0.000000        0.256228         3
        19        20        21        41     9      180.000000       -0.482857         4
        20        19        18        23     9        0.000000       -0.574678         1
        20        19        18        23     9      180.000000       11.130879         2
        20        19        18        23     9        0.000000        0.071345         3
        20        19        18        23     9      180.000000       -0.605855         4
        20        21        22        23     9        0.000000       -0.569719         1
        20        21        22        23     9      180.000000       15.225669         2
        20        21        22        23     9        0.000000       -0.558059         3
        20        21        22        23     9      180.000000       -0.677596         4
        20        21        22        42     9        0.000000       -0.052050         1
        20        21        22        42     9      180.000000       12.257120         2
        20        21        22        42     9        0.000000       -0.382744         3
        20        21        22        42     9      180.000000       -0.013209         4
        21        20        19        40     9        0.000000        0.779224         1
        21        20        19        40     9      180.000000       20.040847         2
        21        20        19        40     9        0.000000        0.152146         3
        21        20        19        40     9      180.000000       -0.002571         4
        23        18        17        24     9        0.000000        0.240059         1
        23        18        17        24     9      180.000000        3.852225         2
        23        18        17        24     9        0.000000        0.070115         3
        23        18        17        24     9      180.000000       -0.052869         4
        23        18        19        40     9        0.000000       -0.044207         1
        23        18        19        40     9      180.000000       10.330675         2
        23        18        19        40     9        0.000000       -0.430135         3
        23        18        19        40     9      180.000000       -0.148985         4
        23        22        21        41     9        0.000000       -0.049095         1
        23        22        21        41     9      180.000000       11.943884         2
        23        22        21        41     9        0.000000       -0.458015         3
        23        22        21        41     9      180.000000       -0.129630         4
        24        13         6        25     9        0.000000       -0.461973         1
        24        13         6        25     9      180.000000       -0.498739         2
        24        13         6        25     9        0.000000        0.133423         3
        24        13         6        25     9      180.000000        0.137074         4
        24        13        14        37     9        0.000000        0.033942         1
        24        13        14        37     9      180.000000       14.522616         2
        24        13        14        37     9        0.000000       -0.681917         3
        24        13        14        37     9      180.000000        0.006470         4
        24        17        16        39     9        0.000000       -0.096432         1
        24        17        16        39     9      180.000000       14.195345         2
        24        17        16        39     9        0.000000       -0.652413         3
        24        17        16        39     9      180.000000        0.104506         4
        25         2         1        27     9        0.000000       -0.064801         1
        25         2         1        27     9      180.000000       -0.077149         2
        25         2         1        27     9        0.000000       -0.306371         3
        25         2         1        27     9      180.000000        0.046923         4
        25         2         1        28     9        0.000000       -0.064801         1
        25         2         1        28     9      180.000000       -0.077149         2
        25         2         1        28     9        0.000000       -0.306371         3
        25         2         1        28     9      180.000000        0.046923         4
        25         2         1        29     9        0.000000       -0.064801         1
        25         2         1        29     9      180.000000       -0.077149         2
        25         2         1        29     9        0.000000       -0.306371         3
        25         2         1        29     9      180.000000        0.046923         4
        25         6         5        31     9        0.000000       -0.467874         1
        25         6         5        31     9      180.000000       -0.863893         2
        25         6         5        31     9        0.000000        0.107572         3
        25         6         5        31     9      180.000000        0.174536         4
        32         8         9        33     9        0.000000       -0.132350         1
        32         8         9        33     9      180.000000       12.096763         2
        32         8         9        33     9        0.000000       -0.739346         3
        32         8         9        33     9      180.000000        0.287473         4
        33         9        10        34     9        0.000000       -0.081259         1
        33         9        10        34     9      180.000000       11.518639         2
        33         9        10        34     9        0.000000       -0.598806         3
        33         9        10        34     9      180.000000        0.259343         4
        34        10        11        35     9        0.000000       -0.081259         1
        34        10        11        35     9      180.000000       11.518641         2
        34        10        11        35     9        0.000000       -0.598806         3
        34        10        11        35     9      180.000000        0.259343         4
        35        11        12        36     9        0.000000       -0.132350         1
        35        11        12        36     9      180.000000       12.096763         2
        35        11        12        36     9        0.000000       -0.739346         3
        35        11        12        36     9      180.000000        0.287473         4
        37        14        15        38     9        0.000000       -0.112220         1
        37        14        15        38     9      180.000000       11.931076         2
        37        14        15        38     9        0.000000       -0.685966         3
        37        14        15        38     9      180.000000        0.272154         4
        38        15        16        39     9        0.000000       -0.177584         1
        38        15        16        39     9      180.000000       12.115392         2
        38        15        16        39     9        0.000000       -0.733390         3
        38        15        16        39     9      180.000000        0.346105         4
        41        21        22        42     9        0.000000       -0.473713         1
        41        21        22        42     9      180.000000        8.838135         2
        41        21        22        42     9        0.000000       -0.679578         3
        41        21        22        42     9      180.000000        0.252196         4

[ dihedrals ] ; impropers
;       ai        aj        ak        al funct           phase               k        pn
         3         2         4         5     4      180.000000       10.558910         2
         3         4         5         2     4      180.000000       10.558910         2
         3         5         2         4     4      180.000000       10.558910         2
         8         7         9        32     4      180.000000        0.223529         2
         8         9        32         7     4      180.000000        0.223529         2
         8        32         7         9     4      180.000000        0.223529         2
         9         8        10        33     4      180.000000        0.650929         2
         9        10        33         8     4      180.000000        0.650929         2
         9        33         8        10     4      180.000000        0.650929         2
        10         9        11        34     4      180.000000        1.596565         2
        10        11        34         9     4      180.000000        1.596565         2
        10        34         9        11     4      180.000000        1.596565         2
        11        10        12        35     4      180.000000        0.650929         2
        11        12        35        10     4      180.000000        0.650929         2
        11        35        10        12     4      180.000000        0.650929         2
        12         7        11        36     4      180.000000        0.223528         2
        12        11        36         7     4      180.000000        0.223528         2
        12        36         7        11     4      180.000000        0.223528         2
        19        18        20        40     4      180.000000        0.408219         2
        19        20        40        18     4      180.000000        0.408219         2
        19        40        18        20     4      180.000000        0.408219         2
        21        20        22        41     4      180.000000        1.902401         2
        21        22        41        20     4      180.000000        1.902401         2
        21        41        20        22     4      180.000000        1.902401         2
        22        21        23        42     4      180.000000        2.885993         2
        22        23        42        21     4      180.000000        2.885993         2
        22        42        21        23     4      180.000000        2.885993         2
        25         2         6        26     4      180.000000       27.376329         2
        25         6        26         2     4      180.000000       27.376329         2
        25        26         2         6     4      180.000000       27.376329         2

[ pairs ]
;       ai        aj funct
         1         4     1
         1         5     1
         1         6     1
         1        26     1
         2         7     1
         2        13     1
         2        30     1
         2        31     1
         2        44     1
         3         7     1
         3        13     1
         3        26     1
         3        27     1
         3        28     1
         3        29     1
         4         6     1
         4        25     1
         4        31     1
         5         8     1
         5        12     1
         5        14     1
         5        24     1
         5        26     1
         5        30     1
         5        44     1
         6         9     1
         6        11     1
         6        15     1
         6        17     1
         6        32     1
         6        36     1
         6        37     1
         6        43     1
         7        10     1
         7        14     1
         7        24     1
         7        26     1
         7        31     1
         7        33     1
         7        35     1
         8        11     1
         8        13     1
         8        25     1
         8        34     1
         8        36     1
         9        12     1
         9        35     1
        10        32     1
        10        36     1
        11        33     1
        12        13     1
        12        25     1
        12        32     1
        12        34     1
        13        16     1
        13        18     1
        13        26     1
        13        31     1
        13        38     1
        14        17     1
        14        25     1
        14        39     1
        14        43     1
        15        18     1
        15        24     1
        16        19     1
        16        23     1
        16        37     1
        16        43     1
        17        20     1
        17        22     1
        17        38     1
        17        40     1
        18        21     1
        18        39     1
        18        42     1
        18        43     1
        19        22     1
        19        24     1
        19        41     1
        20        23     1
        20        42     1
        21        40     1
        23        24     1
        23        40     1
        23        41     1
        24        25     1
        24        37     1
        24        39     1
        25        27     1
        25        28     1
        25        29     1
        25        31     1
        32        33     1
        33        34     1
        34        35     1
        35        36     1
        37        38     1
        38        39     1
        41        42     1
