; ITP file created by ByteFF-ML, 2026-02-21 08:14:15.038096

[ atomtypes ]
;name           bonded.type        at.num        mass        charge   ptype           sigma         epsilon
 c0bf                                   6      0.0000       0.00000       A     3.39916e-01     4.52554e-01
 n1bf                                   7      0.0000       0.00000       A     3.18276e-01     7.06162e-01
 c2bf                                   6      0.0000       0.00000       A     3.31283e-01     4.10196e-01
 n3bf                                   7      0.0000       0.00000       A     3.36712e-01     4.77349e-01
 n4bf                                   7      0.0000       0.00000       A     3.26829e-01     6.45995e-01
 c5bf                                   6      0.0000       0.00000       A     3.39816e-01     4.48583e-01
 c6bf                                   6      0.0000       0.00000       A     3.39651e-01     4.50047e-01
 c7bf                                   6      0.0000       0.00000       A     3.39649e-01     4.50566e-01
 c8bf                                   6      0.0000       0.00000       A     3.39733e-01     4.50888e-01
 c9bf                                   6      0.0000       0.00000       A     3.39733e-01     4.50888e-01
 c10bf                                  6      0.0000       0.00000       A     3.31683e-01     4.15699e-01
 c11bf                                  6      0.0000       0.00000       A     3.31483e-01     4.13937e-01
 c12bf                                  6      0.0000       0.00000       A     3.31498e-01     4.13427e-01
 c13bf                                  6      0.0000       0.00000       A     3.31500e-01     4.12376e-01
 c14bf                                  6      0.0000       0.00000       A     3.31396e-01     4.12338e-01
 c15bf                                  6      0.0000       0.00000       A     3.31338e-01     4.14041e-01
 c16bf                                  6      0.0000       0.00000       A     3.31495e-01     4.12332e-01
 c17bf                                  6      0.0000       0.00000       A     3.31470e-01     4.12993e-01
 c18bf                                  6      0.0000       0.00000       A     3.31492e-01     4.12697e-01
 c19bf                                  6      0.0000       0.00000       A     3.31464e-01     4.12774e-01
 cl20bf                                17      0.0000       0.00000       A     3.46727e-01     1.10410e+00
 c21bf                                  6      0.0000       0.00000       A     3.31525e-01     4.12943e-01
 c22bf                                  6      0.0000       0.00000       A     3.31573e-01     4.15323e-01
 c23bf                                  6      0.0000       0.00000       A     3.31430e-01     4.15125e-01
 o24bf                                  8      0.0000       0.00000       A     3.04595e-01     6.15527e-01
 h25bf                                  1      0.0000       0.00000       A     2.42205e-01     8.61909e-02
 h26bf                                  1      0.0000       0.00000       A     2.42205e-01     8.61909e-02
 h27bf                                  1      0.0000       0.00000       A     2.42205e-01     8.61909e-02
 h28bf                                  1      0.0000       0.00000       A     1.10384e-01     3.90095e-02
 h29bf                                  1      0.0000       0.00000       A     1.10492e-01     4.02034e-02
 h30bf                                  1      0.0000       0.00000       A     2.59677e-01     8.65756e-02
 h31bf                                  1      0.0000       0.00000       A     2.59677e-01     8.65756e-02
 h32bf                                  1      0.0000       0.00000       A     2.60122e-01     8.50418e-02
 h33bf                                  1      0.0000       0.00000       A     2.60160e-01     8.61207e-02
 h34bf                                  1      0.0000       0.00000       A     2.60160e-01     8.61207e-02
 h35bf                                  1      0.0000       0.00000       A     2.60160e-01     8.61207e-02
 h36bf                                  1      0.0000       0.00000       A     2.60160e-01     8.61207e-02
 h37bf                                  1      0.0000       0.00000       A     2.62586e-01     6.77372e-02
 h38bf                                  1      0.0000       0.00000       A     2.62513e-01     6.74259e-02
 h39bf                                  1      0.0000       0.00000       A     2.62472e-01     6.74738e-02
 h40bf                                  1      0.0000       0.00000       A     2.62472e-01     6.74738e-02
 h41bf                                  1      0.0000       0.00000       A     2.62502e-01     6.73461e-02
 h42bf                                  1      0.0000       0.00000       A     2.62496e-01     6.71211e-02
 h43bf                                  1      0.0000       0.00000       A     2.62435e-01     6.74259e-02
 h44bf                                  1      0.0000       0.00000       A     2.62582e-01     6.76350e-02
 h45bf                                  1      0.0000       0.00000       A     1.10384e-01     3.90095e-02

[ moleculetype ]
;name             nrexcl
 CAT-13i               3

[ atoms ]
;       nr            type      resi   res      atom      cgnr      charge          mass ; qtot
         1            c0bf         1   UNL        c0         1     0.07186       12.0110 ; qtot    0.072
         2            n1bf         1   UNL        n1         2    -0.58785       14.0070 ; qtot   -0.516
         3            c2bf         1   UNL        c2         3     0.94092       12.0110 ; qtot    0.425
         4            n3bf         1   UNL        n3         4    -0.59261       14.0070 ; qtot   -0.168
         5            n4bf         1   UNL        n4         5    -0.62256       14.0070 ; qtot   -0.790
         6            c5bf         1   UNL        c5         6     0.07297       12.0110 ; qtot   -0.717
         7            c6bf         1   UNL        c6         7    -0.03041       12.0110 ; qtot   -0.748
         8            c7bf         1   UNL        c7         8    -0.14216       12.0110 ; qtot   -0.890
         9            c8bf         1   UNL        c8         9    -0.12654       12.0110 ; qtot   -1.016
        10            c9bf         1   UNL        c9        10    -0.12654       12.0110 ; qtot   -1.143
        11           c10bf         1   UNL       c10        11    -0.12740       12.0110 ; qtot   -1.270
        12           c11bf         1   UNL       c11        12    -0.07497       12.0110 ; qtot   -1.345
        13           c12bf         1   UNL       c12        13    -0.09613       12.0110 ; qtot   -1.441
        14           c13bf         1   UNL       c13        14    -0.09361       12.0110 ; qtot   -1.535
        15           c14bf         1   UNL       c14        15    -0.02792       12.0110 ; qtot   -1.563
        16           c15bf         1   UNL       c15        16    -0.02653       12.0110 ; qtot   -1.589
        17           c16bf         1   UNL       c16        17    -0.10326       12.0110 ; qtot   -1.693
        18           c17bf         1   UNL       c17        18    -0.10402       12.0110 ; qtot   -1.797
        19           c18bf         1   UNL       c18        19    -0.09512       12.0110 ; qtot   -1.892
        20           c19bf         1   UNL       c19        20     0.12011       12.0110 ; qtot   -1.772
        21          cl20bf         1   UNL      cl20        21    -0.20970       35.4530 ; qtot   -1.981
        22           c21bf         1   UNL       c21        22    -0.09584       12.0110 ; qtot   -2.077
        23           c22bf         1   UNL       c22        23    -0.06204       12.0110 ; qtot   -2.139
        24           c23bf         1   UNL       c23        24     0.54397       12.0110 ; qtot   -1.595
        25           o24bf         1   UNL       o24        25    -0.38348       15.9990 ; qtot   -1.979
        26           h25bf         1   UNL       h25        26     0.08969        1.0080 ; qtot   -1.889
        27           h26bf         1   UNL       h26        27     0.08969        1.0080 ; qtot   -1.799
        28           h27bf         1   UNL       h27        28     0.08969        1.0080 ; qtot   -1.710
        29           h28bf         1   UNL       h28        29     0.38402        1.0080 ; qtot   -1.326
        30           h29bf         1   UNL       h29        30     0.41051        1.0080 ; qtot   -0.915
        31           h30bf         1   UNL       h30        31     0.07129        1.0080 ; qtot   -0.844
        32           h31bf         1   UNL       h31        32     0.07129        1.0080 ; qtot   -0.773
        33           h32bf         1   UNL       h32        33     0.08681        1.0080 ; qtot   -0.686
        34           h33bf         1   UNL       h33        34     0.07342        1.0080 ; qtot   -0.612
        35           h34bf         1   UNL       h34        35     0.07342        1.0080 ; qtot   -0.539
        36           h35bf         1   UNL       h35        36     0.07342        1.0080 ; qtot   -0.466
        37           h36bf         1   UNL       h36        37     0.07342        1.0080 ; qtot   -0.392
        38           h37bf         1   UNL       h37        38     0.12913        1.0080 ; qtot   -0.263
        39           h38bf         1   UNL       h38        39     0.12066        1.0080 ; qtot   -0.142
        40           h39bf         1   UNL       h39        40     0.11650        1.0080 ; qtot   -0.026
        41           h40bf         1   UNL       h40        41     0.11993        1.0080 ; qtot    0.094
        42           h41bf         1   UNL       h41        42     0.12261        1.0080 ; qtot    0.217
        43           h42bf         1   UNL       h42        43     0.13516        1.0080 ; qtot    0.352
        44           h43bf         1   UNL       h43        44     0.13341        1.0080 ; qtot    0.485
        45           h44bf         1   UNL       h44        45     0.13078        1.0080 ; qtot    0.616
        46           h45bf         1   UNL       h45        46     0.38401        1.0080 ; qtot    1.000

[ bonds ]
;       ai        aj funct               r               k
         1         2     1        0.146719   195332.085522
         1        26     1        0.109021   312395.586670
         1        27     1        0.109021   312395.586670
         1        28     1        0.109021   312395.586670
         2         3     1        0.135557   307131.392480
         2        24     1        0.142369   149262.259180
         3         4     1        0.133040   418778.613184
         3         5     1        0.133340   385577.383154
         4        29     1        0.101330   425081.325000
         4        46     1        0.101330   425081.325000
         5         6     1        0.148665   143366.034302
         5        30     1        0.101345   424503.522363
         6         7     1        0.155125   142949.153760
         6        11     1        0.152430   164420.065820
         6        24     1        0.154404   128871.745605
         7         8     1        0.151511   201545.647290
         7        31     1        0.109462   297358.647168
         7        32     1        0.109462   297358.647168
         8         9     1        0.151503   192829.793555
         8        10     1        0.151503   192829.793555
         8        33     1        0.108699   315593.317969
         9        10     1        0.151506   196279.065381
         9        34     1        0.108563   320678.318262
         9        35     1        0.108563   320678.318262
        10        36     1        0.108563   320678.318262
        10        37     1        0.108563   320678.292725
        11        12     1        0.140079   293081.998535
        11        23     1        0.139890   296357.771240
        12        13     1        0.139661   314907.033691
        12        38     1        0.108530   321083.847559
        13        14     1        0.139586   316123.468359
        13        39     1        0.108612   320061.265088
        14        15     1        0.140531   285804.330957
        14        40     1        0.108587   318592.753613
        15        16     1        0.148301   214182.660327
        15        23     1        0.140396   287170.949365
        16        17     1        0.140642   283730.615527
        16        22     1        0.140548   284644.231152
        17        18     1        0.139639   316467.197852
        17        41     1        0.108557   319942.849512
        18        19     1        0.139818   306197.015186
        18        42     1        0.108593   321221.901172
        19        20     1        0.139667   296743.100684
        19        43     1        0.108450   326068.844531
        20        21     1        0.175898   146278.069189
        20        22     1        0.139434   307507.503027
        22        44     1        0.108450   323511.456250
        23        45     1        0.108504   319955.183936
        24        25     1        0.120403   717363.450195

[ angles ]
;       ai        aj        ak funct           theta             cth
         1         2         3     1      126.580971      466.905792
         1         2        24     1      123.204041      530.273479
         2         1        26     1      109.242714      484.642943
         2         1        27     1      109.242714      484.642943
         2         1        28     1      109.242714      484.642943
         2         3         4     1      123.804337      625.095703
         2         3         5     1      111.320541      583.694176
         2        24         6     1      106.465256      167.360000
         2        24        25     1      124.551186      649.731672
         3         2        24     1      109.773880      833.803986
         3         4        29     1      121.316223      451.020082
         3         4        46     1      121.316223      451.020082
         3         5         6     1      111.842270      627.368506
         3         5        30     1      123.362343      428.221604
         4         3         5     1      125.384033      615.684512
         5         6         7     1      110.209267      604.159870
         5         6        11     1      110.777161      609.572461
         5         6        24     1      100.576134      345.591754
         6         5        30     1      121.141586      368.265228
         6         7         8     1      114.344421      536.358845
         6         7        31     1      107.444168      473.303572
         6         7        32     1      107.444168      473.303572
         6        11        12     1      120.219139      488.428947
         6        11        23     1      120.012161      443.821873
         6        24        25     1      127.745300      361.906647
         7         6        11     1      113.851036      553.374987
         7         6        24     1      110.072449      646.733168
         7         8         9     1      120.216263      469.492031
         7         8        10     1      120.216263      469.492031
         7         8        33     1      114.611954      435.070944
         8         7        31     1      110.035629      496.307592
         8         7        32     1      110.035629      496.307592
         8         9        10     1       60.091377      167.360000
         8         9        34     1      117.986427      376.222144
         8         9        35     1      117.986427      376.222144
         8        10         9     1       60.091377      167.360000
         8        10        36     1      117.986427      376.222112
         8        10        37     1      117.986427      376.222112
         9         8        10     1       59.926361      167.360000
         9         8        33     1      115.652878      372.332140
         9        10        36     1      117.951454      372.834806
         9        10        37     1      117.951454      372.834806
        10         8        33     1      115.652878      372.332140
        10         9        34     1      117.951454      372.834806
        10         9        35     1      117.951454      372.834806
        11         6        24     1      111.622864      602.923300
        11        12        13     1      119.713135      674.306479
        11        12        38     1      120.536789      410.089075
        11        23        15     1      121.182800      663.587022
        11        23        45     1      119.870712      407.089199
        12        11        23     1      119.596924      684.933747
        12        13        14     1      120.369102      723.975582
        12        13        39     1      119.814796      433.188125
        13        12        38     1      119.626938      425.283464
        13        14        15     1      120.438126      704.284045
        13        14        40     1      119.753983      429.862651
        14        13        39     1      119.786880      438.147432
        14        15        16     1      120.854149      514.556474
        14        15        23     1      118.317017      667.763616
        15        14        40     1      119.774094      427.878162
        15        16        17     1      120.944580      503.462419
        15        16        22     1      120.426231      481.721242
        15        23        45     1      118.891129      420.687838
        16        15        23     1      120.813553      419.578091
        16        17        18     1      120.709496      710.226339
        16        17        41     1      119.625290      429.265114
        16        22        20     1      119.954468      654.295153
        16        22        44     1      120.525955      413.949169
        17        16        22     1      118.518814      610.093928
        17        18        19     1      120.716507      706.259915
        17        18        42     1      119.854904      434.295638
        18        17        41     1      119.665443      434.119208
        18        19        20     1      118.458839      608.116654
        18        19        43     1      121.243332      419.806776
        19        18        42     1      119.403748      439.510603
        19        20        21     1      119.263084      362.742700
        19        20        22     1      121.578903      646.790244
        20        19        43     1      120.373581      408.925573
        20        22        44     1      119.578125      413.311731
        21        20        22     1      119.060081      368.288083
        26         1        27     1      109.820786      349.271620
        26         1        28     1      109.820786      349.271620
        27         1        28     1      109.820786      349.271620
        29         4        46     1      117.429977      314.388120
        31         7        32     1      107.016586      359.771968
        34         9        35     1      114.468262      312.916671
        36        10        37     1      114.468262      312.916671

[ dihedrals ] ; propers for gromacs 4.5 or higher, use funct 9
;       ai        aj        ak        al funct           phase               k        pn
         1         2         3         4     9        0.000000        1.632575         1
         1         2         3         4     9      180.000000        7.645648         2
         1         2         3         4     9        0.000000       -0.084493         3
         1         2         3         4     9      180.000000       -0.113905         4
         1         2         3         5     9        0.000000       -2.700454         1
         1         2         3         5     9      180.000000        5.865695         2
         1         2         3         5     9        0.000000       -0.212391         3
         1         2         3         5     9      180.000000        0.048610         4
         1         2        24         6     9        0.000000       -1.297100         1
         1         2        24         6     9      180.000000        5.933575         2
         1         2        24         6     9        0.000000        0.186052         3
         1         2        24         6     9      180.000000       -0.124643         4
         1         2        24        25     9        0.000000       -0.429540         1
         1         2        24        25     9      180.000000        9.335262         2
         1         2        24        25     9        0.000000       -0.367489         3
         1         2        24        25     9      180.000000        0.248591         4
         2         3         4        29     9        0.000000       -0.725621         1
         2         3         4        29     9      180.000000        6.249705         2
         2         3         4        29     9        0.000000        0.289362         3
         2         3         4        29     9      180.000000       -0.664965         4
         2         3         4        46     9        0.000000       -0.725620         1
         2         3         4        46     9      180.000000        6.249707         2
         2         3         4        46     9        0.000000        0.289362         3
         2         3         4        46     9      180.000000       -0.664966         4
         2         3         5         6     9        0.000000       -1.354194         1
         2         3         5         6     9      180.000000       22.601894         2
         2         3         5         6     9        0.000000       -1.373326         3
         2         3         5         6     9      180.000000       -2.716918         4
         2         3         5        30     9        0.000000       -0.180490         1
         2         3         5        30     9      180.000000        8.747571         2
         2         3         5        30     9        0.000000        0.129491         3
         2         3         5        30     9      180.000000       -0.828305         4
         2        24         6         5     9        0.000000        1.112205         1
         2        24         6         5     9      180.000000        8.590647         2
         2        24         6         5     9        0.000000       -0.218704         3
         2        24         6         5     9      180.000000       -0.416336         4
         2        24         6         7     9        0.000000       -2.360740         1
         2        24         6         7     9      180.000000        2.297706         2
         2        24         6         7     9        0.000000        0.233996         3
         2        24         6         7     9      180.000000        0.670844         4
         2        24         6        11     9        0.000000        0.551334         1
         2        24         6        11     9      180.000000        0.835465         2
         2        24         6        11     9        0.000000        0.360657         3
         2        24         6        11     9      180.000000        0.812706         4
         3         2         1        26     9        0.000000        0.017789         1
         3         2         1        26     9      180.000000       -0.001960         2
         3         2         1        26     9        0.000000        0.173410         3
         3         2         1        26     9      180.000000       -0.011817         4
         3         2         1        27     9        0.000000        0.017789         1
         3         2         1        27     9      180.000000       -0.001960         2
         3         2         1        27     9        0.000000        0.173410         3
         3         2         1        27     9      180.000000       -0.011817         4
         3         2         1        28     9        0.000000        0.017789         1
         3         2         1        28     9      180.000000       -0.001960         2
         3         2         1        28     9        0.000000        0.173410         3
         3         2         1        28     9      180.000000       -0.011817         4
         3         2        24         6     9        0.000000       -3.251832         1
         3         2        24         6     9      180.000000       11.263244         2
         3         2        24         6     9        0.000000       -1.532071         3
         3         2        24         6     9      180.000000       -0.375107         4
         3         2        24        25     9        0.000000        1.500241         1
         3         2        24        25     9      180.000000       16.851673         2
         3         2        24        25     9        0.000000       -0.450913         3
         3         2        24        25     9      180.000000       -0.847922         4
         3         5         6         7     9        0.000000       -2.603322         1
         3         5         6         7     9      180.000000        1.746906         2
         3         5         6         7     9        0.000000        0.260361         3
         3         5         6         7     9      180.000000        0.124368         4
         3         5         6        11     9        0.000000        0.066136         1
         3         5         6        11     9      180.000000        0.743465         2
         3         5         6        11     9        0.000000        0.337869         3
         3         5         6        11     9      180.000000        0.276785         4
         3         5         6        24     9        0.000000       -1.809800         1
         3         5         6        24     9      180.000000        7.101203         2
         3         5         6        24     9        0.000000       -0.343951         3
         3         5         6        24     9      180.000000       -1.834400         4
         4         3         2        24     9        0.000000        1.289785         1
         4         3         2        24     9      180.000000       13.142030         2
         4         3         2        24     9        0.000000       -0.299339         3
         4         3         2        24     9      180.000000       -0.796689         4
         4         3         5         6     9        0.000000        2.719997         1
         4         3         5         6     9      180.000000       17.655340         2
         4         3         5         6     9        0.000000        0.881065         3
         4         3         5         6     9      180.000000       -1.913390         4
         4         3         5        30     9        0.000000       -0.726950         1
         4         3         5        30     9      180.000000        8.112711         2
         4         3         5        30     9        0.000000        0.432131         3
         4         3         5        30     9      180.000000       -0.477237         4
         5         3         2        24     9        0.000000       -1.465127         1
         5         3         2        24     9      180.000000       15.012485         2
         5         3         2        24     9        0.000000       -2.725592         3
         5         3         2        24     9      180.000000       -1.374819         4
         5         3         4        29     9        0.000000       -1.927548         1
         5         3         4        29     9      180.000000        6.519314         2
         5         3         4        29     9        0.000000       -0.051666         3
         5         3         4        29     9      180.000000       -0.492417         4
         5         3         4        46     9        0.000000       -1.927547         1
         5         3         4        46     9      180.000000        6.519313         2
         5         3         4        46     9        0.000000       -0.051666         3
         5         3         4        46     9      180.000000       -0.492417         4
         5         6         7         8     9        0.000000       -0.245179         1
         5         6         7         8     9      180.000000        0.094115         2
         5         6         7         8     9        0.000000        0.784792         3
         5         6         7         8     9      180.000000       -0.022042         4
         5         6         7        31     9        0.000000       -0.240303         1
         5         6         7        31     9      180.000000        0.227520         2
         5         6         7        31     9        0.000000        0.769934         3
         5         6         7        31     9      180.000000       -0.039383         4
         5         6         7        32     9        0.000000       -0.240303         1
         5         6         7        32     9      180.000000        0.227520         2
         5         6         7        32     9        0.000000        0.769934         3
         5         6         7        32     9      180.000000       -0.039383         4
         5         6        11        12     9        0.000000       -0.105676         1
         5         6        11        12     9      180.000000        1.373273         2
         5         6        11        12     9        0.000000        0.108784         3
         5         6        11        12     9      180.000000        0.200563         4
         5         6        11        23     9        0.000000        0.088416         1
         5         6        11        23     9      180.000000        1.391966         2
         5         6        11        23     9        0.000000        0.035992         3
         5         6        11        23     9      180.000000        0.194110         4
         5         6        24        25     9        0.000000        8.084591         1
         5         6        24        25     9      180.000000        5.724165         2
         5         6        24        25     9        0.000000       -0.027299         3
         5         6        24        25     9      180.000000        0.410985         4
         6         7         8         9     9        0.000000       -0.356329         1
         6         7         8         9     9      180.000000       -0.377795         2
         6         7         8         9     9        0.000000        0.894930         3
         6         7         8         9     9      180.000000        0.043135         4
         6         7         8        10     9        0.000000       -0.356329         1
         6         7         8        10     9      180.000000       -0.377795         2
         6         7         8        10     9        0.000000        0.894930         3
         6         7         8        10     9      180.000000        0.043135         4
         6         7         8        33     9        0.000000       -0.006010         1
         6         7         8        33     9      180.000000       -0.458473         2
         6         7         8        33     9        0.000000        1.065325         3
         6         7         8        33     9      180.000000        0.019757         4
         6        11        12        13     9        0.000000        0.155207         1
         6        11        12        13     9      180.000000       15.035136         2
         6        11        12        13     9        0.000000       -0.213119         3
         6        11        12        13     9      180.000000       -0.186904         4
         6        11        12        38     9        0.000000        0.005412         1
         6        11        12        38     9      180.000000       12.676456         2
         6        11        12        38     9        0.000000       -0.354587         3
         6        11        12        38     9      180.000000        0.181872         4
         6        11        23        15     9        0.000000        0.173111         1
         6        11        23        15     9      180.000000       14.806020         2
         6        11        23        15     9        0.000000       -0.169472         3
         6        11        23        15     9      180.000000       -0.252904         4
         6        11        23        45     9        0.000000       -0.029659         1
         6        11        23        45     9      180.000000       12.760709         2
         6        11        23        45     9        0.000000       -0.342429         3
         6        11        23        45     9      180.000000        0.181936         4
         7         6         5        30     9        0.000000        0.603056         1
         7         6         5        30     9      180.000000        0.428087         2
         7         6         5        30     9        0.000000        0.316239         3
         7         6         5        30     9      180.000000        0.027447         4
         7         6        11        12     9        0.000000        0.007279         1
         7         6        11        12     9      180.000000        1.059913         2
         7         6        11        12     9        0.000000        0.189449         3
         7         6        11        12     9      180.000000        0.056803         4
         7         6        11        23     9        0.000000       -0.129421         1
         7         6        11        23     9      180.000000        1.161943         2
         7         6        11        23     9        0.000000        0.135845         3
         7         6        11        23     9      180.000000        0.037402         4
         7         6        24        25     9        0.000000       -0.442343         1
         7         6        24        25     9      180.000000        1.633018         2
         7         6        24        25     9        0.000000       -0.567588         3
         7         6        24        25     9      180.000000        0.510453         4
         7         8         9        10     9        0.000000       44.621267         1
         7         8         9        10     9      180.000000        3.461305         2
         7         8         9        10     9        0.000000        1.084203         3
         7         8         9        10     9      180.000000       11.234538         4
         7         8         9        34     9        0.000000        1.692751         1
         7         8         9        34     9      180.000000       -0.712035         2
         7         8         9        34     9        0.000000        0.138021         3
         7         8         9        34     9      180.000000        1.432547         4
         7         8         9        35     9        0.000000        1.692751         1
         7         8         9        35     9      180.000000       -0.712035         2
         7         8         9        35     9        0.000000        0.138021         3
         7         8         9        35     9      180.000000        1.432547         4
         7         8        10         9     9        0.000000       44.621267         1
         7         8        10         9     9      180.000000        3.461305         2
         7         8        10         9     9        0.000000        1.084203         3
         7         8        10         9     9      180.000000       11.234538         4
         7         8        10        36     9        0.000000        1.692754         1
         7         8        10        36     9      180.000000       -0.712035         2
         7         8        10        36     9        0.000000        0.138021         3
         7         8        10        36     9      180.000000        1.432547         4
         7         8        10        37     9        0.000000        1.692754         1
         7         8        10        37     9      180.000000       -0.712035         2
         7         8        10        37     9        0.000000        0.138021         3
         7         8        10        37     9      180.000000        1.432547         4
         8         7         6        11     9        0.000000        0.075620         1
         8         7         6        11     9      180.000000        0.801431         2
         8         7         6        11     9        0.000000        1.053778         3
         8         7         6        11     9      180.000000        0.015829         4
         8         7         6        24     9        0.000000       -0.010246         1
         8         7         6        24     9      180.000000       -0.081986         2
         8         7         6        24     9        0.000000        0.504881         3
         8         7         6        24     9      180.000000       -0.049321         4
         8         9        10        36     9        0.000000       29.503864         1
         8         9        10        36     9      180.000000        1.557801         2
         8         9        10        36     9        0.000000       -0.079004         3
         8         9        10        36     9      180.000000        6.153113         4
         8         9        10        37     9        0.000000       29.503864         1
         8         9        10        37     9      180.000000        1.557801         2
         8         9        10        37     9        0.000000       -0.079004         3
         8         9        10        37     9      180.000000        6.153113         4
         8        10         9        34     9        0.000000       29.503864         1
         8        10         9        34     9      180.000000        1.557802         2
         8        10         9        34     9        0.000000       -0.079004         3
         8        10         9        34     9      180.000000        6.153114         4
         8        10         9        35     9        0.000000       29.503864         1
         8        10         9        35     9      180.000000        1.557802         2
         8        10         9        35     9        0.000000       -0.079004         3
         8        10         9        35     9      180.000000        6.153114         4
         9         8         7        31     9        0.000000        0.211635         1
         9         8         7        31     9      180.000000        0.067276         2
         9         8         7        31     9        0.000000        1.062293         3
         9         8         7        31     9      180.000000        0.007703         4
         9         8         7        32     9        0.000000        0.211635         1
         9         8         7        32     9      180.000000        0.067276         2
         9         8         7        32     9        0.000000        1.062293         3
         9         8         7        32     9      180.000000        0.007703         4
         9         8        10        36     9        0.000000       32.438248         1
         9         8        10        36     9      180.000000        2.251863         2
         9         8        10        36     9        0.000000        0.126667         3
         9         8        10        36     9      180.000000        6.302263         4
         9         8        10        37     9        0.000000       32.438248         1
         9         8        10        37     9      180.000000        2.251863         2
         9         8        10        37     9        0.000000        0.126667         3
         9         8        10        37     9      180.000000        6.302263         4
         9        10         8        33     9        0.000000       35.809168         1
         9        10         8        33     9      180.000000        5.483796         2
         9        10         8        33     9        0.000000       -0.082295         3
         9        10         8        33     9      180.000000        6.633678         4
        10         8         7        31     9        0.000000        0.211635         1
        10         8         7        31     9      180.000000        0.067276         2
        10         8         7        31     9        0.000000        1.062293         3
        10         8         7        31     9      180.000000        0.007703         4
        10         8         7        32     9        0.000000        0.211635         1
        10         8         7        32     9      180.000000        0.067276         2
        10         8         7        32     9        0.000000        1.062293         3
        10         8         7        32     9      180.000000        0.007703         4
        10         8         9        34     9        0.000000       32.438242         1
        10         8         9        34     9      180.000000        2.251864         2
        10         8         9        34     9        0.000000        0.126667         3
        10         8         9        34     9      180.000000        6.302262         4
        10         8         9        35     9        0.000000       32.438242         1
        10         8         9        35     9      180.000000        2.251864         2
        10         8         9        35     9        0.000000        0.126667         3
        10         8         9        35     9      180.000000        6.302262         4
        10         9         8        33     9        0.000000       35.809168         1
        10         9         8        33     9      180.000000        5.483796         2
        10         9         8        33     9        0.000000       -0.082295         3
        10         9         8        33     9      180.000000        6.633678         4
        11         6         5        30     9        0.000000        1.067295         1
        11         6         5        30     9      180.000000        0.594193         2
        11         6         5        30     9        0.000000        0.238642         3
        11         6         5        30     9      180.000000       -0.015009         4
        11         6         7        31     9        0.000000       -0.179527         1
        11         6         7        31     9      180.000000        0.161784         2
        11         6         7        31     9        0.000000        0.805532         3
        11         6         7        31     9      180.000000        0.056230         4
        11         6         7        32     9        0.000000       -0.179527         1
        11         6         7        32     9      180.000000        0.161784         2
        11         6         7        32     9        0.000000        0.805532         3
        11         6         7        32     9      180.000000        0.056230         4
        11         6        24        25     9        0.000000       -0.269121         1
        11         6        24        25     9      180.000000        1.378995         2
        11         6        24        25     9        0.000000       -0.355134         3
        11         6        24        25     9      180.000000        0.464715         4
        11        12        13        14     9        0.000000        0.124727         1
        11        12        13        14     9      180.000000       18.655968         2
        11        12        13        14     9        0.000000       -1.495926         3
        11        12        13        14     9      180.000000       -0.458627         4
        11        12        13        39     9        0.000000        0.052951         1
        11        12        13        39     9      180.000000       15.049753         2
        11        12        13        39     9        0.000000       -0.614097         3
        11        12        13        39     9      180.000000        0.087046         4
        11        23        15        14     9        0.000000       -0.050387         1
        11        23        15        14     9      180.000000       18.727970         2
        11        23        15        14     9        0.000000       -1.515184         3
        11        23        15        14     9      180.000000       -0.490283         4
        11        23        15        16     9        0.000000        0.270954         1
        11        23        15        16     9      180.000000       16.735923         2
        11        23        15        16     9        0.000000       -0.137185         3
        11        23        15        16     9      180.000000       -0.412431         4
        12        11         6        24     9        0.000000       -0.234615         1
        12        11         6        24     9      180.000000       -0.473647         2
        12        11         6        24     9        0.000000        0.155517         3
        12        11         6        24     9      180.000000        0.165584         4
        12        11        23        15     9        0.000000       -0.053816         1
        12        11        23        15     9      180.000000       18.992206         2
        12        11        23        15     9        0.000000       -1.494612         3
        12        11        23        15     9      180.000000       -0.431272         4
        12        11        23        45     9        0.000000        0.021605         1
        12        11        23        45     9      180.000000       14.507150         2
        12        11        23        45     9        0.000000       -0.744292         3
        12        11        23        45     9      180.000000        0.061825         4
        12        13        14        15     9        0.000000       -0.034220         1
        12        13        14        15     9      180.000000       18.761520         2
        12        13        14        15     9        0.000000       -1.493067         3
        12        13        14        15     9      180.000000       -0.324978         4
        12        13        14        40     9        0.000000        0.087213         1
        12        13        14        40     9      180.000000       14.550292         2
        12        13        14        40     9        0.000000       -0.741762         3
        12        13        14        40     9      180.000000        0.181573         4
        13        12        11        23     9        0.000000       -0.109049         1
        13        12        11        23     9      180.000000       19.166522         2
        13        12        11        23     9        0.000000       -1.483281         3
        13        12        11        23     9      180.000000       -0.473119         4
        13        14        15        16     9        0.000000        0.230394         1
        13        14        15        16     9      180.000000       16.138719         2
        13        14        15        16     9        0.000000       -0.170315         3
        13        14        15        16     9      180.000000       -0.239830         4
        13        14        15        23     9        0.000000       -0.190178         1
        13        14        15        23     9      180.000000       18.568443         2
        13        14        15        23     9        0.000000       -1.468234         3
        13        14        15        23     9      180.000000       -0.323633         4
        14        13        12        38     9        0.000000        0.049172         1
        14        13        12        38     9      180.000000       14.720805         2
        14        13        12        38     9        0.000000       -0.647102         3
        14        13        12        38     9      180.000000        0.069821         4
        14        15        16        17     9        0.000000       -0.007674         1
        14        15        16        17     9      180.000000        3.330937         2
        14        15        16        17     9        0.000000        0.042995         3
        14        15        16        17     9      180.000000       -0.020547         4
        14        15        16        22     9        0.000000        0.012343         1
        14        15        16        22     9      180.000000        3.332869         2
        14        15        16        22     9        0.000000        0.008260         3
        14        15        16        22     9      180.000000       -0.011868         4
        14        15        23        45     9        0.000000       -0.139529         1
        14        15        23        45     9      180.000000       14.601996         2
        14        15        23        45     9        0.000000       -0.621406         3
        14        15        23        45     9      180.000000       -0.018253         4
        15        14        13        39     9        0.000000       -0.061812         1
        15        14        13        39     9      180.000000       14.749341         2
        15        14        13        39     9        0.000000       -0.605681         3
        15        14        13        39     9      180.000000        0.112692         4
        15        16        17        18     9        0.000000        0.305756         1
        15        16        17        18     9      180.000000       16.370784         2
        15        16        17        18     9        0.000000       -0.083573         3
        15        16        17        18     9      180.000000       -0.282910         4
        15        16        17        41     9        0.000000       -0.069394         1
        15        16        17        41     9      180.000000       13.412475         2
        15        16        17        41     9        0.000000       -0.191922         3
        15        16        17        41     9      180.000000        0.179051         4
        15        16        22        20     9        0.000000        0.228982         1
        15        16        22        20     9      180.000000       16.708031         2
        15        16        22        20     9        0.000000       -0.162579         3
        15        16        22        20     9      180.000000       -0.417023         4
        15        16        22        44     9        0.000000       -0.087783         1
        15        16        22        44     9      180.000000       13.235678         2
        15        16        22        44     9        0.000000       -0.212974         3
        15        16        22        44     9      180.000000        0.206124         4
        16        15        14        40     9        0.000000       -0.104975         1
        16        15        14        40     9      180.000000       13.346714         2
        16        15        14        40     9        0.000000       -0.223324         3
        16        15        14        40     9      180.000000        0.189275         4
        16        15        23        45     9        0.000000       -0.104429         1
        16        15        23        45     9      180.000000       13.328435         2
        16        15        23        45     9        0.000000       -0.160094         3
        16        15        23        45     9      180.000000        0.171436         4
        16        17        18        19     9        0.000000       -0.027105         1
        16        17        18        19     9      180.000000       18.923034         2
        16        17        18        19     9        0.000000       -1.503937         3
        16        17        18        19     9      180.000000       -0.356268         4
        16        17        18        42     9        0.000000       -0.082647         1
        16        17        18        42     9      180.000000       14.805088         2
        16        17        18        42     9        0.000000       -0.643495         3
        16        17        18        42     9      180.000000        0.073654         4
        16        22        20        19     9        0.000000       -0.008240         1
        16        22        20        19     9      180.000000       17.745278         2
        16        22        20        19     9        0.000000       -1.184654         3
        16        22        20        19     9      180.000000       -0.352119         4
        16        22        20        21     9        0.000000        0.356484         1
        16        22        20        21     9      180.000000       19.187195         2
        16        22        20        21     9        0.000000        0.423572         3
        16        22        20        21     9      180.000000       -0.719313         4
        17        16        15        23     9        0.000000       -0.009513         1
        17        16        15        23     9      180.000000        3.432126         2
        17        16        15        23     9        0.000000        0.040961         3
        17        16        15        23     9      180.000000       -0.029608         4
        17        16        22        20     9        0.000000       -0.226810         1
        17        16        22        20     9      180.000000       18.460100         2
        17        16        22        20     9        0.000000       -1.564517         3
        17        16        22        20     9      180.000000       -0.363342         4
        17        16        22        44     9        0.000000       -0.081612         1
        17        16        22        44     9      180.000000       14.063211         2
        17        16        22        44     9        0.000000       -0.651845         3
        17        16        22        44     9      180.000000        0.074764         4
        17        18        19        20     9        0.000000       -0.014672         1
        17        18        19        20     9      180.000000       18.658773         2
        17        18        19        20     9        0.000000       -1.423404         3
        17        18        19        20     9      180.000000       -0.430664         4
        17        18        19        43     9        0.000000        0.015297         1
        17        18        19        43     9      180.000000       13.921456         2
        17        18        19        43     9        0.000000       -0.702882         3
        17        18        19        43     9      180.000000        0.159191         4
        18        17        16        22     9        0.000000       -0.178260         1
        18        17        16        22     9      180.000000       18.281466         2
        18        17        16        22     9        0.000000       -1.464057         3
        18        17        16        22     9      180.000000       -0.353057         4
        18        19        20        21     9        0.000000        0.384560         1
        18        19        20        21     9      180.000000       19.125338         2
        18        19        20        21     9        0.000000        0.328218         3
        18        19        20        21     9      180.000000       -0.554486         4
        18        19        20        22     9        0.000000       -0.060650         1
        18        19        20        22     9      180.000000       17.644798         2
        18        19        20        22     9        0.000000       -1.259503         3
        18        19        20        22     9      180.000000       -0.384797         4
        19        18        17        41     9        0.000000        0.073505         1
        19        18        17        41     9      180.000000       14.891523         2
        19        18        17        41     9        0.000000       -0.707692         3
        19        18        17        41     9      180.000000        0.130542         4
        19        20        22        44     9        0.000000        0.006367         1
        19        20        22        44     9      180.000000       13.721602         2
        19        20        22        44     9        0.000000       -0.619973         3
        19        20        22        44     9      180.000000        0.133122         4
        20        19        18        42     9        0.000000        0.036286         1
        20        19        18        42     9      180.000000       14.441092         2
        20        19        18        42     9        0.000000       -0.533853         3
        20        19        18        42     9      180.000000        0.102825         4
        21        20        19        43     9        0.000000        0.203003         1
        21        20        19        43     9      180.000000       13.237178         2
        21        20        19        43     9        0.000000       -0.115367         3
        21        20        19        43     9      180.000000        0.239543         4
        21        20        22        44     9        0.000000        0.138200         1
        21        20        22        44     9      180.000000       13.815334         2
        21        20        22        44     9        0.000000       -0.095173         3
        21        20        22        44     9      180.000000        0.212289         4
        22        16        15        23     9        0.000000        0.025520         1
        22        16        15        23     9      180.000000        3.445183         2
        22        16        15        23     9        0.000000       -0.000898         3
        22        16        15        23     9      180.000000       -0.018288         4
        22        16        17        41     9        0.000000       -0.117209         1
        22        16        17        41     9      180.000000       14.303306         2
        22        16        17        41     9        0.000000       -0.626107         3
        22        16        17        41     9      180.000000        0.027459         4
        22        20        19        43     9        0.000000        0.011133         1
        22        20        19        43     9      180.000000       13.432437         2
        22        20        19        43     9        0.000000       -0.533136         3
        22        20        19        43     9      180.000000        0.083311         4
        23        11         6        24     9        0.000000       -0.569116         1
        23        11         6        24     9      180.000000       -0.353215         2
        23        11         6        24     9        0.000000        0.120208         3
        23        11         6        24     9      180.000000        0.167248         4
        23        11        12        38     9        0.000000        0.031450         1
        23        11        12        38     9      180.000000       14.560568         2
        23        11        12        38     9        0.000000       -0.690671         3
        23        11        12        38     9      180.000000        0.030899         4
        23        15        14        40     9        0.000000       -0.124330         1
        23        15        14        40     9      180.000000       14.582477         2
        23        15        14        40     9        0.000000       -0.693595         3
        23        15        14        40     9      180.000000        0.057775         4
        24         2         1        26     9        0.000000       -0.077383         1
        24         2         1        26     9      180.000000       -0.074913         2
        24         2         1        26     9        0.000000       -0.298948         3
        24         2         1        26     9      180.000000        0.052179         4
        24         2         1        27     9        0.000000       -0.077383         1
        24         2         1        27     9      180.000000       -0.074913         2
        24         2         1        27     9        0.000000       -0.298948         3
        24         2         1        27     9      180.000000        0.052179         4
        24         2         1        28     9        0.000000       -0.077383         1
        24         2         1        28     9      180.000000       -0.074913         2
        24         2         1        28     9        0.000000       -0.298948         3
        24         2         1        28     9      180.000000        0.052179         4
        24         6         5        30     9        0.000000       -0.466338         1
        24         6         5        30     9      180.000000       -0.402198         2
        24         6         5        30     9        0.000000        0.175466         3
        24         6         5        30     9      180.000000        0.158909         4
        24         6         7        31     9        0.000000       -0.103637         1
        24         6         7        31     9      180.000000        0.230640         2
        24         6         7        31     9        0.000000        0.554915         3
        24         6         7        31     9      180.000000        0.031846         4
        24         6         7        32     9        0.000000       -0.103637         1
        24         6         7        32     9      180.000000        0.230640         2
        24         6         7        32     9        0.000000        0.554915         3
        24         6         7        32     9      180.000000        0.031846         4
        31         7         8        33     9        0.000000       -0.194048         1
        31         7         8        33     9      180.000000        0.087582         2
        31         7         8        33     9        0.000000        0.836827         3
        31         7         8        33     9      180.000000        0.000368         4
        32         7         8        33     9        0.000000       -0.194048         1
        32         7         8        33     9      180.000000        0.087582         2
        32         7         8        33     9        0.000000        0.836827         3
        32         7         8        33     9      180.000000        0.000368         4
        33         8         9        34     9        0.000000        1.810052         1
        33         8         9        34     9      180.000000       -0.717615         2
        33         8         9        34     9        0.000000       -0.069293         3
        33         8         9        34     9      180.000000        1.343955         4
        33         8         9        35     9        0.000000        1.810052         1
        33         8         9        35     9      180.000000       -0.717615         2
        33         8         9        35     9        0.000000       -0.069293         3
        33         8         9        35     9      180.000000        1.343955         4
        33         8        10        36     9        0.000000        1.810051         1
        33         8        10        36     9      180.000000       -0.717615         2
        33         8        10        36     9        0.000000       -0.069293         3
        33         8        10        36     9      180.000000        1.343954         4
        33         8        10        37     9        0.000000        1.810051         1
        33         8        10        37     9      180.000000       -0.717615         2
        33         8        10        37     9        0.000000       -0.069293         3
        33         8        10        37     9      180.000000        1.343954         4
        34         9        10        36     9        0.000000        2.146130         1
        34         9        10        36     9      180.000000       -0.340203         2
        34         9        10        36     9        0.000000        0.071678         3
        34         9        10        36     9      180.000000        1.070211         4
        34         9        10        37     9        0.000000        2.146130         1
        34         9        10        37     9      180.000000       -0.340203         2
        34         9        10        37     9        0.000000        0.071678         3
        34         9        10        37     9      180.000000        1.070211         4
        35         9        10        36     9        0.000000        2.146129         1
        35         9        10        36     9      180.000000       -0.340203         2
        35         9        10        36     9        0.000000        0.071678         3
        35         9        10        36     9      180.000000        1.070211         4
        35         9        10        37     9        0.000000        2.146129         1
        35         9        10        37     9      180.000000       -0.340203         2
        35         9        10        37     9        0.000000        0.071678         3
        35         9        10        37     9      180.000000        1.070211         4
        38        12        13        39     9        0.000000       -0.144316         1
        38        12        13        39     9      180.000000       11.917700         2
        38        12        13        39     9        0.000000       -0.727909         3
        38        12        13        39     9      180.000000        0.302712         4
        39        13        14        40     9        0.000000       -0.173564         1
        39        13        14        40     9      180.000000       11.938520         2
        39        13        14        40     9        0.000000       -0.730808         3
        39        13        14        40     9      180.000000        0.326092         4
        41        17        18        42     9        0.000000       -0.202412         1
        41        17        18        42     9      180.000000       12.044166         2
        41        17        18        42     9        0.000000       -0.720039         3
        41        17        18        42     9      180.000000        0.322236         4
        42        18        19        43     9        0.000000       -0.177599         1
        42        18        19        43     9      180.000000       11.407348         2
        42        18        19        43     9        0.000000       -0.617575         3
        42        18        19        43     9      180.000000        0.288706         4

[ dihedrals ] ; impropers
;       ai        aj        ak        al funct           phase               k        pn
         3         2         4         5     4      180.000000       10.803010         2
         3         4         5         2     4      180.000000       10.803010         2
         3         5         2         4     4      180.000000       10.803010         2
        24         2         6        25     4      180.000000       27.893333         2
        24         6        25         2     4      180.000000       27.893333         2
        24        25         2         6     4      180.000000       27.893333         2

[ pairs ]
;       ai        aj funct
         1         4     1
         1         5     1
         1         6     1
         1        25     1
         2         7     1
         2        11     1
         2        29     1
         2        30     1
         2        46     1
         3         7     1
         3        11     1
         3        25     1
         3        26     1
         3        27     1
         3        28     1
         4         6     1
         4        24     1
         4        30     1
         5         8     1
         5        12     1
         5        23     1
         5        25     1
         5        29     1
         5        31     1
         5        32     1
         5        46     1
         6         9     1
         6        10     1
         6        13     1
         6        15     1
         6        33     1
         6        38     1
         6        45     1
         7        12     1
         7        23     1
         7        25     1
         7        30     1
         7        34     1
         7        35     1
         7        36     1
         7        37     1
         8        11     1
         8        24     1
         9        31     1
         9        32     1
        10        31     1
        10        32     1
        11        14     1
        11        16     1
        11        25     1
        11        30     1
        11        31     1
        11        32     1
        11        39     1
        12        15     1
        12        24     1
        12        40     1
        12        45     1
        13        16     1
        13        23     1
        14        17     1
        14        22     1
        14        38     1
        14        45     1
        15        18     1
        15        20     1
        15        39     1
        15        41     1
        15        44     1
        16        19     1
        16        21     1
        16        40     1
        16        42     1
        16        45     1
        17        20     1
        17        23     1
        17        43     1
        17        44     1
        18        21     1
        18        22     1
        19        41     1
        19        44     1
        20        42     1
        21        43     1
        21        44     1
        22        23     1
        22        41     1
        22        43     1
        23        24     1
        23        38     1
        23        40     1
        24        26     1
        24        27     1
        24        28     1
        24        30     1
        24        31     1
        24        32     1
        31        33     1
        32        33     1
        33        34     1
        33        35     1
        33        36     1
        33        37     1
        34        36     1
        34        37     1
        35        36     1
        35        37     1
        38        39     1
        39        40     1
        41        42     1
        42        43     1
