; ITP file created by ByteFF-ML, 2026-02-21 08:14:06.848690

[ atomtypes ]
;name           bonded.type        at.num        mass        charge   ptype           sigma         epsilon
 c0bf                                   6      0.0000       0.00000       A     3.39778e-01     4.49916e-01
 o1bf                                   8      0.0000       0.00000       A     3.15894e-01     3.03981e-01
 c2bf                                   6      0.0000       0.00000       A     3.31338e-01     4.13203e-01
 c3bf                                   6      0.0000       0.00000       A     3.31576e-01     4.11824e-01
 c4bf                                   6      0.0000       0.00000       A     3.31509e-01     4.13604e-01
 c5bf                                   6      0.0000       0.00000       A     3.31486e-01     4.12265e-01
 c6bf                                   6      0.0000       0.00000       A     3.31322e-01     4.12388e-01
 c7bf                                   6      0.0000       0.00000       A     3.31406e-01     4.12322e-01
 c8bf                                   6      0.0000       0.00000       A     3.31500e-01     4.12376e-01
 c9bf                                   6      0.0000       0.00000       A     3.31491e-01     4.13364e-01
 c10bf                                  6      0.0000       0.00000       A     3.31511e-01     4.14036e-01
 c11bf                                  6      0.0000       0.00000       A     3.31605e-01     4.15323e-01
 c12bf                                  6      0.0000       0.00000       A     3.39379e-01     4.44341e-01
 c13bf                                  6      0.0000       0.00000       A     3.31546e-01     4.15024e-01
 c14bf                                  6      0.0000       0.00000       A     3.31529e-01     4.14153e-01
 c15bf                                  6      0.0000       0.00000       A     3.31506e-01     4.13240e-01
 c16bf                                  6      0.0000       0.00000       A     3.31502e-01     4.12817e-01
 c17bf                                  6      0.0000       0.00000       A     3.31506e-01     4.13240e-01
 c18bf                                  6      0.0000       0.00000       A     3.31529e-01     4.14153e-01
 n19bf                                  7      0.0000       0.00000       A     3.26871e-01     6.40659e-01
 c20bf                                  6      0.0000       0.00000       A     3.31223e-01     4.10380e-01
 n21bf                                  7      0.0000       0.00000       A     3.36731e-01     4.77019e-01
 n22bf                                  7      0.0000       0.00000       A     3.18321e-01     7.03038e-01
 c23bf                                  6      0.0000       0.00000       A     3.39898e-01     4.52593e-01
 c24bf                                  6      0.0000       0.00000       A     3.31448e-01     4.16659e-01
 o25bf                                  8      0.0000       0.00000       A     3.04556e-01     6.16025e-01
 c26bf                                  6      0.0000       0.00000       A     3.31605e-01     4.15034e-01
 c27bf                                  6      0.0000       0.00000       A     3.31620e-01     4.12070e-01
 h28bf                                  1      0.0000       0.00000       A     2.42080e-01     8.75859e-02
 h29bf                                  1      0.0000       0.00000       A     2.42080e-01     8.75859e-02
 h30bf                                  1      0.0000       0.00000       A     2.42080e-01     8.75859e-02
 h31bf                                  1      0.0000       0.00000       A     2.62446e-01     6.69008e-02
 h32bf                                  1      0.0000       0.00000       A     2.62543e-01     6.73813e-02
 h33bf                                  1      0.0000       0.00000       A     2.62472e-01     6.74738e-02
 h34bf                                  1      0.0000       0.00000       A     2.62472e-01     6.74738e-02
 h35bf                                  1      0.0000       0.00000       A     2.62513e-01     6.74259e-02
 h36bf                                  1      0.0000       0.00000       A     2.62565e-01     6.77340e-02
 h37bf                                  1      0.0000       0.00000       A     2.62565e-01     6.77340e-02
 h38bf                                  1      0.0000       0.00000       A     2.62462e-01     6.72839e-02
 h39bf                                  1      0.0000       0.00000       A     2.62457e-01     6.73477e-02
 h40bf                                  1      0.0000       0.00000       A     2.62462e-01     6.72839e-02
 h41bf                                  1      0.0000       0.00000       A     2.62565e-01     6.77340e-02
 h42bf                                  1      0.0000       0.00000       A     1.10491e-01     4.02241e-02
 h43bf                                  1      0.0000       0.00000       A     1.10384e-01     3.90095e-02
 h44bf                                  1      0.0000       0.00000       A     2.42205e-01     8.61909e-02
 h45bf                                  1      0.0000       0.00000       A     2.42205e-01     8.61909e-02
 h46bf                                  1      0.0000       0.00000       A     2.42205e-01     8.61909e-02
 h47bf                                  1      0.0000       0.00000       A     2.62568e-01     6.76574e-02
 h48bf                                  1      0.0000       0.00000       A     2.62507e-01     6.73398e-02
 h49bf                                  1      0.0000       0.00000       A     1.10384e-01     3.90095e-02

[ moleculetype ]
;name             nrexcl
 CAT-4b                3

[ atoms ]
;       nr            type      resi   res      atom      cgnr      charge          mass ; qtot
         1            c0bf         1   UNL        c0         1     0.14327       12.0110 ; qtot    0.143
         2            o1bf         1   UNL        o1         2    -0.34714       15.9990 ; qtot   -0.204
         3            c2bf         1   UNL        c2         3     0.13203       12.0110 ; qtot   -0.072
         4            c3bf         1   UNL        c3         4    -0.16777       12.0110 ; qtot   -0.240
         5            c4bf         1   UNL        c4         5    -0.07549       12.0110 ; qtot   -0.315
         6            c5bf         1   UNL        c5         6    -0.13058       12.0110 ; qtot   -0.446
         7            c6bf         1   UNL        c6         7    -0.00785       12.0110 ; qtot   -0.454
         8            c7bf         1   UNL        c7         8    -0.02416       12.0110 ; qtot   -0.478
         9            c8bf         1   UNL        c8         9    -0.09555       12.0110 ; qtot   -0.573
        10            c9bf         1   UNL        c9        10    -0.09730       12.0110 ; qtot   -0.671
        11           c10bf         1   UNL       c10        11    -0.07243       12.0110 ; qtot   -0.743
        12           c11bf         1   UNL       c11        12    -0.12869       12.0110 ; qtot   -0.872
        13           c12bf         1   UNL       c12        13     0.14233       12.0110 ; qtot   -0.729
        14           c13bf         1   UNL       c13        14    -0.13622       12.0110 ; qtot   -0.866
        15           c14bf         1   UNL       c14        15    -0.07841       12.0110 ; qtot   -0.944
        16           c15bf         1   UNL       c15        16    -0.10257       12.0110 ; qtot   -1.047
        17           c16bf         1   UNL       c16        17    -0.09285       12.0110 ; qtot   -1.139
        18           c17bf         1   UNL       c17        18    -0.10257       12.0110 ; qtot   -1.242
        19           c18bf         1   UNL       c18        19    -0.07841       12.0110 ; qtot   -1.320
        20           n19bf         1   UNL       n19        20    -0.61420       14.0070 ; qtot   -1.935
        21           c20bf         1   UNL       c20        21     0.93511       12.0110 ; qtot   -0.999
        22           n21bf         1   UNL       n21        22    -0.58908       14.0070 ; qtot   -1.589
        23           n22bf         1   UNL       n22        23    -0.59233       14.0070 ; qtot   -2.181
        24           c23bf         1   UNL       c23        24     0.07241       12.0110 ; qtot   -2.108
        25           c24bf         1   UNL       c24        25     0.55441       12.0110 ; qtot   -1.554
        26           o25bf         1   UNL       o25        26    -0.38753       15.9990 ; qtot   -1.942
        27           c26bf         1   UNL       c26        27    -0.06289       12.0110 ; qtot   -2.004
        28           c27bf         1   UNL       c27        28    -0.16008       12.0110 ; qtot   -2.165
        29           h28bf         1   UNL       h28        29     0.04277        1.0080 ; qtot   -2.122
        30           h29bf         1   UNL       h29        30     0.04277        1.0080 ; qtot   -2.079
        31           h30bf         1   UNL       h30        31     0.04277        1.0080 ; qtot   -2.036
        32           h31bf         1   UNL       h31        32     0.12436        1.0080 ; qtot   -1.912
        33           h32bf         1   UNL       h32        33     0.11612        1.0080 ; qtot   -1.796
        34           h33bf         1   UNL       h33        34     0.11821        1.0080 ; qtot   -1.678
        35           h34bf         1   UNL       h34        35     0.11650        1.0080 ; qtot   -1.561
        36           h35bf         1   UNL       h35        36     0.12026        1.0080 ; qtot   -1.441
        37           h36bf         1   UNL       h36        37     0.12975        1.0080 ; qtot   -1.311
        38           h37bf         1   UNL       h37        38     0.12674        1.0080 ; qtot   -1.184
        39           h38bf         1   UNL       h38        39     0.11912        1.0080 ; qtot   -1.065
        40           h39bf         1   UNL       h39        40     0.11390        1.0080 ; qtot   -0.951
        41           h40bf         1   UNL       h40        41     0.11912        1.0080 ; qtot   -0.832
        42           h41bf         1   UNL       h41        42     0.12674        1.0080 ; qtot   -0.705
        43           h42bf         1   UNL       h42        43     0.41349        1.0080 ; qtot   -0.292
        44           h43bf         1   UNL       h43        44     0.38417        1.0080 ; qtot    0.092
        45           h44bf         1   UNL       h44        45     0.08958        1.0080 ; qtot    0.182
        46           h45bf         1   UNL       h45        46     0.08958        1.0080 ; qtot    0.271
        47           h46bf         1   UNL       h46        47     0.08958        1.0080 ; qtot    0.361
        48           h47bf         1   UNL       h47        48     0.13108        1.0080 ; qtot    0.492
        49           h48bf         1   UNL       h48        49     0.12376        1.0080 ; qtot    0.616
        50           h49bf         1   UNL       h49        50     0.38417        1.0080 ; qtot    1.000

[ bonds ]
;       ai        aj funct               r               k
         1         2     1        0.142493   208267.423071
         1        29     1        0.109438   297412.683691
         1        30     1        0.109438   297412.683691
         1        31     1        0.109438   297412.683691
         2         3     1        0.136853   268641.580322
         3         4     1        0.140354   286399.243457
         3        28     1        0.140201   288312.356006
         4         5     1        0.139739   314522.444824
         4        32     1        0.108414   323656.455957
         5         6     1        0.139640   314963.879297
         5        33     1        0.108652   318420.684570
         6         7     1        0.140608   284941.815088
         6        34     1        0.108553   319478.789160
         7         8     1        0.148301   213639.575391
         7        28     1        0.140375   289156.536230
         8         9     1        0.140585   284432.502979
         8        27     1        0.140437   285723.071875
         9        10     1        0.139603   315551.360498
         9        35     1        0.108587   318592.753613
        10        11     1        0.139662   313971.762598
        10        36     1        0.108615   320003.653369
        11        12     1        0.140096   292907.503467
        11        37     1        0.108548   320727.145215
        12        13     1        0.152371   165267.834009
        12        27     1        0.139914   296266.067480
        13        14     1        0.152361   165060.408838
        13        20     1        0.148849   140457.102173
        13        25     1        0.154797   124308.647217
        14        15     1        0.140161   291585.804834
        14        19     1        0.140161   291585.804834
        15        16     1        0.139713   314164.440088
        15        38     1        0.108563   319867.744873
        16        17     1        0.139901   306343.700342
        16        39     1        0.108609   320432.727881
        17        18     1        0.139901   306343.700342
        17        40     1        0.108623   320033.480713
        18        19     1        0.139713   314164.414551
        18        41     1        0.108609   320432.727881
        19        42     1        0.108563   319867.744873
        20        21     1        0.133367   385280.003516
        20        43     1        0.101328   425133.063184
        21        22     1        0.133057   418437.999219
        21        23     1        0.135571   306128.141602
        22        44     1        0.101331   425032.344824
        22        50     1        0.101331   425032.344824
        23        24     1        0.146770   194545.402100
        23        25     1        0.142427   149007.730811
        24        45     1        0.109019   312430.214990
        24        46     1        0.109019   312430.214990
        24        47     1        0.109019   312430.214990
        25        26     1        0.120340   720923.067871
        27        48     1        0.108523   319792.691309
        28        49     1        0.108392   322452.840918

[ angles ]
;       ai        aj        ak funct           theta             cth
         1         2         3     1      118.044357      562.376307
         2         1        29     1      109.524879      448.897884
         2         1        30     1      109.524879      448.897884
         2         1        31     1      109.524879      448.897884
         2         3         4     1      120.925308      563.139548
         2         3        28     1      118.609169      517.238158
         3         4         5     1      119.215775      732.727405
         3         4        32     1      120.289001      439.689586
         3        28         7     1      120.744492      731.832393
         3        28        49     1      119.355286      440.244507
         4         3        28     1      119.892456      601.870469
         4         5         6     1      121.029984      686.911596
         4         5        33     1      119.262573      439.217788
         5         4        32     1      120.385155      432.697110
         5         6         7     1      120.145851      685.690412
         5         6        34     1      119.979797      436.978087
         6         5        33     1      119.691711      439.498568
         6         7         8     1      120.779396      523.030549
         6         7        28     1      118.800209      610.162559
         7         6        34     1      119.842491      432.437047
         7         8         9     1      120.931557      513.133387
         7         8        27     1      120.894547      423.542312
         7        28        49     1      119.903152      422.061479
         8         7        28     1      120.332253      442.871127
         8         9        10     1      120.555382      711.135268
         8         9        35     1      119.667435      426.878225
         8        27        12     1      121.229431      670.534137
         8        27        48     1      118.971497      416.261012
         9         8        27     1      118.183853      672.139847
         9        10        11     1      120.366478      724.982830
         9        10        36     1      119.786987      435.444935
        10         9        35     1      119.753372      429.073682
        10        11        12     1      119.673203      676.925437
        10        11        37     1      119.808311      423.195678
        11        10        36     1      119.830856      430.852405
        11        12        13     1      120.064842      485.172965
        11        12        27     1      119.666611      693.265357
        12        11        37     1      120.424927      402.069114
        12        13        14     1      114.689346      487.977323
        12        13        20     1      110.780807      597.256807
        12        13        25     1      111.206497      602.067296
        12        27        48     1      119.810341      401.909252
        13        12        27     1      119.851303      444.160751
        13        14        15     1      120.068604      477.433625
        13        14        19     1      120.068604      477.433625
        13        20        21     1      111.971664      628.767110
        13        20        43     1      120.754250      368.882332
        13        25        23     1      106.249046      167.360000
        13        25        26     1      127.886978      362.102102
        14        13        20     1      110.788513      594.970597
        14        13        25     1      111.267578      601.092927
        14        15        16     1      120.195145      680.403464
        14        15        38     1      120.290939      398.410317
        14        19        18     1      120.195145      680.403464
        14        19        42     1      120.290939      398.410317
        15        14        19     1      119.478966      686.490936
        15        16        17     1      120.116295      721.653685
        15        16        39     1      119.730301      425.611775
        16        15        38     1      119.529823      427.934599
        16        17        18     1      119.660950      700.021199
        16        17        40     1      120.189026      428.146429
        17        16        39     1      120.129761      427.908679
        17        18        19     1      120.116295      721.653685
        17        18        41     1      120.129761      427.908679
        18        17        40     1      120.189026      428.146429
        18        19        42     1      119.529823      427.934599
        19        18        41     1      119.730301      425.611775
        20        13        25     1      100.257896      341.583896
        20        21        22     1      125.357384      617.615756
        20        21        23     1      111.298294      587.422466
        21        20        43     1      123.585732      427.054526
        21        22        44     1      121.296143      450.934469
        21        22        50     1      121.296143      450.934469
        21        23        24     1      126.578964      468.028818
        21        23        25     1      109.844315      842.413950
        22        21        23     1      123.852615      626.812755
        23        24        45     1      109.237282      484.028775
        23        24        46     1      109.237282      484.028775
        23        24        47     1      109.237282      484.028775
        23        25        26     1      124.686508      645.429116
        24        23        25     1      123.180504      536.340969
        29         1        30     1      109.477646      342.882171
        29         1        31     1      109.477646      342.882171
        30         1        31     1      109.477646      342.882171
        44        22        50     1      117.458168      314.236876
        45        24        46     1      109.825012      349.354041
        45        24        47     1      109.825012      349.354041
        46        24        47     1      109.825012      349.354041

[ dihedrals ] ; propers for gromacs 4.5 or higher, use funct 9
;       ai        aj        ak        al funct           phase               k        pn
         1         2         3         4     9        0.000000        0.337332         1
         1         2         3         4     9      180.000000        5.644250         2
         1         2         3         4     9        0.000000       -0.052857         3
         1         2         3         4     9      180.000000        0.674217         4
         1         2         3        28     9        0.000000       -0.164074         1
         1         2         3        28     9      180.000000        5.609582         2
         1         2         3        28     9        0.000000       -0.122521         3
         1         2         3        28     9      180.000000        0.706665         4
         2         3         4         5     9        0.000000        0.580713         1
         2         3         4         5     9      180.000000       17.305555         2
         2         3         4         5     9        0.000000        0.465219         3
         2         3         4         5     9      180.000000       -0.233713         4
         2         3         4        32     9        0.000000        0.065995         1
         2         3         4        32     9      180.000000       12.817387         2
         2         3         4        32     9        0.000000       -0.131087         3
         2         3         4        32     9      180.000000        0.264913         4
         2         3        28         7     9        0.000000        0.354354         1
         2         3        28         7     9      180.000000       16.766587         2
         2         3        28         7     9        0.000000        0.353814         3
         2         3        28         7     9      180.000000       -0.262477         4
         2         3        28        49     9        0.000000        0.076807         1
         2         3        28        49     9      180.000000       12.758585         2
         2         3        28        49     9        0.000000       -0.107047         3
         2         3        28        49     9      180.000000        0.296928         4
         3         2         1        29     9        0.000000       -0.094314         1
         3         2         1        29     9      180.000000        0.036386         2
         3         2         1        29     9        0.000000        0.682791         3
         3         2         1        29     9      180.000000       -0.027783         4
         3         2         1        30     9        0.000000       -0.094314         1
         3         2         1        30     9      180.000000        0.036386         2
         3         2         1        30     9        0.000000        0.682791         3
         3         2         1        30     9      180.000000       -0.027783         4
         3         2         1        31     9        0.000000       -0.094314         1
         3         2         1        31     9      180.000000        0.036386         2
         3         2         1        31     9        0.000000        0.682791         3
         3         2         1        31     9      180.000000       -0.027783         4
         3         4         5         6     9        0.000000       -0.002881         1
         3         4         5         6     9      180.000000       18.473916         2
         3         4         5         6     9        0.000000       -1.569106         3
         3         4         5         6     9      180.000000       -0.471478         4
         3         4         5        33     9        0.000000        0.030486         1
         3         4         5        33     9      180.000000       14.667148         2
         3         4         5        33     9        0.000000       -0.505840         3
         3         4         5        33     9      180.000000        0.067969         4
         3        28         7         6     9        0.000000       -0.223353         1
         3        28         7         6     9      180.000000       18.247133         2
         3        28         7         6     9        0.000000       -1.594157         3
         3        28         7         6     9      180.000000       -0.380307         4
         3        28         7         8     9        0.000000        0.220370         1
         3        28         7         8     9      180.000000       16.503165         2
         3        28         7         8     9        0.000000       -0.158140         3
         3        28         7         8     9      180.000000       -0.410327         4
         4         3        28         7     9        0.000000       -0.106635         1
         4         3        28         7     9      180.000000       15.751148         2
         4         3        28         7     9        0.000000       -0.865973         3
         4         3        28         7     9      180.000000       -0.240962         4
         4         3        28        49     9        0.000000        0.125967         1
         4         3        28        49     9      180.000000       12.360615         2
         4         3        28        49     9        0.000000       -0.486332         3
         4         3        28        49     9      180.000000        0.254208         4
         4         5         6         7     9        0.000000       -0.014657         1
         4         5         6         7     9      180.000000       18.743175         2
         4         5         6         7     9        0.000000       -1.491099         3
         4         5         6         7     9      180.000000       -0.352556         4
         4         5         6        34     9        0.000000        0.040037         1
         4         5         6        34     9      180.000000       14.687873         2
         4         5         6        34     9        0.000000       -0.759189         3
         4         5         6        34     9      180.000000        0.142992         4
         5         4         3        28     9        0.000000       -0.037109         1
         5         4         3        28     9      180.000000       15.699566         2
         5         4         3        28     9        0.000000       -0.916614         3
         5         4         3        28     9      180.000000       -0.200316         4
         5         6         7         8     9        0.000000        0.257478         1
         5         6         7         8     9      180.000000       16.270987         2
         5         6         7         8     9        0.000000       -0.126340         3
         5         6         7         8     9      180.000000       -0.279563         4
         5         6         7        28     9        0.000000       -0.130433         1
         5         6         7        28     9      180.000000       18.231673         2
         5         6         7        28     9        0.000000       -1.420480         3
         5         6         7        28     9      180.000000       -0.300461         4
         6         5         4        32     9        0.000000        0.065111         1
         6         5         4        32     9      180.000000       13.785738         2
         6         5         4        32     9        0.000000       -0.615956         3
         6         5         4        32     9      180.000000        0.190145         4
         6         7         8         9     9        0.000000       -0.005538         1
         6         7         8         9     9      180.000000        3.376410         2
         6         7         8         9     9        0.000000        0.025568         3
         6         7         8         9     9      180.000000        0.008494         4
         6         7         8        27     9        0.000000        0.026537         1
         6         7         8        27     9      180.000000        3.488745         2
         6         7         8        27     9        0.000000        0.015333         3
         6         7         8        27     9      180.000000        0.009576         4
         6         7        28        49     9        0.000000       -0.033831         1
         6         7        28        49     9      180.000000       13.957403         2
         6         7        28        49     9        0.000000       -0.558775         3
         6         7        28        49     9      180.000000        0.090970         4
         7         6         5        33     9        0.000000       -0.051263         1
         7         6         5        33     9      180.000000       14.556765         2
         7         6         5        33     9        0.000000       -0.615948         3
         7         6         5        33     9      180.000000        0.112509         4
         7         8         9        10     9        0.000000        0.222993         1
         7         8         9        10     9      180.000000       16.162099         2
         7         8         9        10     9        0.000000       -0.165426         3
         7         8         9        10     9      180.000000       -0.233641         4
         7         8         9        35     9        0.000000       -0.092254         1
         7         8         9        35     9      180.000000       13.357514         2
         7         8         9        35     9        0.000000       -0.214716         3
         7         8         9        35     9      180.000000        0.193419         4
         7         8        27        12     9        0.000000        0.257987         1
         7         8        27        12     9      180.000000       16.932227         2
         7         8        27        12     9        0.000000       -0.116051         3
         7         8        27        12     9      180.000000       -0.419907         4
         7         8        27        48     9        0.000000       -0.070583         1
         7         8        27        48     9      180.000000       13.404362         2
         7         8        27        48     9        0.000000       -0.150822         3
         7         8        27        48     9      180.000000        0.154913         4
         8         7         6        34     9        0.000000       -0.065333         1
         8         7         6        34     9      180.000000       13.203745         2
         8         7         6        34     9        0.000000       -0.197867         3
         8         7         6        34     9      180.000000        0.202922         4
         8         7        28        49     9        0.000000       -0.046057         1
         8         7        28        49     9      180.000000       12.996467         2
         8         7        28        49     9        0.000000       -0.176266         3
         8         7        28        49     9      180.000000        0.239279         4
         8         9        10        11     9        0.000000       -0.043648         1
         8         9        10        11     9      180.000000       18.703898         2
         8         9        10        11     9        0.000000       -1.510511         3
         8         9        10        11     9      180.000000       -0.335628         4
         8         9        10        36     9        0.000000       -0.064645         1
         8         9        10        36     9      180.000000       14.694597         2
         8         9        10        36     9        0.000000       -0.603867         3
         8         9        10        36     9      180.000000        0.113452         4
         8        27        12        11     9        0.000000       -0.086012         1
         8        27        12        11     9      180.000000       19.009541         2
         8        27        12        11     9        0.000000       -1.496535         3
         8        27        12        11     9      180.000000       -0.476068         4
         8        27        12        13     9        0.000000        0.182985         1
         8        27        12        13     9      180.000000       14.764134         2
         8        27        12        13     9        0.000000       -0.117877         3
         8        27        12        13     9      180.000000       -0.243294         4
         9         8         7        28     9        0.000000       -0.026155         1
         9         8         7        28     9      180.000000        3.403180         2
         9         8         7        28     9        0.000000       -0.010822         3
         9         8         7        28     9      180.000000        0.008250         4
         9         8        27        12     9        0.000000       -0.040268         1
         9         8        27        12     9      180.000000       18.702744         2
         9         8        27        12     9        0.000000       -1.477071         3
         9         8        27        12     9      180.000000       -0.487865         4
         9         8        27        48     9        0.000000       -0.126173         1
         9         8        27        48     9      180.000000       14.455725         2
         9         8        27        48     9        0.000000       -0.599889         3
         9         8        27        48     9      180.000000        0.001562         4
         9        10        11        12     9        0.000000        0.133301         1
         9        10        11        12     9      180.000000       18.646704         2
         9        10        11        12     9        0.000000       -1.467793         3
         9        10        11        12     9      180.000000       -0.479693         4
         9        10        11        37     9        0.000000        0.071117         1
         9        10        11        37     9      180.000000       14.622252         2
         9        10        11        37     9        0.000000       -0.650862         3
         9        10        11        37     9      180.000000        0.076402         4
        10         9         8        27     9        0.000000       -0.180909         1
        10         9         8        27     9      180.000000       18.657440         2
        10         9         8        27     9        0.000000       -1.470625         3
        10         9         8        27     9      180.000000       -0.341352         4
        10        11        12        13     9        0.000000        0.183560         1
        10        11        12        13     9      180.000000       14.986926         2
        10        11        12        13     9        0.000000       -0.202030         3
        10        11        12        13     9      180.000000       -0.199513         4
        10        11        12        27     9        0.000000       -0.170319         1
        10        11        12        27     9      180.000000       19.279819         2
        10        11        12        27     9        0.000000       -1.464730         3
        10        11        12        27     9      180.000000       -0.499001         4
        11        10         9        35     9        0.000000        0.067933         1
        11        10         9        35     9      180.000000       14.604295         2
        11        10         9        35     9        0.000000       -0.730545         3
        11        10         9        35     9      180.000000        0.161582         4
        11        12        13        14     9        0.000000        0.058894         1
        11        12        13        14     9      180.000000        0.377344         2
        11        12        13        14     9        0.000000        0.198239         3
        11        12        13        14     9      180.000000        0.078961         4
        11        12        13        20     9        0.000000       -0.376656         1
        11        12        13        20     9      180.000000        1.344968         2
        11        12        13        20     9        0.000000        0.145598         3
        11        12        13        20     9      180.000000        0.196839         4
        11        12        13        25     9        0.000000       -0.327945         1
        11        12        13        25     9      180.000000       -0.606488         2
        11        12        13        25     9        0.000000        0.177664         3
        11        12        13        25     9      180.000000        0.152836         4
        11        12        27        48     9        0.000000        0.034872         1
        11        12        27        48     9      180.000000       14.598231         2
        11        12        27        48     9        0.000000       -0.717516         3
        11        12        27        48     9      180.000000        0.018570         4
        12        11        10        36     9        0.000000        0.070386         1
        12        11        10        36     9      180.000000       15.112306         2
        12        11        10        36     9        0.000000       -0.539902         3
        12        11        10        36     9      180.000000        0.068146         4
        12        13        14        15     9        0.000000        0.000123         1
        12        13        14        15     9      180.000000        0.357555         2
        12        13        14        15     9        0.000000        0.204899         3
        12        13        14        15     9      180.000000        0.092106         4
        12        13        14        19     9        0.000000        0.000123         1
        12        13        14        19     9      180.000000        0.357555         2
        12        13        14        19     9        0.000000        0.204899         3
        12        13        14        19     9      180.000000        0.092106         4
        12        13        20        21     9        0.000000        0.399115         1
        12        13        20        21     9      180.000000        0.607968         2
        12        13        20        21     9        0.000000        0.264496         3
        12        13        20        21     9      180.000000        0.238957         4
        12        13        20        43     9        0.000000        0.897845         1
        12        13        20        43     9      180.000000        0.607273         2
        12        13        20        43     9        0.000000        0.137571         3
        12        13        20        43     9      180.000000       -0.018753         4
        12        13        25        23     9        0.000000        0.551085         1
        12        13        25        23     9      180.000000        0.477491         2
        12        13        25        23     9        0.000000        0.339127         3
        12        13        25        23     9      180.000000        0.837442         4
        12        13        25        26     9        0.000000       -0.949889         1
        12        13        25        26     9      180.000000        1.119253         2
        12        13        25        26     9        0.000000       -0.353354         3
        12        13        25        26     9      180.000000        0.390425         4
        13        12        11        37     9        0.000000       -0.012755         1
        13        12        11        37     9      180.000000       12.563719         2
        13        12        11        37     9        0.000000       -0.313825         3
        13        12        11        37     9      180.000000        0.185545         4
        13        12        27        48     9        0.000000       -0.001018         1
        13        12        27        48     9      180.000000       12.769701         2
        13        12        27        48     9        0.000000       -0.292613         3
        13        12        27        48     9      180.000000        0.174406         4
        13        14        15        16     9        0.000000        0.162834         1
        13        14        15        16     9      180.000000       14.950996         2
        13        14        15        16     9        0.000000       -0.196275         3
        13        14        15        16     9      180.000000       -0.190857         4
        13        14        15        38     9        0.000000       -0.059052         1
        13        14        15        38     9      180.000000       12.509447         2
        13        14        15        38     9        0.000000       -0.335274         3
        13        14        15        38     9      180.000000        0.203867         4
        13        14        19        18     9        0.000000        0.162834         1
        13        14        19        18     9      180.000000       14.950996         2
        13        14        19        18     9        0.000000       -0.196275         3
        13        14        19        18     9      180.000000       -0.190857         4
        13        14        19        42     9        0.000000       -0.059052         1
        13        14        19        42     9      180.000000       12.509449         2
        13        14        19        42     9        0.000000       -0.335273         3
        13        14        19        42     9      180.000000        0.203867         4
        13        20        21        22     9        0.000000        1.917671         1
        13        20        21        22     9      180.000000       17.273760         2
        13        20        21        22     9        0.000000        0.746892         3
        13        20        21        22     9      180.000000       -1.864772         4
        13        20        21        23     9        0.000000       -1.518930         1
        13        20        21        23     9      180.000000       21.988463         2
        13        20        21        23     9        0.000000       -1.439307         3
        13        20        21        23     9      180.000000       -2.630186         4
        13        25        23        21     9        0.000000       -2.825562         1
        13        25        23        21     9      180.000000       10.925332         2
        13        25        23        21     9        0.000000       -1.470466         3
        13        25        23        21     9      180.000000       -0.300433         4
        13        25        23        24     9        0.000000       -0.538861         1
        13        25        23        24     9      180.000000        5.575422         2
        13        25        23        24     9        0.000000        0.152376         3
        13        25        23        24     9      180.000000       -0.161733         4
        14        13        12        27     9        0.000000       -0.122273         1
        14        13        12        27     9      180.000000        0.453556         2
        14        13        12        27     9        0.000000        0.146549         3
        14        13        12        27     9      180.000000        0.056301         4
        14        13        20        21     9        0.000000        0.573704         1
        14        13        20        21     9      180.000000        0.602634         2
        14        13        20        21     9        0.000000        0.267747         3
        14        13        20        21     9      180.000000        0.243559         4
        14        13        20        43     9        0.000000        1.059912         1
        14        13        20        43     9      180.000000        0.593354         2
        14        13        20        43     9        0.000000        0.126828         3
        14        13        20        43     9      180.000000       -0.016391         4
        14        13        25        23     9        0.000000        0.495500         1
        14        13        25        23     9      180.000000        0.481891         2
        14        13        25        23     9        0.000000        0.316943         3
        14        13        25        23     9      180.000000        0.846983         4
        14        13        25        26     9        0.000000       -1.152818         1
        14        13        25        26     9      180.000000        1.072200         2
        14        13        25        26     9        0.000000       -0.348036         3
        14        13        25        26     9      180.000000        0.393151         4
        14        15        16        17     9        0.000000        0.112456         1
        14        15        16        17     9      180.000000       19.076181         2
        14        15        16        17     9        0.000000       -1.528293         3
        14        15        16        17     9      180.000000       -0.501395         4
        14        15        16        39     9        0.000000        0.036243         1
        14        15        16        39     9      180.000000       15.148457         2
        14        15        16        39     9        0.000000       -0.607416         3
        14        15        16        39     9      180.000000        0.081088         4
        14        19        18        17     9        0.000000        0.112456         1
        14        19        18        17     9      180.000000       19.076181         2
        14        19        18        17     9        0.000000       -1.528293         3
        14        19        18        17     9      180.000000       -0.501395         4
        14        19        18        41     9        0.000000        0.036243         1
        14        19        18        41     9      180.000000       15.148457         2
        14        19        18        41     9        0.000000       -0.607416         3
        14        19        18        41     9      180.000000        0.081088         4
        15        14        13        20     9        0.000000       -0.346791         1
        15        14        13        20     9      180.000000        1.241989         2
        15        14        13        20     9        0.000000        0.147218         3
        15        14        13        20     9      180.000000        0.192257         4
        15        14        13        25     9        0.000000       -0.388488         1
        15        14        13        25     9      180.000000       -0.678831         2
        15        14        13        25     9        0.000000        0.177104         3
        15        14        13        25     9      180.000000        0.152568         4
        15        14        19        18     9        0.000000       -0.125590         1
        15        14        19        18     9      180.000000       19.197404         2
        15        14        19        18     9        0.000000       -1.469704         3
        15        14        19        18     9      180.000000       -0.532166         4
        15        14        19        42     9        0.000000        0.001779         1
        15        14        19        42     9      180.000000       14.559354         2
        15        14        19        42     9        0.000000       -0.693508         3
        15        14        19        42     9      180.000000        0.005835         4
        15        16        17        18     9        0.000000       -0.072947         1
        15        16        17        18     9      180.000000       18.710860         2
        15        16        17        18     9        0.000000       -1.638189         3
        15        16        17        18     9      180.000000       -0.393763         4
        15        16        17        40     9        0.000000        0.032122         1
        15        16        17        40     9      180.000000       14.422667         2
        15        16        17        40     9        0.000000       -0.779016         3
        15        16        17        40     9      180.000000        0.114208         4
        16        15        14        19     9        0.000000       -0.125590         1
        16        15        14        19     9      180.000000       19.197404         2
        16        15        14        19     9        0.000000       -1.469704         3
        16        15        14        19     9      180.000000       -0.532166         4
        16        17        18        19     9        0.000000       -0.072947         1
        16        17        18        19     9      180.000000       18.710860         2
        16        17        18        19     9        0.000000       -1.638189         3
        16        17        18        19     9      180.000000       -0.393763         4
        16        17        18        41     9        0.000000        0.017563         1
        16        17        18        41     9      180.000000       14.269724         2
        16        17        18        41     9        0.000000       -0.769057         3
        16        17        18        41     9      180.000000        0.155538         4
        17        16        15        38     9        0.000000        0.047715         1
        17        16        15        38     9      180.000000       14.992779         2
        17        16        15        38     9        0.000000       -0.684086         3
        17        16        15        38     9      180.000000        0.101543         4
        17        18        19        42     9        0.000000        0.047715         1
        17        18        19        42     9      180.000000       14.992778         2
        17        18        19        42     9        0.000000       -0.684086         3
        17        18        19        42     9      180.000000        0.101543         4
        18        17        16        39     9        0.000000        0.017563         1
        18        17        16        39     9      180.000000       14.269724         2
        18        17        16        39     9        0.000000       -0.769057         3
        18        17        16        39     9      180.000000        0.155538         4
        19        14        13        20     9        0.000000       -0.346791         1
        19        14        13        20     9      180.000000        1.241989         2
        19        14        13        20     9        0.000000        0.147218         3
        19        14        13        20     9      180.000000        0.192257         4
        19        14        13        25     9        0.000000       -0.388488         1
        19        14        13        25     9      180.000000       -0.678831         2
        19        14        13        25     9        0.000000        0.177104         3
        19        14        13        25     9      180.000000        0.152568         4
        19        14        15        38     9        0.000000        0.001779         1
        19        14        15        38     9      180.000000       14.559355         2
        19        14        15        38     9        0.000000       -0.693508         3
        19        14        15        38     9      180.000000        0.005834         4
        19        18        17        40     9        0.000000        0.032122         1
        19        18        17        40     9      180.000000       14.422667         2
        19        18        17        40     9        0.000000       -0.779016         3
        19        18        17        40     9      180.000000        0.114208         4
        20        13        12        27     9        0.000000       -0.190862         1
        20        13        12        27     9      180.000000        1.401062         2
        20        13        12        27     9        0.000000        0.066361         3
        20        13        12        27     9      180.000000        0.198965         4
        20        13        25        23     9        0.000000        0.368977         1
        20        13        25        23     9      180.000000        8.187300         2
        20        13        25        23     9        0.000000       -0.153603         3
        20        13        25        23     9      180.000000       -0.438700         4
        20        13        25        26     9        0.000000        6.446721         1
        20        13        25        26     9      180.000000        5.117101         2
        20        13        25        26     9        0.000000        0.133933         3
        20        13        25        26     9      180.000000        0.360037         4
        20        21        22        44     9        0.000000       -1.578258         1
        20        21        22        44     9      180.000000        6.607875         2
        20        21        22        44     9        0.000000        0.015932         3
        20        21        22        44     9      180.000000       -0.506730         4
        20        21        22        50     9        0.000000       -1.578258         1
        20        21        22        50     9      180.000000        6.607875         2
        20        21        22        50     9        0.000000        0.015932         3
        20        21        22        50     9      180.000000       -0.506730         4
        20        21        23        24     9        0.000000       -2.795685         1
        20        21        23        24     9      180.000000        5.725594         2
        20        21        23        24     9        0.000000       -0.188593         3
        20        21        23        24     9      180.000000        0.060182         4
        20        21        23        25     9        0.000000       -1.562447         1
        20        21        23        25     9      180.000000       14.809951         2
        20        21        23        25     9        0.000000       -2.756051         3
        20        21        23        25     9      180.000000       -1.320171         4
        21        20        13        25     9        0.000000       -2.323486         1
        21        20        13        25     9      180.000000        6.770829         2
        21        20        13        25     9        0.000000       -0.429739         3
        21        20        13        25     9      180.000000       -1.708535         4
        21        23        24        45     9        0.000000        0.021130         1
        21        23        24        45     9      180.000000        0.000117         2
        21        23        24        45     9        0.000000        0.183870         3
        21        23        24        45     9      180.000000       -0.015824         4
        21        23        24        46     9        0.000000        0.021130         1
        21        23        24        46     9      180.000000        0.000117         2
        21        23        24        46     9        0.000000        0.183870         3
        21        23        24        46     9      180.000000       -0.015824         4
        21        23        24        47     9        0.000000        0.021130         1
        21        23        24        47     9      180.000000        0.000117         2
        21        23        24        47     9        0.000000        0.183870         3
        21        23        24        47     9      180.000000       -0.015824         4
        21        23        25        26     9        0.000000        1.928663         1
        21        23        25        26     9      180.000000       16.805427         2
        21        23        25        26     9        0.000000       -0.505018         3
        21        23        25        26     9      180.000000       -0.817874         4
        22        21        20        43     9        0.000000       -0.563536         1
        22        21        20        43     9      180.000000        8.078404         2
        22        21        20        43     9        0.000000        0.471207         3
        22        21        20        43     9      180.000000       -0.472619         4
        22        21        23        24     9        0.000000        1.750032         1
        22        21        23        24     9      180.000000        7.527048         2
        22        21        23        24     9        0.000000       -0.053235         3
        22        21        23        24     9      180.000000       -0.107064         4
        22        21        23        25     9        0.000000        1.384864         1
        22        21        23        25     9      180.000000       13.000210         2
        22        21        23        25     9        0.000000       -0.230675         3
        22        21        23        25     9      180.000000       -0.772286         4
        23        21        20        43     9        0.000000       -0.583771         1
        23        21        20        43     9      180.000000        8.920952         2
        23        21        20        43     9        0.000000        0.096792         3
        23        21        20        43     9      180.000000       -0.874819         4
        23        21        22        44     9        0.000000       -0.736374         1
        23        21        22        44     9      180.000000        6.300565         2
        23        21        22        44     9        0.000000        0.313027         3
        23        21        22        44     9      180.000000       -0.635641         4
        23        21        22        50     9        0.000000       -0.736374         1
        23        21        22        50     9      180.000000        6.300565         2
        23        21        22        50     9        0.000000        0.313027         3
        23        21        22        50     9      180.000000       -0.635641         4
        24        23        25        26     9        0.000000       -0.456218         1
        24        23        25        26     9      180.000000        9.244378         2
        24        23        25        26     9        0.000000       -0.319752         3
        24        23        25        26     9      180.000000        0.297308         4
        25        13        12        27     9        0.000000       -0.533576         1
        25        13        12        27     9      180.000000       -0.496703         2
        25        13        12        27     9        0.000000        0.166157         3
        25        13        12        27     9      180.000000        0.137304         4
        25        13        20        43     9        0.000000       -0.467873         1
        25        13        20        43     9      180.000000       -0.863893         2
        25        13        20        43     9        0.000000        0.107572         3
        25        13        20        43     9      180.000000        0.174536         4
        25        23        24        45     9        0.000000       -0.064801         1
        25        23        24        45     9      180.000000       -0.077149         2
        25        23        24        45     9        0.000000       -0.306371         3
        25        23        24        45     9      180.000000        0.046923         4
        25        23        24        46     9        0.000000       -0.064801         1
        25        23        24        46     9      180.000000       -0.077149         2
        25        23        24        46     9        0.000000       -0.306371         3
        25        23        24        46     9      180.000000        0.046923         4
        25        23        24        47     9        0.000000       -0.064801         1
        25        23        24        47     9      180.000000       -0.077149         2
        25        23        24        47     9        0.000000       -0.306371         3
        25        23        24        47     9      180.000000        0.046923         4
        27         8         7        28     9        0.000000        0.043068         1
        27         8         7        28     9      180.000000        3.511803         2
        27         8         7        28     9        0.000000       -0.025574         3
        27         8         7        28     9      180.000000        0.014136         4
        27         8         9        35     9        0.000000       -0.131760         1
        27         8         9        35     9      180.000000       14.552021         2
        27         8         9        35     9        0.000000       -0.643497         3
        27         8         9        35     9      180.000000        0.045449         4
        27        12        11        37     9        0.000000        0.038707         1
        27        12        11        37     9      180.000000       14.554240         2
        27        12        11        37     9        0.000000       -0.656608         3
        27        12        11        37     9      180.000000        0.006793         4
        28         3         4        32     9        0.000000        0.057589         1
        28         3         4        32     9      180.000000       12.441072         2
        28         3         4        32     9        0.000000       -0.458012         3
        28         3         4        32     9      180.000000        0.152158         4
        28         7         6        34     9        0.000000       -0.108240         1
        28         7         6        34     9      180.000000       14.323749         2
        28         7         6        34     9        0.000000       -0.647709         3
        28         7         6        34     9      180.000000        0.032304         4
        32         4         5        33     9        0.000000       -0.184139         1
        32         4         5        33     9      180.000000       11.504632         2
        32         4         5        33     9        0.000000       -0.585540         3
        32         4         5        33     9      180.000000        0.256740         4
        33         5         6        34     9        0.000000       -0.201403         1
        33         5         6        34     9      180.000000       11.798294         2
        33         5         6        34     9        0.000000       -0.725832         3
        33         5         6        34     9      180.000000        0.321406         4
        35         9        10        36     9        0.000000       -0.168145         1
        35         9        10        36     9      180.000000       11.942115         2
        35         9        10        36     9        0.000000       -0.731995         3
        35         9        10        36     9      180.000000        0.317910         4
        36        10        11        37     9        0.000000       -0.117657         1
        36        10        11        37     9      180.000000       11.932395         2
        36        10        11        37     9        0.000000       -0.694352         3
        36        10        11        37     9      180.000000        0.275937         4
        38        15        16        39     9        0.000000       -0.132350         1
        38        15        16        39     9      180.000000       12.096763         2
        38        15        16        39     9        0.000000       -0.739346         3
        38        15        16        39     9      180.000000        0.287472         4
        39        16        17        40     9        0.000000       -0.081259         1
        39        16        17        40     9      180.000000       11.518639         2
        39        16        17        40     9        0.000000       -0.598806         3
        39        16        17        40     9      180.000000        0.259344         4
        40        17        18        41     9        0.000000       -0.081259         1
        40        17        18        41     9      180.000000       11.518639         2
        40        17        18        41     9        0.000000       -0.598806         3
        40        17        18        41     9      180.000000        0.259344         4
        41        18        19        42     9        0.000000       -0.132351         1
        41        18        19        42     9      180.000000       12.096765         2
        41        18        19        42     9        0.000000       -0.739346         3
        41        18        19        42     9      180.000000        0.287473         4

[ dihedrals ] ; impropers
;       ai        aj        ak        al funct           phase               k        pn
         3         2         4        28     4      180.000000        0.484191         2
         3         4        28         2     4      180.000000        0.484191         2
         3        28         2         4     4      180.000000        0.484191         2
        10         9        11        36     4      180.000000        0.196359         2
        10        11        36         9     4      180.000000        0.196359         2
        10        36         9        11     4      180.000000        0.196359         2
        15        14        16        38     4      180.000000        0.223527         2
        15        16        38        14     4      180.000000        0.223527         2
        15        38        14        16     4      180.000000        0.223527         2
        16        15        17        39     4      180.000000        0.650928         2
        16        17        39        15     4      180.000000        0.650928         2
        16        39        15        17     4      180.000000        0.650928         2
        17        16        18        40     4      180.000000        1.596565         2
        17        18        40        16     4      180.000000        1.596565         2
        17        40        16        18     4      180.000000        1.596565         2
        18        17        19        41     4      180.000000        0.650928         2
        18        19        41        17     4      180.000000        0.650928         2
        18        41        17        19     4      180.000000        0.650928         2
        19        14        18        42     4      180.000000        0.223528         2
        19        18        42        14     4      180.000000        0.223528         2
        19        42        14        18     4      180.000000        0.223528         2
        21        20        22        23     4      180.000000       10.558912         2
        21        22        23        20     4      180.000000       10.558912         2
        21        23        20        22     4      180.000000       10.558912         2
        25        13        23        26     4      180.000000       27.376335         2
        25        23        26        13     4      180.000000       27.376335         2
        25        26        13        23     4      180.000000       27.376335         2

[ pairs ]
;       ai        aj funct
         1         4     1
         1        28     1
         2         5     1
         2         7     1
         2        32     1
         2        49     1
         3         6     1
         3         8     1
         3        29     1
         3        30     1
         3        31     1
         3        33     1
         4         7     1
         4        34     1
         4        49     1
         5         8     1
         5        28     1
         6         9     1
         6        27     1
         6        32     1
         6        49     1
         7        10     1
         7        12     1
         7        33     1
         7        35     1
         7        48     1
         8        11     1
         8        13     1
         8        34     1
         8        36     1
         8        49     1
         9        12     1
         9        28     1
         9        37     1
         9        48     1
        10        13     1
        10        27     1
        11        14     1
        11        20     1
        11        25     1
        11        35     1
        11        48     1
        12        15     1
        12        19     1
        12        21     1
        12        23     1
        12        26     1
        12        36     1
        12        43     1
        13        16     1
        13        18     1
        13        22     1
        13        24     1
        13        37     1
        13        38     1
        13        42     1
        13        48     1
        14        17     1
        14        21     1
        14        23     1
        14        26     1
        14        27     1
        14        39     1
        14        41     1
        14        43     1
        15        18     1
        15        20     1
        15        25     1
        15        40     1
        15        42     1
        16        19     1
        16        41     1
        17        38     1
        17        42     1
        18        39     1
        19        20     1
        19        25     1
        19        38     1
        19        40     1
        20        24     1
        20        26     1
        20        27     1
        20        44     1
        20        50     1
        21        26     1
        21        45     1
        21        46     1
        21        47     1
        22        24     1
        22        25     1
        22        43     1
        23        43     1
        23        44     1
        23        50     1
        24        26     1
        25        27     1
        25        43     1
        25        45     1
        25        46     1
        25        47     1
        27        28     1
        27        35     1
        27        37     1
        28        32     1
        28        34     1
        32        33     1
        33        34     1
        35        36     1
        36        37     1
        38        39     1
        39        40     1
        40        41     1
        41        42     1
