; ITP file created by ByteFF-ML, 2026-02-21 08:14:04.244078

[ atomtypes ]
;name           bonded.type        at.num        mass        charge   ptype           sigma         epsilon
 c0bf                                   6      0.0000       0.00000       A     3.39898e-01     4.52593e-01
 n1bf                                   7      0.0000       0.00000       A     3.18342e-01     7.01618e-01
 c2bf                                   6      0.0000       0.00000       A     3.31282e-01     4.10049e-01
 n3bf                                   7      0.0000       0.00000       A     3.36731e-01     4.77019e-01
 n4bf                                   7      0.0000       0.00000       A     3.26849e-01     6.51913e-01
 c5bf                                   6      0.0000       0.00000       A     3.39490e-01     4.42212e-01
 c6bf                                   6      0.0000       0.00000       A     3.31703e-01     4.16012e-01
 c7bf                                   6      0.0000       0.00000       A     3.31523e-01     4.13971e-01
 c8bf                                   6      0.0000       0.00000       A     3.31491e-01     4.13364e-01
 c9bf                                   6      0.0000       0.00000       A     3.31500e-01     4.12376e-01
 c10bf                                  6      0.0000       0.00000       A     3.31412e-01     4.12298e-01
 c11bf                                  6      0.0000       0.00000       A     3.31338e-01     4.14041e-01
 c12bf                                  6      0.0000       0.00000       A     3.31495e-01     4.12332e-01
 c13bf                                  6      0.0000       0.00000       A     3.31470e-01     4.12993e-01
 c14bf                                  6      0.0000       0.00000       A     3.31492e-01     4.12697e-01
 c15bf                                  6      0.0000       0.00000       A     3.31464e-01     4.12774e-01
 cl16bf                                17      0.0000       0.00000       A     3.46727e-01     1.10410e+00
 c17bf                                  6      0.0000       0.00000       A     3.31525e-01     4.12943e-01
 c18bf                                  6      0.0000       0.00000       A     3.31629e-01     4.14518e-01
 c19bf                                  6      0.0000       0.00000       A     3.31574e-01     4.12364e-01
 c20bf                                  6      0.0000       0.00000       A     3.31424e-01     4.14055e-01
 c21bf                                  6      0.0000       0.00000       A     3.31496e-01     4.13521e-01
 c22bf                                  6      0.0000       0.00000       A     3.31483e-01     4.13119e-01
 c23bf                                  6      0.0000       0.00000       A     3.31544e-01     4.12696e-01
 n24bf                                  7      0.0000       0.00000       A     3.38454e-01     3.93568e-01
 c25bf                                  6      0.0000       0.00000       A     3.31384e-01     4.15328e-01
 o26bf                                  8      0.0000       0.00000       A     3.04495e-01     6.15240e-01
 h27bf                                  1      0.0000       0.00000       A     2.42205e-01     8.61909e-02
 h28bf                                  1      0.0000       0.00000       A     2.42205e-01     8.61909e-02
 h29bf                                  1      0.0000       0.00000       A     2.42205e-01     8.61909e-02
 h30bf                                  1      0.0000       0.00000       A     1.10384e-01     3.90095e-02
 h31bf                                  1      0.0000       0.00000       A     1.10361e-01     4.05737e-02
 h32bf                                  1      0.0000       0.00000       A     2.62565e-01     6.77340e-02
 h33bf                                  1      0.0000       0.00000       A     2.62513e-01     6.74259e-02
 h34bf                                  1      0.0000       0.00000       A     2.62472e-01     6.74738e-02
 h35bf                                  1      0.0000       0.00000       A     2.62472e-01     6.74738e-02
 h36bf                                  1      0.0000       0.00000       A     2.62502e-01     6.73461e-02
 h37bf                                  1      0.0000       0.00000       A     2.62496e-01     6.71211e-02
 h38bf                                  1      0.0000       0.00000       A     2.62435e-01     6.74259e-02
 h39bf                                  1      0.0000       0.00000       A     2.62568e-01     6.76574e-02
 h40bf                                  1      0.0000       0.00000       A     2.62667e-01     6.72823e-02
 h41bf                                  1      0.0000       0.00000       A     2.62508e-01     6.74643e-02
 h42bf                                  1      0.0000       0.00000       A     2.62506e-01     6.74196e-02
 h43bf                                  1      0.0000       0.00000       A     2.53642e-01     6.72520e-02
 h44bf                                  1      0.0000       0.00000       A     1.10384e-01     3.90095e-02

[ moleculetype ]
;name             nrexcl
 CAT-13j               3

[ atoms ]
;       nr            type      resi   res      atom      cgnr      charge          mass ; qtot
         1            c0bf         1   UNL        c0         1     0.07252       12.0110 ; qtot    0.073
         2            n1bf         1   UNL        n1         2    -0.59968       14.0070 ; qtot   -0.527
         3            c2bf         1   UNL        c2         3     0.93295       12.0110 ; qtot    0.406
         4            n3bf         1   UNL        n3         4    -0.59015       14.0070 ; qtot   -0.184
         5            n4bf         1   UNL        n4         5    -0.59335       14.0070 ; qtot   -0.778
         6            c5bf         1   UNL        c5         6     0.02480       12.0110 ; qtot   -0.753
         7            c6bf         1   UNL        c6         7    -0.12595       12.0110 ; qtot   -0.879
         8            c7bf         1   UNL        c7         8    -0.06818       12.0110 ; qtot   -0.947
         9            c8bf         1   UNL        c8         9    -0.09871       12.0110 ; qtot   -1.046
        10            c9bf         1   UNL        c9        10    -0.09314       12.0110 ; qtot   -1.139
        11           c10bf         1   UNL       c10        11    -0.02911       12.0110 ; qtot   -1.168
        12           c11bf         1   UNL       c11        12    -0.02656       12.0110 ; qtot   -1.195
        13           c12bf         1   UNL       c12        13    -0.10326       12.0110 ; qtot   -1.298
        14           c13bf         1   UNL       c13        14    -0.10402       12.0110 ; qtot   -1.402
        15           c14bf         1   UNL       c14        15    -0.09512       12.0110 ; qtot   -1.497
        16           c15bf         1   UNL       c15        16     0.12011       12.0110 ; qtot   -1.377
        17          cl16bf         1   UNL      cl16        17    -0.20970       35.4530 ; qtot   -1.587
        18           c17bf         1   UNL       c17        18    -0.09584       12.0110 ; qtot   -1.682
        19           c18bf         1   UNL       c18        19    -0.05568       12.0110 ; qtot   -1.738
        20           c19bf         1   UNL       c19        20     0.31404       12.0110 ; qtot   -1.424
        21           c20bf         1   UNL       c20        21    -0.12205       12.0110 ; qtot   -1.546
        22           c21bf         1   UNL       c21        22    -0.06093       12.0110 ; qtot   -1.607
        23           c22bf         1   UNL       c22        23    -0.14418       12.0110 ; qtot   -1.751
        24           c23bf         1   UNL       c23        24     0.35491       12.0110 ; qtot   -1.396
        25           n24bf         1   UNL       n24        25    -0.68305       14.0070 ; qtot   -2.079
        26           c25bf         1   UNL       c25        26     0.56068       12.0110 ; qtot   -1.519
        27           o26bf         1   UNL       o26        27    -0.37933       15.9990 ; qtot   -1.898
        28           h27bf         1   UNL       h27        28     0.08958        1.0080 ; qtot   -1.808
        29           h28bf         1   UNL       h28        29     0.08958        1.0080 ; qtot   -1.719
        30           h29bf         1   UNL       h29        30     0.08958        1.0080 ; qtot   -1.629
        31           h30bf         1   UNL       h30        31     0.38417        1.0080 ; qtot   -1.245
        32           h31bf         1   UNL       h31        32     0.42657        1.0080 ; qtot   -0.818
        33           h32bf         1   UNL       h32        33     0.13146        1.0080 ; qtot   -0.687
        34           h33bf         1   UNL       h33        34     0.12026        1.0080 ; qtot   -0.567
        35           h34bf         1   UNL       h34        35     0.11650        1.0080 ; qtot   -0.450
        36           h35bf         1   UNL       h35        36     0.11993        1.0080 ; qtot   -0.330
        37           h36bf         1   UNL       h36        37     0.12261        1.0080 ; qtot   -0.208
        38           h37bf         1   UNL       h37        38     0.13516        1.0080 ; qtot   -0.073
        39           h38bf         1   UNL       h38        39     0.13341        1.0080 ; qtot    0.061
        40           h39bf         1   UNL       h39        40     0.13291        1.0080 ; qtot    0.194
        41           h40bf         1   UNL       h40        41     0.14147        1.0080 ; qtot    0.335
        42           h41bf         1   UNL       h41        42     0.12825        1.0080 ; qtot    0.463
        43           h42bf         1   UNL       h42        43     0.12567        1.0080 ; qtot    0.589
        44           h43bf         1   UNL       h43        44     0.02670        1.0080 ; qtot    0.616
        45           h44bf         1   UNL       h44        45     0.38417        1.0080 ; qtot    1.000

[ bonds ]
;       ai        aj funct               r               k
         1         2     1        0.146777   194380.228076
         1        28     1        0.109019   312430.214990
         1        29     1        0.109019   312430.214990
         1        30     1        0.109019   312430.214990
         2         3     1        0.135566   306469.828125
         2        26     1        0.142274   150419.166846
         3         4     1        0.133055   418054.814893
         3         5     1        0.133199   384923.045801
         4        31     1        0.101331   425032.293750
         4        45     1        0.101331   425032.293750
         5         6     1        0.148168   148381.535352
         5        32     1        0.101716   414366.413574
         6         7     1        0.152437   163834.116846
         6        20     1        0.153593   147599.793359
         6        26     1        0.154625   120587.890381
         7         8     1        0.140083   293044.050391
         7        19     1        0.139864   297067.932715
         8         9     1        0.139654   313962.875684
         8        33     1        0.108534   321165.336475
         9        10     1        0.139603   315551.360498
         9        34     1        0.108615   320003.678906
        10        11     1        0.140533   285700.343848
        10        35     1        0.108587   318592.753613
        11        12     1        0.148300   214212.155688
        11        19     1        0.140386   287137.419141
        12        13     1        0.140642   283730.615527
        12        18     1        0.140548   284644.231152
        13        14     1        0.139639   316467.172314
        13        36     1        0.108557   319942.823975
        14        15     1        0.139818   306197.015186
        14        37     1        0.108593   321221.875635
        15        16     1        0.139667   296743.126221
        15        38     1        0.108450   326068.844531
        16        17     1        0.175898   146278.069189
        16        18     1        0.139434   307507.503027
        18        39     1        0.108450   323511.456250
        19        40     1        0.108511   320235.249414
        20        21     1        0.139717   286873.978320
        20        25     1        0.133913   299811.358838
        21        22     1        0.139689   318261.792676
        21        41     1        0.108441   324499.206104
        22        23     1        0.139706   313004.672266
        22        42     1        0.108595   322497.454248
        23        24     1        0.139815   294518.512012
        23        43     1        0.108543   323286.474316
        24        25     1        0.133840   319477.844287
        24        44     1        0.108789   316233.405615
        26        27     1        0.120237   725342.979688

[ angles ]
;       ai        aj        ak funct           theta             cth
         1         2         3     1      126.566833      467.075454
         1         2        26     1      123.184669      532.168173
         2         1        28     1      109.242569      483.394433
         2         1        29     1      109.242569      483.394433
         2         1        30     1      109.242569      483.394433
         2         3         4     1      123.815536      624.881447
         2         3         5     1      111.325096      586.609556
         2        26         6     1      106.026871      167.360000
         2        26        27     1      124.957214      642.672066
         3         2        26     1      109.781998      844.653300
         3         4        31     1      121.256058      450.920136
         3         4        45     1      121.256058      450.920136
         3         5         6     1      111.468483      623.073803
         3         5        32     1      123.995712      413.737275
         4         3         5     1      125.332741      617.807732
         5         6         7     1      111.231918      592.769426
         5         6        20     1      109.095909      565.093520
         5         6        26     1      100.914131      331.304060
         6         5        32     1      118.808212      372.950170
         6         7         8     1      119.993774      479.342971
         6         7        19     1      119.801331      441.297402
         6        20        21     1      121.514954      439.320192
         6        20        25     1      114.701317      447.487470
         6        26        27     1      128.017242      369.539146
         7         6        20     1      113.283524      515.525863
         7         6        26     1      111.590210      593.461737
         7         8         9     1      119.617455      677.907978
         7         8        33     1      120.414185      397.190760
         7        19        11     1      121.059433      669.542723
         7        19        40     1      119.822166      397.591023
         8         7        19     1      119.774704      702.748435
         8         9        10     1      120.375465      726.190799
         8         9        34     1      119.812012      430.658834
         9         8        33     1      119.887772      420.949050
         9        10        11     1      120.453354      706.439696
         9        10        35     1      119.753372      429.073682
        10         9        34     1      119.786987      435.444935
        10        11        12     1      120.861000      512.433095
        10        11        19     1      118.324448      675.720724
        11        10        35     1      119.763222      426.773171
        11        12        13     1      120.944702      503.301695
        11        12        18     1      120.427002      481.644279
        11        19        40     1      119.088577      413.127417
        12        11        19     1      120.856224      423.976602
        12        13        14     1      120.709496      710.226339
        12        13        36     1      119.625290      429.265114
        12        18        16     1      119.954468      654.295153
        12        18        39     1      120.525940      413.949137
        13        12        18     1      118.518814      610.093928
        13        14        15     1      120.716507      706.259979
        13        14        37     1      119.854904      434.295638
        14        13        36     1      119.665451      434.119208
        14        15        16     1      118.458839      608.116654
        14        15        38     1      121.243332      419.806776
        15        14        37     1      119.403763      439.510571
        15        16        17     1      119.263100      362.742700
        15        16        18     1      121.578903      646.790308
        16        15        38     1      120.373581      408.925573
        16        18        39     1      119.578125      413.311731
        17        16        18     1      119.060081      368.288051
        20         6        26     1      110.117775      666.361565
        20        21        22     1      118.375221      748.268332
        20        21        41     1      120.706009      404.802000
        20        25        24     1      118.330177      728.124277
        21        20        25     1      122.925865      696.996967
        21        22        23     1      118.853287      782.101555
        21        22        42     1      120.344345      423.102850
        22        21        41     1      120.840073      424.636896
        22        23        24     1      118.250832      749.691579
        22        23        43     1      121.454102      432.237857
        23        22        42     1      120.798264      427.967574
        23        24        25     1      122.976036      731.134592
        23        24        44     1      120.569519      415.284377
        24        23        43     1      120.307693      443.080946
        25        24        44     1      116.195778      398.595142
        28         1        29     1      109.825012      349.354041
        28         1        30     1      109.825012      349.354041
        29         1        30     1      109.825012      349.354041
        31         4        45     1      117.458168      314.236876

[ dihedrals ] ; propers for gromacs 4.5 or higher, use funct 9
;       ai        aj        ak        al funct           phase               k        pn
         1         2         3         4     9        0.000000        1.859359         1
         1         2         3         4     9      180.000000        7.524548         2
         1         2         3         4     9        0.000000       -0.042480         3
         1         2         3         4     9      180.000000       -0.085121         4
         1         2         3         5     9        0.000000       -3.211605         1
         1         2         3         5     9      180.000000        5.960710         2
         1         2         3         5     9        0.000000       -0.259230         3
         1         2         3         5     9      180.000000        0.128037         4
         1         2        26         6     9        0.000000       -0.973347         1
         1         2        26         6     9      180.000000        5.594994         2
         1         2        26         6     9        0.000000        0.236858         3
         1         2        26         6     9      180.000000       -0.133478         4
         1         2        26        27     9        0.000000       -0.337539         1
         1         2        26        27     9      180.000000        9.493111         2
         1         2        26        27     9        0.000000       -0.318800         3
         1         2        26        27     9      180.000000        0.289497         4
         2         3         4        31     9        0.000000       -0.735899         1
         2         3         4        31     9      180.000000        6.370319         2
         2         3         4        31     9        0.000000        0.370420         3
         2         3         4        31     9      180.000000       -0.644549         4
         2         3         4        45     9        0.000000       -0.735900         1
         2         3         4        45     9      180.000000        6.370319         2
         2         3         4        45     9        0.000000        0.370420         3
         2         3         4        45     9      180.000000       -0.644550         4
         2         3         5         6     9        0.000000       -1.499910         1
         2         3         5         6     9      180.000000       22.685418         2
         2         3         5         6     9        0.000000       -1.376283         3
         2         3         5         6     9      180.000000       -2.527420         4
         2         3         5        32     9        0.000000       -0.627110         1
         2         3         5        32     9      180.000000        9.081961         2
         2         3         5        32     9        0.000000        0.087735         3
         2         3         5        32     9      180.000000       -0.826892         4
         2        26         6         5     9        0.000000        0.110141         1
         2        26         6         5     9      180.000000        8.644096         2
         2        26         6         5     9        0.000000       -0.316403         3
         2        26         6         5     9      180.000000       -0.156825         4
         2        26         6         7     9        0.000000        0.316187         1
         2        26         6         7     9      180.000000        0.935347         2
         2        26         6         7     9        0.000000        0.358404         3
         2        26         6         7     9      180.000000        0.860682         4
         2        26         6        20     9        0.000000       -1.681027         1
         2        26         6        20     9      180.000000        2.111293         2
         2        26         6        20     9        0.000000        0.222805         3
         2        26         6        20     9      180.000000        0.924102         4
         3         2         1        28     9        0.000000        0.017301         1
         3         2         1        28     9      180.000000        0.005749         2
         3         2         1        28     9        0.000000        0.180473         3
         3         2         1        28     9      180.000000       -0.016713         4
         3         2         1        29     9        0.000000        0.017301         1
         3         2         1        29     9      180.000000        0.005749         2
         3         2         1        29     9        0.000000        0.180473         3
         3         2         1        29     9      180.000000       -0.016713         4
         3         2         1        30     9        0.000000        0.017301         1
         3         2         1        30     9      180.000000        0.005749         2
         3         2         1        30     9        0.000000        0.180473         3
         3         2         1        30     9      180.000000       -0.016713         4
         3         2        26         6     9        0.000000       -2.857748         1
         3         2        26         6     9      180.000000       12.328280         2
         3         2        26         6     9        0.000000       -1.874613         3
         3         2        26         6     9      180.000000       -0.337469         4
         3         2        26        27     9        0.000000        2.254491         1
         3         2        26        27     9      180.000000       18.047518         2
         3         2        26        27     9        0.000000       -0.828808         3
         3         2        26        27     9      180.000000       -0.834695         4
         3         5         6         7     9        0.000000       -0.036184         1
         3         5         6         7     9      180.000000        0.791135         2
         3         5         6         7     9        0.000000        0.389695         3
         3         5         6         7     9      180.000000        0.323204         4
         3         5         6        20     9        0.000000       -0.223116         1
         3         5         6        20     9      180.000000        0.391402         2
         3         5         6        20     9        0.000000        0.347745         3
         3         5         6        20     9      180.000000        0.246420         4
         3         5         6        26     9        0.000000       -3.983537         1
         3         5         6        26     9      180.000000        5.230256         2
         3         5         6        26     9        0.000000       -0.225276         3
         3         5         6        26     9      180.000000       -1.370892         4
         4         3         2        26     9        0.000000        1.298871         1
         4         3         2        26     9      180.000000       13.125026         2
         4         3         2        26     9        0.000000       -0.222824         3
         4         3         2        26     9      180.000000       -0.849471         4
         4         3         5         6     9        0.000000        2.525781         1
         4         3         5         6     9      180.000000       17.023225         2
         4         3         5         6     9        0.000000        0.652674         3
         4         3         5         6     9      180.000000       -1.679278         4
         4         3         5        32     9        0.000000       -0.221528         1
         4         3         5        32     9      180.000000        8.280138         2
         4         3         5        32     9        0.000000        0.391412         3
         4         3         5        32     9      180.000000       -0.453027         4
         5         3         2        26     9        0.000000       -1.593452         1
         5         3         2        26     9      180.000000       15.395905         2
         5         3         2        26     9        0.000000       -2.490340         3
         5         3         2        26     9      180.000000       -1.636400         4
         5         3         4        31     9        0.000000       -1.962684         1
         5         3         4        31     9      180.000000        6.830553         2
         5         3         4        31     9        0.000000        0.030928         3
         5         3         4        31     9      180.000000       -0.557408         4
         5         3         4        45     9        0.000000       -1.962684         1
         5         3         4        45     9      180.000000        6.830552         2
         5         3         4        45     9        0.000000        0.030928         3
         5         3         4        45     9      180.000000       -0.557408         4
         5         6         7         8     9        0.000000       -0.336105         1
         5         6         7         8     9      180.000000        1.771942         2
         5         6         7         8     9        0.000000        0.090622         3
         5         6         7         8     9      180.000000        0.217295         4
         5         6         7        19     9        0.000000        0.004470         1
         5         6         7        19     9      180.000000        1.744570         2
         5         6         7        19     9        0.000000        0.012016         3
         5         6         7        19     9      180.000000        0.213004         4
         5         6        20        21     9        0.000000       -0.784199         1
         5         6        20        21     9      180.000000        2.039233         2
         5         6        20        21     9        0.000000       -0.017348         3
         5         6        20        21     9      180.000000        0.043237         4
         5         6        20        25     9        0.000000        7.069555         1
         5         6        20        25     9      180.000000       -0.065400         2
         5         6        20        25     9        0.000000        0.039162         3
         5         6        20        25     9      180.000000        0.137103         4
         5         6        26        27     9        0.000000        7.314545         1
         5         6        26        27     9      180.000000        5.624946         2
         5         6        26        27     9        0.000000        0.012079         3
         5         6        26        27     9      180.000000        0.475264         4
         6         7         8         9     9        0.000000        0.178222         1
         6         7         8         9     9      180.000000       15.427947         2
         6         7         8         9     9        0.000000       -0.239803         3
         6         7         8         9     9      180.000000       -0.228097         4
         6         7         8        33     9        0.000000        0.035661         1
         6         7         8        33     9      180.000000       12.622873         2
         6         7         8        33     9        0.000000       -0.346340         3
         6         7         8        33     9      180.000000        0.200898         4
         6         7        19        11     9        0.000000        0.149338         1
         6         7        19        11     9      180.000000       15.093804         2
         6         7        19        11     9        0.000000       -0.151449         3
         6         7        19        11     9      180.000000       -0.307596         4
         6         7        19        40     9        0.000000        0.020273         1
         6         7        19        40     9      180.000000       12.871032         2
         6         7        19        40     9        0.000000       -0.321570         3
         6         7        19        40     9      180.000000        0.176098         4
         6        20        21        22     9        0.000000        0.285509         1
         6        20        21        22     9      180.000000       15.556590         2
         6        20        21        22     9        0.000000       -0.046890         3
         6        20        21        22     9      180.000000       -0.339858         4
         6        20        21        41     9        0.000000        0.161055         1
         6        20        21        41     9      180.000000       11.927055         2
         6        20        21        41     9        0.000000       -0.308863         3
         6        20        21        41     9      180.000000        0.190068         4
         6        20        25        24     9        0.000000        0.387386         1
         6        20        25        24     9      180.000000       26.353279         2
         6        20        25        24     9        0.000000        1.108290         3
         6        20        25        24     9      180.000000       -0.724991         4
         7         6         5        32     9        0.000000        0.968651         1
         7         6         5        32     9      180.000000        0.266552         2
         7         6         5        32     9        0.000000        0.187252         3
         7         6         5        32     9      180.000000        0.044025         4
         7         6        20        21     9        0.000000        0.191476         1
         7         6        20        21     9      180.000000        0.418147         2
         7         6        20        21     9        0.000000       -0.032970         3
         7         6        20        21     9      180.000000        0.112527         4
         7         6        20        25     9        0.000000       -3.063494         1
         7         6        20        25     9      180.000000        1.453230         2
         7         6        20        25     9        0.000000        0.492037         3
         7         6        20        25     9      180.000000        0.011934         4
         7         6        26        27     9        0.000000       -0.904767         1
         7         6        26        27     9      180.000000        1.229826         2
         7         6        26        27     9        0.000000       -0.423908         3
         7         6        26        27     9      180.000000        0.454339         4
         7         8         9        10     9        0.000000        0.169620         1
         7         8         9        10     9      180.000000       18.645310         2
         7         8         9        10     9        0.000000       -1.481472         3
         7         8         9        10     9      180.000000       -0.492777         4
         7         8         9        34     9        0.000000        0.064594         1
         7         8         9        34     9      180.000000       15.149574         2
         7         8         9        34     9        0.000000       -0.598247         3
         7         8         9        34     9      180.000000        0.046673         4
         7        19        11        10     9        0.000000       -0.007751         1
         7        19        11        10     9      180.000000       18.693832         2
         7        19        11        10     9        0.000000       -1.531392         3
         7        19        11        10     9      180.000000       -0.470760         4
         7        19        11        12     9        0.000000        0.348741         1
         7        19        11        12     9      180.000000       17.090675         2
         7        19        11        12     9        0.000000       -0.119097         3
         7        19        11        12     9      180.000000       -0.476805         4
         8         7         6        20     9        0.000000        0.167318         1
         8         7         6        20     9      180.000000        0.416487         2
         8         7         6        20     9        0.000000        0.377083         3
         8         7         6        20     9      180.000000        0.080922         4
         8         7         6        26     9        0.000000        0.012053         1
         8         7         6        26     9      180.000000       -0.682029         2
         8         7         6        26     9        0.000000        0.221580         3
         8         7         6        26     9      180.000000        0.132290         4
         8         7        19        11     9        0.000000       -0.080743         1
         8         7        19        11     9      180.000000       19.165800         2
         8         7        19        11     9        0.000000       -1.610194         3
         8         7        19        11     9      180.000000       -0.508835         4
         8         7        19        40     9        0.000000        0.051970         1
         8         7        19        40     9      180.000000       14.729042         2
         8         7        19        40     9        0.000000       -0.744709         3
         8         7        19        40     9      180.000000        0.007622         4
         8         9        10        11     9        0.000000       -0.041888         1
         8         9        10        11     9      180.000000       18.823399         2
         8         9        10        11     9        0.000000       -1.542635         3
         8         9        10        11     9      180.000000       -0.344177         4
         8         9        10        35     9        0.000000        0.087217         1
         8         9        10        35     9      180.000000       14.654561         2
         8         9        10        35     9        0.000000       -0.741059         3
         8         9        10        35     9      180.000000        0.165183         4
         9         8         7        19     9        0.000000       -0.165200         1
         9         8         7        19     9      180.000000       19.459417         2
         9         8         7        19     9        0.000000       -1.551080         3
         9         8         7        19     9      180.000000       -0.538189         4
         9        10        11        12     9        0.000000        0.228404         1
         9        10        11        12     9      180.000000       16.151012         2
         9        10        11        12     9        0.000000       -0.177361         3
         9        10        11        12     9      180.000000       -0.242162         4
         9        10        11        19     9        0.000000       -0.200863         1
         9        10        11        19     9      180.000000       18.805029         2
         9        10        11        19     9        0.000000       -1.543768         3
         9        10        11        19     9      180.000000       -0.343639         4
        10         9         8        33     9        0.000000        0.069845         1
        10         9         8        33     9      180.000000       14.637458         2
        10         9         8        33     9        0.000000       -0.644384         3
        10         9         8        33     9      180.000000        0.061686         4
        10        11        12        13     9        0.000000       -0.008758         1
        10        11        12        13     9      180.000000        3.328483         2
        10        11        12        13     9        0.000000        0.048681         3
        10        11        12        13     9      180.000000       -0.021265         4
        10        11        12        18     9        0.000000        0.010845         1
        10        11        12        18     9      180.000000        3.331416         2
        10        11        12        18     9        0.000000        0.014007         3
        10        11        12        18     9      180.000000       -0.012287         4
        10        11        19        40     9        0.000000       -0.131683         1
        10        11        19        40     9      180.000000       14.542107         2
        10        11        19        40     9        0.000000       -0.628049         3
        10        11        19        40     9      180.000000       -0.015004         4
        11        10         9        34     9        0.000000       -0.059533         1
        11        10         9        34     9      180.000000       14.722356         2
        11        10         9        34     9        0.000000       -0.604666         3
        11        10         9        34     9      180.000000        0.109532         4
        11        12        13        14     9        0.000000        0.313800         1
        11        12        13        14     9      180.000000       16.368244         2
        11        12        13        14     9        0.000000       -0.081320         3
        11        12        13        14     9      180.000000       -0.284903         4
        11        12        13        36     9        0.000000       -0.065547         1
        11        12        13        36     9      180.000000       13.387425         2
        11        12        13        36     9        0.000000       -0.191366         3
        11        12        13        36     9      180.000000        0.181792         4
        11        12        18        16     9        0.000000        0.236778         1
        11        12        18        16     9      180.000000       16.706311         2
        11        12        18        16     9        0.000000       -0.163819         3
        11        12        18        16     9      180.000000       -0.416585         4
        11        12        18        39     9        0.000000       -0.083664         1
        11        12        18        39     9      180.000000       13.211714         2
        11        12        18        39     9        0.000000       -0.212883         3
        11        12        18        39     9      180.000000        0.209360         4
        12        11        10        35     9        0.000000       -0.104094         1
        12        11        10        35     9      180.000000       13.354281         2
        12        11        10        35     9        0.000000       -0.224137         3
        12        11        10        35     9      180.000000        0.188246         4
        12        11        19        40     9        0.000000       -0.094451         1
        12        11        19        40     9      180.000000       13.387812         2
        12        11        19        40     9        0.000000       -0.144725         3
        12        11        19        40     9      180.000000        0.148612         4
        12        13        14        15     9        0.000000       -0.027105         1
        12        13        14        15     9      180.000000       18.923034         2
        12        13        14        15     9        0.000000       -1.503937         3
        12        13        14        15     9      180.000000       -0.356268         4
        12        13        14        37     9        0.000000       -0.082647         1
        12        13        14        37     9      180.000000       14.805088         2
        12        13        14        37     9        0.000000       -0.643495         3
        12        13        14        37     9      180.000000        0.073654         4
        12        18        16        15     9        0.000000       -0.008240         1
        12        18        16        15     9      180.000000       17.745278         2
        12        18        16        15     9        0.000000       -1.184654         3
        12        18        16        15     9      180.000000       -0.352119         4
        12        18        16        17     9        0.000000        0.356484         1
        12        18        16        17     9      180.000000       19.187195         2
        12        18        16        17     9        0.000000        0.423572         3
        12        18        16        17     9      180.000000       -0.719313         4
        13        12        11        19     9        0.000000        0.047287         1
        13        12        11        19     9      180.000000        3.425977         2
        13        12        11        19     9        0.000000        0.038393         3
        13        12        11        19     9      180.000000       -0.031076         4
        13        12        18        16     9        0.000000       -0.226810         1
        13        12        18        16     9      180.000000       18.460100         2
        13        12        18        16     9        0.000000       -1.564517         3
        13        12        18        16     9      180.000000       -0.363342         4
        13        12        18        39     9        0.000000       -0.081612         1
        13        12        18        39     9      180.000000       14.063211         2
        13        12        18        39     9        0.000000       -0.651845         3
        13        12        18        39     9      180.000000        0.074764         4
        13        14        15        16     9        0.000000       -0.014672         1
        13        14        15        16     9      180.000000       18.658773         2
        13        14        15        16     9        0.000000       -1.423404         3
        13        14        15        16     9      180.000000       -0.430664         4
        13        14        15        38     9        0.000000        0.015297         1
        13        14        15        38     9      180.000000       13.921456         2
        13        14        15        38     9        0.000000       -0.702882         3
        13        14        15        38     9      180.000000        0.159191         4
        14        13        12        18     9        0.000000       -0.178260         1
        14        13        12        18     9      180.000000       18.281466         2
        14        13        12        18     9        0.000000       -1.464057         3
        14        13        12        18     9      180.000000       -0.353057         4
        14        15        16        17     9        0.000000        0.384560         1
        14        15        16        17     9      180.000000       19.125338         2
        14        15        16        17     9        0.000000        0.328218         3
        14        15        16        17     9      180.000000       -0.554486         4
        14        15        16        18     9        0.000000       -0.060650         1
        14        15        16        18     9      180.000000       17.644798         2
        14        15        16        18     9        0.000000       -1.259503         3
        14        15        16        18     9      180.000000       -0.384797         4
        15        14        13        36     9        0.000000        0.073505         1
        15        14        13        36     9      180.000000       14.891523         2
        15        14        13        36     9        0.000000       -0.707692         3
        15        14        13        36     9      180.000000        0.130542         4
        15        16        18        39     9        0.000000        0.006367         1
        15        16        18        39     9      180.000000       13.721602         2
        15        16        18        39     9        0.000000       -0.619973         3
        15        16        18        39     9      180.000000        0.133122         4
        16        15        14        37     9        0.000000        0.036286         1
        16        15        14        37     9      180.000000       14.441092         2
        16        15        14        37     9        0.000000       -0.533853         3
        16        15        14        37     9      180.000000        0.102825         4
        17        16        15        38     9        0.000000        0.203003         1
        17        16        15        38     9      180.000000       13.237178         2
        17        16        15        38     9        0.000000       -0.115367         3
        17        16        15        38     9      180.000000        0.239543         4
        17        16        18        39     9        0.000000        0.138200         1
        17        16        18        39     9      180.000000       13.815334         2
        17        16        18        39     9        0.000000       -0.095173         3
        17        16        18        39     9      180.000000        0.212289         4
        18        12        11        19     9        0.000000        0.087149         1
        18        12        11        19     9      180.000000        3.440057         2
        18        12        11        19     9        0.000000        0.001474         3
        18        12        11        19     9      180.000000       -0.022482         4
        18        12        13        36     9        0.000000       -0.117209         1
        18        12        13        36     9      180.000000       14.303306         2
        18        12        13        36     9        0.000000       -0.626107         3
        18        12        13        36     9      180.000000        0.027459         4
        18        16        15        38     9        0.000000        0.011133         1
        18        16        15        38     9      180.000000       13.432437         2
        18        16        15        38     9        0.000000       -0.533136         3
        18        16        15        38     9      180.000000        0.083311         4
        19         7         6        20     9        0.000000       -0.075986         1
        19         7         6        20     9      180.000000        0.562004         2
        19         7         6        20     9        0.000000        0.333492         3
        19         7         6        20     9      180.000000        0.090681         4
        19         7         6        26     9        0.000000       -0.082461         1
        19         7         6        26     9      180.000000       -0.625341         2
        19         7         6        26     9        0.000000        0.207847         3
        19         7         6        26     9      180.000000        0.110619         4
        19         7         8        33     9        0.000000        0.064197         1
        19         7         8        33     9      180.000000       14.703661         2
        19         7         8        33     9        0.000000       -0.681525         3
        19         7         8        33     9      180.000000       -0.010475         4
        19        11        10        35     9        0.000000       -0.118874         1
        19        11        10        35     9      180.000000       14.663526         2
        19        11        10        35     9        0.000000       -0.683509         3
        19        11        10        35     9      180.000000        0.052588         4
        20         6         5        32     9        0.000000        2.188103         1
        20         6         5        32     9      180.000000       -0.692317         2
        20         6         5        32     9        0.000000        0.245522         3
        20         6         5        32     9      180.000000        0.091959         4
        20         6        26        27     9        0.000000       -0.730090         1
        20         6        26        27     9      180.000000        2.060485         2
        20         6        26        27     9        0.000000       -0.351207         3
        20         6        26        27     9      180.000000        0.462794         4
        20        21        22        23     9        0.000000        0.089297         1
        20        21        22        23     9      180.000000       18.723980         2
        20        21        22        23     9        0.000000       -1.581418         3
        20        21        22        23     9      180.000000       -0.499849         4
        20        21        22        42     9        0.000000        0.097142         1
        20        21        22        42     9      180.000000       14.221087         2
        20        21        22        42     9        0.000000       -0.537403         3
        20        21        22        42     9      180.000000        0.137479         4
        20        25        24        23     9        0.000000        0.219404         1
        20        25        24        23     9      180.000000       23.005500         2
        20        25        24        23     9        0.000000       -0.880096         3
        20        25        24        23     9      180.000000       -0.270340         4
        20        25        24        44     9        0.000000        1.134090         1
        20        25        24        44     9      180.000000       20.561750         2
        20        25        24        44     9        0.000000        0.117508         3
        20        25        24        44     9      180.000000       -0.487271         4
        21        20         6        26     9        0.000000       -1.283959         1
        21        20         6        26     9      180.000000        0.209020         2
        21        20         6        26     9        0.000000       -0.023698         3
        21        20         6        26     9      180.000000        0.139896         4
        21        20        25        24     9        0.000000       -0.018502         1
        21        20        25        24     9      180.000000       25.816511         2
        21        20        25        24     9        0.000000       -1.015976         3
        21        20        25        24     9      180.000000        0.172740         4
        21        22        23        24     9        0.000000        0.022167         1
        21        22        23        24     9      180.000000       18.682452         2
        21        22        23        24     9        0.000000       -1.655410         3
        21        22        23        24     9      180.000000       -0.510004         4
        21        22        23        43     9        0.000000        0.085745         1
        21        22        23        43     9      180.000000       14.731565         2
        21        22        23        43     9        0.000000       -0.691663         3
        21        22        23        43     9      180.000000        0.071337         4
        22        21        20        25     9        0.000000       -0.081225         1
        22        21        20        25     9      180.000000       18.826436         2
        22        21        20        25     9        0.000000       -0.859903         3
        22        21        20        25     9      180.000000       -0.689248         4
        22        23        24        25     9        0.000000       -0.098852         1
        22        23        24        25     9      180.000000       19.087104         2
        22        23        24        25     9        0.000000       -1.092323         3
        22        23        24        25     9      180.000000       -0.535480         4
        22        23        24        44     9        0.000000        0.088463         1
        22        23        24        44     9      180.000000       14.262486         2
        22        23        24        44     9        0.000000       -0.605555         3
        22        23        24        44     9      180.000000        0.090163         4
        23        22        21        41     9        0.000000        0.077796         1
        23        22        21        41     9      180.000000       14.991522         2
        23        22        21        41     9        0.000000       -0.653344         3
        23        22        21        41     9      180.000000        0.063199         4
        24        23        22        42     9        0.000000        0.107843         1
        24        23        22        42     9      180.000000       13.807075         2
        24        23        22        42     9        0.000000       -0.725454         3
        24        23        22        42     9      180.000000        0.205849         4
        25        20         6        26     9        0.000000       -1.922100         1
        25        20         6        26     9      180.000000        0.612555         2
        25        20         6        26     9        0.000000        0.442067         3
        25        20         6        26     9      180.000000        0.031326         4
        25        20        21        41     9        0.000000        0.095114         1
        25        20        21        41     9      180.000000       13.823407         2
        25        20        21        41     9        0.000000       -0.242760         3
        25        20        21        41     9      180.000000       -0.200783         4
        25        24        23        43     9        0.000000        0.025366         1
        25        24        23        43     9      180.000000       13.972068         2
        25        24        23        43     9        0.000000       -0.335686         3
        25        24        23        43     9      180.000000       -0.059435         4
        26         2         1        28     9        0.000000       -0.043805         1
        26         2         1        28     9      180.000000       -0.089400         2
        26         2         1        28     9        0.000000       -0.282265         3
        26         2         1        28     9      180.000000        0.054139         4
        26         2         1        29     9        0.000000       -0.043805         1
        26         2         1        29     9      180.000000       -0.089400         2
        26         2         1        29     9        0.000000       -0.282265         3
        26         2         1        29     9      180.000000        0.054139         4
        26         2         1        30     9        0.000000       -0.043805         1
        26         2         1        30     9      180.000000       -0.089400         2
        26         2         1        30     9        0.000000       -0.282265         3
        26         2         1        30     9      180.000000        0.054139         4
        26         6         5        32     9        0.000000       -0.147296         1
        26         6         5        32     9      180.000000       -1.646872         2
        26         6         5        32     9        0.000000        0.252540         3
        26         6         5        32     9      180.000000        0.334313         4
        33         8         9        34     9        0.000000       -0.111693         1
        33         8         9        34     9      180.000000       11.976232         2
        33         8         9        34     9        0.000000       -0.690702         3
        33         8         9        34     9      180.000000        0.263882         4
        34         9        10        35     9        0.000000       -0.168145         1
        34         9        10        35     9      180.000000       11.942113         2
        34         9        10        35     9        0.000000       -0.731995         3
        34         9        10        35     9      180.000000        0.317910         4
        36        13        14        37     9        0.000000       -0.202412         1
        36        13        14        37     9      180.000000       12.044166         2
        36        13        14        37     9        0.000000       -0.720039         3
        36        13        14        37     9      180.000000        0.322236         4
        37        14        15        38     9        0.000000       -0.177599         1
        37        14        15        38     9      180.000000       11.407348         2
        37        14        15        38     9        0.000000       -0.617575         3
        37        14        15        38     9      180.000000        0.288706         4
        41        21        22        42     9        0.000000       -0.196972         1
        41        21        22        42     9      180.000000       11.796746         2
        41        21        22        42     9        0.000000       -0.670313         3
        41        21        22        42     9      180.000000        0.281399         4
        42        22        23        43     9        0.000000       -0.197605         1
        42        22        23        43     9      180.000000       11.102033         2
        42        22        23        43     9        0.000000       -0.506283         3
        42        22        23        43     9      180.000000        0.223368         4
        43        23        24        44     9        0.000000       -0.064209         1
        43        23        24        44     9      180.000000       11.390239         2
        43        23        24        44     9        0.000000       -0.725083         3
        43        23        24        44     9      180.000000        0.287231         4

[ dihedrals ] ; impropers
;       ai        aj        ak        al funct           phase               k        pn
         3         2         4         5     4      180.000000        8.815423         2
         3         4         5         2     4      180.000000        8.815423         2
         3         5         2         4     4      180.000000        8.815423         2
         9         8        10        34     4      180.000000        0.365691         2
         9        10        34         8     4      180.000000        0.365691         2
         9        34         8        10     4      180.000000        0.365691         2
        22        21        23        42     4      180.000000        1.959327         2
        22        23        42        21     4      180.000000        1.959327         2
        22        42        21        23     4      180.000000        1.959327         2
        24        23        25        44     4      180.000000        7.449989         2
        24        25        44        23     4      180.000000        7.449989         2
        24        44        23        25     4      180.000000        7.449989         2
        26         2         6        27     4      180.000000       25.536976         2
        26         6        27         2     4      180.000000       25.536976         2
        26        27         2         6     4      180.000000       25.536976         2

[ pairs ]
;       ai        aj funct
         1         4     1
         1         5     1
         1         6     1
         1        27     1
         2         7     1
         2        20     1
         2        31     1
         2        32     1
         2        45     1
         3         7     1
         3        20     1
         3        27     1
         3        28     1
         3        29     1
         3        30     1
         4         6     1
         4        26     1
         4        32     1
         5         8     1
         5        19     1
         5        21     1
         5        25     1
         5        27     1
         5        31     1
         5        45     1
         6         9     1
         6        11     1
         6        22     1
         6        24     1
         6        33     1
         6        40     1
         6        41     1
         7        10     1
         7        12     1
         7        21     1
         7        25     1
         7        27     1
         7        32     1
         7        34     1
         8        11     1
         8        20     1
         8        26     1
         8        35     1
         8        40     1
         9        12     1
         9        19     1
        10        13     1
        10        18     1
        10        33     1
        10        40     1
        11        14     1
        11        16     1
        11        34     1
        11        36     1
        11        39     1
        12        15     1
        12        17     1
        12        35     1
        12        37     1
        12        40     1
        13        16     1
        13        19     1
        13        38     1
        13        39     1
        14        17     1
        14        18     1
        15        36     1
        15        39     1
        16        37     1
        17        38     1
        17        39     1
        18        19     1
        18        36     1
        18        38     1
        19        20     1
        19        26     1
        19        33     1
        19        35     1
        20        23     1
        20        27     1
        20        32     1
        20        42     1
        20        44     1
        21        24     1
        21        26     1
        21        43     1
        22        25     1
        22        44     1
        23        41     1
        24        42     1
        25        26     1
        25        41     1
        25        43     1
        26        28     1
        26        29     1
        26        30     1
        26        32     1
        33        34     1
        34        35     1
        36        37     1
        37        38     1
        41        42     1
        42        43     1
        43        44     1
