; ITP file created by ByteFF-ML, 2026-02-21 08:14:49.751387

[ atomtypes ]
;name           bonded.type        at.num        mass        charge   ptype           sigma         epsilon
 c0bf                                   6      0.0000       0.00000       A     3.39898e-01     4.52593e-01
 n1bf                                   7      0.0000       0.00000       A     3.18321e-01     7.03038e-01
 c2bf                                   6      0.0000       0.00000       A     3.31223e-01     4.10380e-01
 n3bf                                   7      0.0000       0.00000       A     3.36731e-01     4.77019e-01
 n4bf                                   7      0.0000       0.00000       A     3.26910e-01     6.40820e-01
 c5bf                                   6      0.0000       0.00000       A     3.39402e-01     4.43779e-01
 c6bf                                   6      0.0000       0.00000       A     3.31461e-01     4.16027e-01
 c7bf                                   6      0.0000       0.00000       A     3.31539e-01     4.13671e-01
 c8bf                                   6      0.0000       0.00000       A     3.31447e-01     4.12981e-01
 c9bf                                   6      0.0000       0.00000       A     3.31508e-01     4.12740e-01
 n10bf                                  7      0.0000       0.00000       A     3.38386e-01     3.93538e-01
 c11bf                                  6      0.0000       0.00000       A     3.31498e-01     4.13677e-01
 c12bf                                  6      0.0000       0.00000       A     3.31600e-01     4.15406e-01
 c13bf                                  6      0.0000       0.00000       A     3.31511e-01     4.14036e-01
 c14bf                                  6      0.0000       0.00000       A     3.31491e-01     4.13364e-01
 c15bf                                  6      0.0000       0.00000       A     3.31500e-01     4.12376e-01
 c16bf                                  6      0.0000       0.00000       A     3.31412e-01     4.12298e-01
 c17bf                                  6      0.0000       0.00000       A     3.31338e-01     4.14041e-01
 c18bf                                  6      0.0000       0.00000       A     3.31495e-01     4.12332e-01
 c19bf                                  6      0.0000       0.00000       A     3.31470e-01     4.12993e-01
 c20bf                                  6      0.0000       0.00000       A     3.31492e-01     4.12697e-01
 c21bf                                  6      0.0000       0.00000       A     3.31464e-01     4.12774e-01
 cl22bf                                17      0.0000       0.00000       A     3.46727e-01     1.10410e+00
 c23bf                                  6      0.0000       0.00000       A     3.31525e-01     4.12943e-01
 c24bf                                  6      0.0000       0.00000       A     3.31605e-01     4.15034e-01
 c25bf                                  6      0.0000       0.00000       A     3.31451e-01     4.16550e-01
 o26bf                                  8      0.0000       0.00000       A     3.04556e-01     6.16025e-01
 h27bf                                  1      0.0000       0.00000       A     2.42205e-01     8.61909e-02
 h28bf                                  1      0.0000       0.00000       A     2.42205e-01     8.61909e-02
 h29bf                                  1      0.0000       0.00000       A     2.42205e-01     8.61909e-02
 h30bf                                  1      0.0000       0.00000       A     1.10384e-01     3.90095e-02
 h31bf                                  1      0.0000       0.00000       A     1.10491e-01     4.02241e-02
 h32bf                                  1      0.0000       0.00000       A     2.62551e-01     6.75233e-02
 h33bf                                  1      0.0000       0.00000       A     2.62495e-01     6.73589e-02
 h34bf                                  1      0.0000       0.00000       A     2.53706e-01     6.70365e-02
 h35bf                                  1      0.0000       0.00000       A     2.53713e-01     6.73860e-02
 h36bf                                  1      0.0000       0.00000       A     2.62565e-01     6.77340e-02
 h37bf                                  1      0.0000       0.00000       A     2.62513e-01     6.74259e-02
 h38bf                                  1      0.0000       0.00000       A     2.62472e-01     6.74738e-02
 h39bf                                  1      0.0000       0.00000       A     2.62472e-01     6.74738e-02
 h40bf                                  1      0.0000       0.00000       A     2.62502e-01     6.73461e-02
 h41bf                                  1      0.0000       0.00000       A     2.62496e-01     6.71211e-02
 h42bf                                  1      0.0000       0.00000       A     2.62435e-01     6.74259e-02
 h43bf                                  1      0.0000       0.00000       A     2.62568e-01     6.76574e-02
 h44bf                                  1      0.0000       0.00000       A     1.10384e-01     3.90095e-02

[ moleculetype ]
;name             nrexcl
 CAT-13k               3

[ atoms ]
;       nr            type      resi   res      atom      cgnr      charge          mass ; qtot
         1            c0bf         1   UNL        c0         1     0.07241       12.0110 ; qtot    0.072
         2            n1bf         1   UNL        n1         2    -0.59225       14.0070 ; qtot   -0.520
         3            c2bf         1   UNL        c2         3     0.93639       12.0110 ; qtot    0.417
         4            n3bf         1   UNL        n3         4    -0.58908       14.0070 ; qtot   -0.173
         5            n4bf         1   UNL        n4         5    -0.61614       14.0070 ; qtot   -0.789
         6            c5bf         1   UNL        c5         6     0.14660       12.0110 ; qtot   -0.642
         7            c6bf         1   UNL        c6         7    -0.18883       12.0110 ; qtot   -0.831
         8            c7bf         1   UNL        c7         8    -0.03844       12.0110 ; qtot   -0.869
         9            c8bf         1   UNL        c8         9    -0.15467       12.0110 ; qtot   -1.024
        10            c9bf         1   UNL        c9        10     0.34545       12.0110 ; qtot   -0.679
        11           n10bf         1   UNL       n10        11    -0.64249       14.0070 ; qtot   -1.321
        12           c11bf         1   UNL       c11        12     0.36344       12.0110 ; qtot   -0.958
        13           c12bf         1   UNL       c12        13    -0.12981       12.0110 ; qtot   -1.087
        14           c13bf         1   UNL       c13        14    -0.07144       12.0110 ; qtot   -1.159
        15           c14bf         1   UNL       c14        15    -0.09730       12.0110 ; qtot   -1.256
        16           c15bf         1   UNL       c15        16    -0.09314       12.0110 ; qtot   -1.349
        17           c16bf         1   UNL       c16        17    -0.02925       12.0110 ; qtot   -1.379
        18           c17bf         1   UNL       c17        18    -0.02656       12.0110 ; qtot   -1.405
        19           c18bf         1   UNL       c18        19    -0.10326       12.0110 ; qtot   -1.508
        20           c19bf         1   UNL       c19        20    -0.10402       12.0110 ; qtot   -1.612
        21           c20bf         1   UNL       c20        21    -0.09512       12.0110 ; qtot   -1.708
        22           c21bf         1   UNL       c21        22     0.12011       12.0110 ; qtot   -1.587
        23          cl22bf         1   UNL      cl22        23    -0.20970       35.4530 ; qtot   -1.797
        24           c23bf         1   UNL       c23        24    -0.09584       12.0110 ; qtot   -1.893
        25           c24bf         1   UNL       c24        25    -0.05899       12.0110 ; qtot   -1.952
        26           c25bf         1   UNL       c25        26     0.55481       12.0110 ; qtot   -1.397
        27           o26bf         1   UNL       o26        27    -0.38580       15.9990 ; qtot   -1.783
        28           h27bf         1   UNL       h27        28     0.08958        1.0080 ; qtot   -1.693
        29           h28bf         1   UNL       h28        29     0.08958        1.0080 ; qtot   -1.604
        30           h29bf         1   UNL       h29        30     0.08958        1.0080 ; qtot   -1.514
        31           h30bf         1   UNL       h30        31     0.38417        1.0080 ; qtot   -1.130
        32           h31bf         1   UNL       h31        32     0.41391        1.0080 ; qtot   -0.716
        33           h32bf         1   UNL       h32        33     0.13555        1.0080 ; qtot   -0.581
        34           h33bf         1   UNL       h33        34     0.13069        1.0080 ; qtot   -0.450
        35           h34bf         1   UNL       h34        35     0.02165        1.0080 ; qtot   -0.428
        36           h35bf         1   UNL       h35        36     0.03536        1.0080 ; qtot   -0.393
        37           h36bf         1   UNL       h36        37     0.12975        1.0080 ; qtot   -0.263
        38           h37bf         1   UNL       h37        38     0.12026        1.0080 ; qtot   -0.143
        39           h38bf         1   UNL       h38        39     0.11650        1.0080 ; qtot   -0.026
        40           h39bf         1   UNL       h39        40     0.11993        1.0080 ; qtot    0.094
        41           h40bf         1   UNL       h40        41     0.12261        1.0080 ; qtot    0.216
        42           h41bf         1   UNL       h41        42     0.13516        1.0080 ; qtot    0.351
        43           h42bf         1   UNL       h42        43     0.13341        1.0080 ; qtot    0.485
        44           h43bf         1   UNL       h43        44     0.13108        1.0080 ; qtot    0.616
        45           h44bf         1   UNL       h44        45     0.38415        1.0080 ; qtot    1.000

[ bonds ]
;       ai        aj funct               r               k
         1         2     1        0.146770   194545.402100
         1        28     1        0.109019   312430.214990
         1        29     1        0.109019   312430.214990
         1        30     1        0.109019   312430.214990
         2         3     1        0.135571   306128.141602
         2        26     1        0.142383   149773.307812
         3         4     1        0.133057   418437.999219
         3         5     1        0.133393   384925.752734
         4        31     1        0.101331   425032.293750
         4        45     1        0.101331   425032.293750
         5         6     1        0.148784   141404.260791
         5        32     1        0.101329   425244.021924
         6         7     1        0.152064   170364.198315
         6        13     1        0.152330   165395.583398
         6        26     1        0.154856   123806.306738
         7         8     1        0.140019   295606.418408
         7        12     1        0.140219   279586.657715
         8         9     1        0.139403   322994.917139
         8        33     1        0.108592   320378.870117
         9        10     1        0.139873   293672.212207
         9        34     1        0.108538   323533.035107
        10        11     1        0.134002   314299.046191
        10        35     1        0.108819   315185.081738
        11        12     1        0.133675   327063.029736
        12        36     1        0.108827   314657.893652
        13        14     1        0.140097   293003.471924
        13        25     1        0.139914   296414.591309
        14        15     1        0.139662   313971.788135
        14        37     1        0.108548   320727.094141
        15        16     1        0.139603   315551.360498
        15        38     1        0.108615   320003.653369
        16        17     1        0.140533   285700.343848
        16        39     1        0.108587   318592.753613
        17        18     1        0.148300   214212.181226
        17        25     1        0.140379   287204.990332
        18        19     1        0.140642   283730.615527
        18        24     1        0.140548   284644.231152
        19        20     1        0.139639   316467.197852
        19        40     1        0.108557   319942.849512
        20        21     1        0.139818   306197.015186
        20        41     1        0.108593   321221.901172
        21        22     1        0.139667   296743.100684
        21        42     1        0.108450   326068.844531
        22        23     1        0.175898   146278.069189
        22        24     1        0.139434   307507.503027
        24        43     1        0.108450   323511.456250
        25        44     1        0.108523   319792.691309
        26        27     1        0.120318   721689.845117

[ angles ]
;       ai        aj        ak funct           theta             cth
         1         2         3     1      126.578964      468.028818
         1         2        26     1      123.191383      536.299344
         2         1        28     1      109.237282      484.028775
         2         1        29     1      109.237282      484.028775
         2         1        30     1      109.237282      484.028775
         2         3         4     1      123.852600      626.812755
         2         3         5     1      111.296280      588.999702
         2        26         6     1      106.260864      167.360000
         2        26        27     1      124.745468      645.585914
         3         2        26     1      109.843277      841.759945
         3         4        31     1      121.296143      450.934533
         3         4        45     1      121.296143      450.934469
         3         5         6     1      111.991959      629.896425
         3         5        32     1      123.610497      427.055069
         4         3         5     1      125.359230      617.694730
         5         6         7     1      110.959900      598.327131
         5         6        13     1      110.877808      596.572667
         5         6        26     1      100.291153      339.613325
         6         5        32     1      120.820755      368.423302
         6         7         8     1      121.088989      479.230161
         6         7        12     1      120.633751      515.909941
         6        13        14     1      120.062088      485.674706
         6        13        25     1      119.847702      444.879237
         6        26        27     1      127.779190      360.953666
         7         6        13     1      114.498703      490.397092
         7         6        26     1      111.002182      590.450146
         7         8         9     1      118.770226      748.492867
         7         8        33     1      120.747253      395.703479
         7        12        11     1      123.822105      702.300897
         7        12        36     1      120.457016      377.637730
         8         7        12     1      117.882034      715.100607
         8         9        10     1      118.559715      785.182798
         8         9        34     1      121.059326      426.430048
         9         8        33     1      120.314354      426.614362
         9        10        11     1      123.222092      716.572694
         9        10        35     1      120.581139      410.515226
        10         9        34     1      120.313988      444.615822
        10        11        12     1      117.475853      741.770096
        11        10        35     1      116.167114      358.377642
        11        12        36     1      115.703224      351.159546
        13         6        26     1      111.247681      601.705243
        13        14        15     1      119.657242      676.147194
        13        14        37     1      120.441025      402.151599
        13        25        17     1      121.121803      666.064505
        13        25        44     1      119.828323      401.995057
        14        13        25     1      119.693459      692.644294
        14        15        16     1      120.366478      724.982830
        14        15        38     1      119.830856      430.852405
        15        14        37     1      119.808311      423.195678
        15        16        17     1      120.453354      706.439696
        15        16        39     1      119.753372      429.073682
        16        15        38     1      119.786987      435.444935
        16        17        18     1      120.861000      512.433095
        16        17        25     1      118.328903      672.300475
        17        16        39     1      119.763222      426.773171
        17        18        19     1      120.944702      503.301695
        17        18        24     1      120.427002      481.644279
        17        25        44     1      119.055099      415.811622
        18        17        25     1      120.846756      422.900564
        18        19        20     1      120.709496      710.226339
        18        19        40     1      119.625290      429.265114
        18        24        22     1      119.954468      654.295153
        18        24        43     1      120.525940      413.949137
        19        18        24     1      118.518814      610.093928
        19        20        21     1      120.716507      706.259915
        19        20        41     1      119.854904      434.295574
        20        19        40     1      119.665443      434.119208
        20        21        22     1      118.458839      608.116654
        20        21        42     1      121.243332      419.806776
        21        20        41     1      119.403748      439.510603
        21        22        23     1      119.263084      362.742700
        21        22        24     1      121.578903      646.790244
        22        21        42     1      120.373581      408.925573
        22        24        43     1      119.578125      413.311731
        23        22        24     1      119.060081      368.288083
        28         1        29     1      109.825012      349.354041
        28         1        30     1      109.825012      349.354041
        29         1        30     1      109.825012      349.354041
        31         4        45     1      117.458168      314.236876

[ dihedrals ] ; propers for gromacs 4.5 or higher, use funct 9
;       ai        aj        ak        al funct           phase               k        pn
         1         2         3         4     9        0.000000        1.750031         1
         1         2         3         4     9      180.000000        7.527046         2
         1         2         3         4     9        0.000000       -0.053234         3
         1         2         3         4     9      180.000000       -0.107064         4
         1         2         3         5     9        0.000000       -2.821825         1
         1         2         3         5     9      180.000000        5.754315         2
         1         2         3         5     9        0.000000       -0.198189         3
         1         2         3         5     9      180.000000        0.057999         4
         1         2        26         6     9        0.000000       -0.573544         1
         1         2        26         6     9      180.000000        5.589434         2
         1         2        26         6     9        0.000000        0.143689         3
         1         2        26         6     9      180.000000       -0.156288         4
         1         2        26        27     9        0.000000       -0.463837         1
         1         2        26        27     9      180.000000        9.253340         2
         1         2        26        27     9        0.000000       -0.326665         3
         1         2        26        27     9      180.000000        0.294481         4
         2         3         4        31     9        0.000000       -0.736374         1
         2         3         4        31     9      180.000000        6.300565         2
         2         3         4        31     9        0.000000        0.313029         3
         2         3         4        31     9      180.000000       -0.635641         4
         2         3         4        45     9        0.000000       -0.736375         1
         2         3         4        45     9      180.000000        6.300565         2
         2         3         4        45     9        0.000000        0.313029         3
         2         3         4        45     9      180.000000       -0.635641         4
         2         3         5         6     9        0.000000       -1.505465         1
         2         3         5         6     9      180.000000       21.810184         2
         2         3         5         6     9        0.000000       -1.440868         3
         2         3         5         6     9      180.000000       -2.618404         4
         2         3         5        32     9        0.000000       -0.640369         1
         2         3         5        32     9      180.000000        8.815512         2
         2         3         5        32     9        0.000000        0.088907         3
         2         3         5        32     9      180.000000       -0.869528         4
         2        26         6         5     9        0.000000        0.405157         1
         2        26         6         5     9      180.000000        8.128237         2
         2        26         6         5     9        0.000000       -0.164197         3
         2        26         6         5     9      180.000000       -0.424130         4
         2        26         6         7     9        0.000000        0.629496         1
         2        26         6         7     9      180.000000        0.797831         2
         2        26         6         7     9        0.000000        0.345110         3
         2        26         6         7     9      180.000000        0.736971         4
         2        26         6        13     9        0.000000        0.562920         1
         2        26         6        13     9      180.000000        0.443306         2
         2        26         6        13     9        0.000000        0.328734         3
         2        26         6        13     9      180.000000        0.819883         4
         3         2         1        28     9        0.000000        0.021130         1
         3         2         1        28     9      180.000000        0.000117         2
         3         2         1        28     9        0.000000        0.183870         3
         3         2         1        28     9      180.000000       -0.015824         4
         3         2         1        29     9        0.000000        0.021130         1
         3         2         1        29     9      180.000000        0.000117         2
         3         2         1        29     9        0.000000        0.183870         3
         3         2         1        29     9      180.000000       -0.015824         4
         3         2         1        30     9        0.000000        0.021130         1
         3         2         1        30     9      180.000000        0.000117         2
         3         2         1        30     9        0.000000        0.183870         3
         3         2         1        30     9      180.000000       -0.015824         4
         3         2        26         6     9        0.000000       -2.866148         1
         3         2        26         6     9      180.000000       10.956691         2
         3         2        26         6     9        0.000000       -1.455635         3
         3         2        26         6     9      180.000000       -0.309764         4
         3         2        26        27     9        0.000000        1.920660         1
         3         2        26        27     9      180.000000       16.862395         2
         3         2        26        27     9        0.000000       -0.510602         3
         3         2        26        27     9      180.000000       -0.825025         4
         3         5         6         7     9        0.000000       -0.165114         1
         3         5         6         7     9      180.000000        0.673159         2
         3         5         6         7     9        0.000000        0.291014         3
         3         5         6         7     9      180.000000        0.217490         4
         3         5         6        13     9        0.000000        0.363771         1
         3         5         6        13     9      180.000000        0.638664         2
         3         5         6        13     9        0.000000        0.262965         3
         3         5         6        13     9      180.000000        0.243645         4
         3         5         6        26     9        0.000000       -2.310436         1
         3         5         6        26     9      180.000000        6.634499         2
         3         5         6        26     9        0.000000       -0.402883         3
         3         5         6        26     9      180.000000       -1.643641         4
         4         3         2        26     9        0.000000        1.374429         1
         4         3         2        26     9      180.000000       12.982685         2
         4         3         2        26     9        0.000000       -0.237080         3
         4         3         2        26     9      180.000000       -0.774317         4
         4         3         5         6     9        0.000000        1.966782         1
         4         3         5         6     9      180.000000       17.131690         2
         4         3         5         6     9        0.000000        0.763303         3
         4         3         5         6     9      180.000000       -1.866512         4
         4         3         5        32     9        0.000000       -0.599451         1
         4         3         5        32     9      180.000000        8.005502         2
         4         3         5        32     9        0.000000        0.472905         3
         4         3         5        32     9      180.000000       -0.468646         4
         5         3         2        26     9        0.000000       -1.586601         1
         5         3         2        26     9      180.000000       14.861776         2
         5         3         2        26     9        0.000000       -2.778101         3
         5         3         2        26     9      180.000000       -1.333780         4
         5         3         4        31     9        0.000000       -1.590338         1
         5         3         4        31     9      180.000000        6.650286         2
         5         3         4        31     9        0.000000        0.019534         3
         5         3         4        31     9      180.000000       -0.513651         4
         5         3         4        45     9        0.000000       -1.590337         1
         5         3         4        45     9      180.000000        6.650287         2
         5         3         4        45     9        0.000000        0.019534         3
         5         3         4        45     9      180.000000       -0.513651         4
         5         6         7         8     9        0.000000       -0.041850         1
         5         6         7         8     9      180.000000        1.060777         2
         5         6         7         8     9        0.000000        0.120242         3
         5         6         7         8     9      180.000000        0.173806         4
         5         6         7        12     9        0.000000       -1.376808         1
         5         6         7        12     9      180.000000        0.645881         2
         5         6         7        12     9        0.000000        0.131110         3
         5         6         7        12     9      180.000000        0.186827         4
         5         6        13        14     9        0.000000       -0.356062         1
         5         6        13        14     9      180.000000        1.321339         2
         5         6        13        14     9        0.000000        0.138012         3
         5         6        13        14     9      180.000000        0.203367         4
         5         6        13        25     9        0.000000       -0.186304         1
         5         6        13        25     9      180.000000        1.378642         2
         5         6        13        25     9        0.000000        0.059610         3
         5         6        13        25     9      180.000000        0.206478         4
         5         6        26        27     9        0.000000        6.537404         1
         5         6        26        27     9      180.000000        4.952024         2
         5         6        26        27     9        0.000000        0.121835         3
         5         6        26        27     9      180.000000        0.373373         4
         6         7         8         9     9        0.000000        0.077486         1
         6         7         8         9     9      180.000000       14.686339         2
         6         7         8         9     9        0.000000       -0.213178         3
         6         7         8         9     9      180.000000       -0.183862         4
         6         7         8        33     9        0.000000       -0.045881         1
         6         7         8        33     9      180.000000       12.091928         2
         6         7         8        33     9        0.000000       -0.317141         3
         6         7         8        33     9      180.000000        0.223882         4
         6         7        12        11     9        0.000000        0.028233         1
         6         7        12        11     9      180.000000       13.683800         2
         6         7        12        11     9        0.000000       -0.044938         3
         6         7        12        11     9      180.000000       -0.380000         4
         6         7        12        36     9        0.000000        0.039706         1
         6         7        12        36     9      180.000000       11.701580         2
         6         7        12        36     9        0.000000       -0.229794         3
         6         7        12        36     9      180.000000        0.190747         4
         6        13        14        15     9        0.000000        0.175997         1
         6        13        14        15     9      180.000000       14.991531         2
         6        13        14        15     9        0.000000       -0.208668         3
         6        13        14        15     9      180.000000       -0.204566         4
         6        13        14        37     9        0.000000       -0.023566         1
         6        13        14        37     9      180.000000       12.561414         2
         6        13        14        37     9        0.000000       -0.324869         3
         6        13        14        37     9      180.000000        0.187941         4
         6        13        25        17     9        0.000000        0.166785         1
         6        13        25        17     9      180.000000       14.722538         2
         6        13        25        17     9        0.000000       -0.121893         3
         6        13        25        17     9      180.000000       -0.238625         4
         6        13        25        44     9        0.000000       -0.012081         1
         6        13        25        44     9      180.000000       12.767997         2
         6        13        25        44     9        0.000000       -0.300230         3
         6        13        25        44     9      180.000000        0.174844         4
         7         6         5        32     9        0.000000        0.248130         1
         7         6         5        32     9      180.000000        0.600192         2
         7         6         5        32     9        0.000000        0.188364         3
         7         6         5        32     9      180.000000       -0.023868         4
         7         6        13        14     9        0.000000       -0.021323         1
         7         6        13        14     9      180.000000        0.669507         2
         7         6        13        14     9        0.000000        0.165494         3
         7         6        13        14     9      180.000000        0.082525         4
         7         6        13        25     9        0.000000       -0.140775         1
         7         6        13        25     9      180.000000        0.745940         2
         7         6        13        25     9        0.000000        0.123606         3
         7         6        13        25     9      180.000000        0.061479         4
         7         6        26        27     9        0.000000       -0.203482         1
         7         6        26        27     9      180.000000        1.078787         2
         7         6        26        27     9        0.000000       -0.389209         3
         7         6        26        27     9      180.000000        0.388346         4
         7         8         9        10     9        0.000000        0.071683         1
         7         8         9        10     9      180.000000       18.612215         2
         7         8         9        10     9        0.000000       -1.724337         3
         7         8         9        10     9      180.000000       -0.493236         4
         7         8         9        34     9        0.000000        0.001374         1
         7         8         9        34     9      180.000000       15.561575         2
         7         8         9        34     9        0.000000       -0.604172         3
         7         8         9        34     9      180.000000        0.032167         4
         7        12        11        10     9        0.000000        0.249623         1
         7        12        11        10     9      180.000000       23.508280         2
         7        12        11        10     9        0.000000       -1.034598         3
         7        12        11        10     9      180.000000       -0.117046         4
         8         7         6        13     9        0.000000       -0.014455         1
         8         7         6        13     9      180.000000        0.252963         2
         8         7         6        13     9        0.000000        0.193934         3
         8         7         6        13     9      180.000000        0.086422         4
         8         7         6        26     9        0.000000       -0.508624         1
         8         7         6        26     9      180.000000       -0.654099         2
         8         7         6        26     9        0.000000        0.154997         3
         8         7         6        26     9      180.000000        0.139724         4
         8         7        12        11     9        0.000000       -0.026338         1
         8         7        12        11     9      180.000000       17.758648         2
         8         7        12        11     9        0.000000       -0.820587         3
         8         7        12        11     9      180.000000       -0.480555         4
         8         7        12        36     9        0.000000        0.050506         1
         8         7        12        36     9      180.000000       13.464658         2
         8         7        12        36     9        0.000000       -0.416249         3
         8         7        12        36     9      180.000000        0.082147         4
         8         9        10        11     9        0.000000       -0.053319         1
         8         9        10        11     9      180.000000       18.005753         2
         8         9        10        11     9        0.000000       -0.936830         3
         8         9        10        11     9      180.000000       -0.406773         4
         8         9        10        35     9        0.000000        0.084989         1
         8         9        10        35     9      180.000000       13.988459         2
         8         9        10        35     9        0.000000       -0.620397         3
         8         9        10        35     9      180.000000        0.094722         4
         9         8         7        12     9        0.000000       -0.081248         1
         9         8         7        12     9      180.000000       18.542850         2
         9         8         7        12     9        0.000000       -1.541680         3
         9         8         7        12     9      180.000000       -0.486281         4
         9        10        11        12     9        0.000000        0.164871         1
         9        10        11        12     9      180.000000       22.155276         2
         9        10        11        12     9        0.000000       -0.806753         3
         9        10        11        12     9      180.000000       -0.077960         4
        10         9         8        33     9        0.000000        0.099769         1
        10         9         8        33     9      180.000000       14.754597         2
        10         9         8        33     9        0.000000       -0.663758         3
        10         9         8        33     9      180.000000        0.113846         4
        10        11        12        36     9        0.000000        0.996559         1
        10        11        12        36     9      180.000000       21.167798         2
        10        11        12        36     9        0.000000        0.240067         3
        10        11        12        36     9      180.000000       -0.335759         4
        11        10         9        34     9        0.000000       -0.056521         1
        11        10         9        34     9      180.000000       13.814660         2
        11        10         9        34     9        0.000000       -0.371912         3
        11        10         9        34     9      180.000000       -0.018497         4
        12         7         6        13     9        0.000000        0.066279         1
        12         7         6        13     9      180.000000        0.054864         2
        12         7         6        13     9        0.000000        0.073474         3
        12         7         6        13     9      180.000000        0.076029         4
        12         7         6        26     9        0.000000        0.929117         1
        12         7         6        26     9      180.000000       -0.866313         2
        12         7         6        26     9        0.000000        0.102569         3
        12         7         6        26     9      180.000000        0.152434         4
        12         7         8        33     9        0.000000       -0.004957         1
        12         7         8        33     9      180.000000       13.691586         2
        12         7         8        33     9        0.000000       -0.784359         3
        12         7         8        33     9      180.000000        0.131887         4
        12        11        10        35     9        0.000000        1.058700         1
        12        11        10        35     9      180.000000       20.671378         2
        12        11        10        35     9        0.000000        0.108550         3
        12        11        10        35     9      180.000000       -0.378112         4
        13         6         5        32     9        0.000000        0.865905         1
        13         6         5        32     9      180.000000        0.640863         2
        13         6         5        32     9        0.000000        0.139052         3
        13         6         5        32     9      180.000000       -0.015868         4
        13         6        26        27     9        0.000000       -0.975385         1
        13         6        26        27     9      180.000000        1.082124         2
        13         6        26        27     9        0.000000       -0.347656         3
        13         6        26        27     9      180.000000        0.399887         4
        13        14        15        16     9        0.000000        0.135453         1
        13        14        15        16     9      180.000000       18.652109         2
        13        14        15        16     9        0.000000       -1.466723         3
        13        14        15        16     9      180.000000       -0.481529         4
        13        14        15        38     9        0.000000        0.068433         1
        13        14        15        38     9      180.000000       15.118358         2
        13        14        15        38     9        0.000000       -0.542987         3
        13        14        15        38     9      180.000000        0.066573         4
        13        25        17        16     9        0.000000       -0.057267         1
        13        25        17        16     9      180.000000       18.769861         2
        13        25        17        16     9        0.000000       -1.536924         3
        13        25        17        16     9      180.000000       -0.488052         4
        13        25        17        18     9        0.000000        0.284738         1
        13        25        17        18     9      180.000000       16.984945         2
        13        25        17        18     9        0.000000       -0.136866         3
        13        25        17        18     9      180.000000       -0.429946         4
        14        13         6        26     9        0.000000       -0.325332         1
        14        13         6        26     9      180.000000       -0.594088         2
        14        13         6        26     9        0.000000        0.175462         3
        14        13         6        26     9      180.000000        0.157174         4
        14        13        25        17     9        0.000000       -0.080224         1
        14        13        25        17     9      180.000000       19.110377         2
        14        13        25        17     9        0.000000       -1.503148         3
        14        13        25        17     9      180.000000       -0.489141         4
        14        13        25        44     9        0.000000        0.035442         1
        14        13        25        44     9      180.000000       14.618266         2
        14        13        25        44     9        0.000000       -0.720179         3
        14        13        25        44     9      180.000000        0.016724         4
        14        15        16        17     9        0.000000       -0.041740         1
        14        15        16        17     9      180.000000       18.766264         2
        14        15        16        17     9        0.000000       -1.517102         3
        14        15        16        17     9      180.000000       -0.333800         4
        14        15        16        39     9        0.000000        0.067934         1
        14        15        16        39     9      180.000000       14.604295         2
        14        15        16        39     9        0.000000       -0.730545         3
        14        15        16        39     9      180.000000        0.161582         4
        15        14        13        25     9        0.000000       -0.167489         1
        15        14        13        25     9      180.000000       19.287379         2
        15        14        13        25     9        0.000000       -1.468555         3
        15        14        13        25     9      180.000000       -0.500322         4
        15        16        17        18     9        0.000000        0.228404         1
        15        16        17        18     9      180.000000       16.151012         2
        15        16        17        18     9        0.000000       -0.177361         3
        15        16        17        18     9      180.000000       -0.242162         4
        15        16        17        25     9        0.000000       -0.197976         1
        15        16        17        25     9      180.000000       18.714466         2
        15        16        17        25     9        0.000000       -1.522548         3
        15        16        17        25     9      180.000000       -0.335433         4
        16        15        14        37     9        0.000000        0.071117         1
        16        15        14        37     9      180.000000       14.622252         2
        16        15        14        37     9        0.000000       -0.650862         3
        16        15        14        37     9      180.000000        0.076402         4
        16        17        18        19     9        0.000000       -0.008758         1
        16        17        18        19     9      180.000000        3.328483         2
        16        17        18        19     9        0.000000        0.048681         3
        16        17        18        19     9      180.000000       -0.021265         4
        16        17        18        24     9        0.000000        0.010845         1
        16        17        18        24     9      180.000000        3.331417         2
        16        17        18        24     9        0.000000        0.014007         3
        16        17        18        24     9      180.000000       -0.012287         4
        16        17        25        44     9        0.000000       -0.128823         1
        16        17        25        44     9      180.000000       14.590369         2
        16        17        25        44     9        0.000000       -0.630021         3
        16        17        25        44     9      180.000000       -0.013234         4
        17        16        15        38     9        0.000000       -0.059533         1
        17        16        15        38     9      180.000000       14.722356         2
        17        16        15        38     9        0.000000       -0.604667         3
        17        16        15        38     9      180.000000        0.109532         4
        17        18        19        20     9        0.000000        0.313800         1
        17        18        19        20     9      180.000000       16.368244         2
        17        18        19        20     9        0.000000       -0.081320         3
        17        18        19        20     9      180.000000       -0.284903         4
        17        18        19        40     9        0.000000       -0.065547         1
        17        18        19        40     9      180.000000       13.387425         2
        17        18        19        40     9        0.000000       -0.191366         3
        17        18        19        40     9      180.000000        0.181792         4
        17        18        24        22     9        0.000000        0.236779         1
        17        18        24        22     9      180.000000       16.706310         2
        17        18        24        22     9        0.000000       -0.163819         3
        17        18        24        22     9      180.000000       -0.416584         4
        17        18        24        43     9        0.000000       -0.083665         1
        17        18        24        43     9      180.000000       13.211713         2
        17        18        24        43     9        0.000000       -0.212883         3
        17        18        24        43     9      180.000000        0.209360         4
        18        17        16        39     9        0.000000       -0.104094         1
        18        17        16        39     9      180.000000       13.354281         2
        18        17        16        39     9        0.000000       -0.224137         3
        18        17        16        39     9      180.000000        0.188246         4
        18        17        25        44     9        0.000000       -0.090761         1
        18        17        25        44     9      180.000000       13.393370         2
        18        17        25        44     9        0.000000       -0.150062         3
        18        17        25        44     9      180.000000        0.156567         4
        18        19        20        21     9        0.000000       -0.027105         1
        18        19        20        21     9      180.000000       18.923034         2
        18        19        20        21     9        0.000000       -1.503937         3
        18        19        20        21     9      180.000000       -0.356268         4
        18        19        20        41     9        0.000000       -0.082647         1
        18        19        20        41     9      180.000000       14.805088         2
        18        19        20        41     9        0.000000       -0.643495         3
        18        19        20        41     9      180.000000        0.073654         4
        18        24        22        21     9        0.000000       -0.008240         1
        18        24        22        21     9      180.000000       17.745280         2
        18        24        22        21     9        0.000000       -1.184654         3
        18        24        22        21     9      180.000000       -0.352119         4
        18        24        22        23     9        0.000000        0.356485         1
        18        24        22        23     9      180.000000       19.187199         2
        18        24        22        23     9        0.000000        0.423572         3
        18        24        22        23     9      180.000000       -0.719313         4
        19        18        17        25     9        0.000000        0.029204         1
        19        18        17        25     9      180.000000        3.427147         2
        19        18        17        25     9        0.000000        0.041242         3
        19        18        17        25     9      180.000000       -0.025771         4
        19        18        24        22     9        0.000000       -0.226810         1
        19        18        24        22     9      180.000000       18.460098         2
        19        18        24        22     9        0.000000       -1.564516         3
        19        18        24        22     9      180.000000       -0.363342         4
        19        18        24        43     9        0.000000       -0.081612         1
        19        18        24        43     9      180.000000       14.063206         2
        19        18        24        43     9        0.000000       -0.651845         3
        19        18        24        43     9      180.000000        0.074764         4
        19        20        21        22     9        0.000000       -0.014672         1
        19        20        21        22     9      180.000000       18.658773         2
        19        20        21        22     9        0.000000       -1.423404         3
        19        20        21        22     9      180.000000       -0.430664         4
        19        20        21        42     9        0.000000        0.015297         1
        19        20        21        42     9      180.000000       13.921456         2
        19        20        21        42     9        0.000000       -0.702882         3
        19        20        21        42     9      180.000000        0.159191         4
        20        19        18        24     9        0.000000       -0.178260         1
        20        19        18        24     9      180.000000       18.281468         2
        20        19        18        24     9        0.000000       -1.464057         3
        20        19        18        24     9      180.000000       -0.353057         4
        20        21        22        23     9        0.000000        0.384560         1
        20        21        22        23     9      180.000000       19.125338         2
        20        21        22        23     9        0.000000        0.328218         3
        20        21        22        23     9      180.000000       -0.554486         4
        20        21        22        24     9        0.000000       -0.060651         1
        20        21        22        24     9      180.000000       17.644798         2
        20        21        22        24     9        0.000000       -1.259503         3
        20        21        22        24     9      180.000000       -0.384797         4
        21        20        19        40     9        0.000000        0.073505         1
        21        20        19        40     9      180.000000       14.891523         2
        21        20        19        40     9        0.000000       -0.707692         3
        21        20        19        40     9      180.000000        0.130542         4
        21        22        24        43     9        0.000000        0.006367         1
        21        22        24        43     9      180.000000       13.721602         2
        21        22        24        43     9        0.000000       -0.619972         3
        21        22        24        43     9      180.000000        0.133122         4
        22        21        20        41     9        0.000000        0.036286         1
        22        21        20        41     9      180.000000       14.441092         2
        22        21        20        41     9        0.000000       -0.533853         3
        22        21        20        41     9      180.000000        0.102825         4
        23        22        21        42     9        0.000000        0.203003         1
        23        22        21        42     9      180.000000       13.237178         2
        23        22        21        42     9        0.000000       -0.115367         3
        23        22        21        42     9      180.000000        0.239543         4
        23        22        24        43     9        0.000000        0.138199         1
        23        22        24        43     9      180.000000       13.815332         2
        23        22        24        43     9        0.000000       -0.095172         3
        23        22        24        43     9      180.000000        0.212289         4
        24        18        17        25     9        0.000000        0.064358         1
        24        18        17        25     9      180.000000        3.440951         2
        24        18        17        25     9        0.000000        0.003887         3
        24        18        17        25     9      180.000000       -0.017254         4
        24        18        19        40     9        0.000000       -0.117210         1
        24        18        19        40     9      180.000000       14.303309         2
        24        18        19        40     9        0.000000       -0.626107         3
        24        18        19        40     9      180.000000        0.027459         4
        24        22        21        42     9        0.000000        0.011133         1
        24        22        21        42     9      180.000000       13.432437         2
        24        22        21        42     9        0.000000       -0.533136         3
        24        22        21        42     9      180.000000        0.083311         4
        25        13         6        26     9        0.000000       -0.545020         1
        25        13         6        26     9      180.000000       -0.478255         2
        25        13         6        26     9        0.000000        0.161526         3
        25        13         6        26     9      180.000000        0.141560         4
        25        13        14        37     9        0.000000        0.042372         1
        25        13        14        37     9      180.000000       14.578178         2
        25        13        14        37     9        0.000000       -0.660702         3
        25        13        14        37     9      180.000000        0.005014         4
        25        17        16        39     9        0.000000       -0.130849         1
        25        17        16        39     9      180.000000       14.622344         2
        25        17        16        39     9        0.000000       -0.667824         3
        25        17        16        39     9      180.000000        0.044823         4
        26         2         1        28     9        0.000000       -0.065585         1
        26         2         1        28     9      180.000000       -0.078720         2
        26         2         1        28     9        0.000000       -0.306475         3
        26         2         1        28     9      180.000000        0.046931         4
        26         2         1        29     9        0.000000       -0.065585         1
        26         2         1        29     9      180.000000       -0.078720         2
        26         2         1        29     9        0.000000       -0.306475         3
        26         2         1        29     9      180.000000        0.046931         4
        26         2         1        30     9        0.000000       -0.065585         1
        26         2         1        30     9      180.000000       -0.078720         2
        26         2         1        30     9        0.000000       -0.306475         3
        26         2         1        30     9      180.000000        0.046931         4
        26         6         5        32     9        0.000000       -0.402605         1
        26         6         5        32     9      180.000000       -0.857011         2
        26         6         5        32     9        0.000000        0.098781         3
        26         6         5        32     9      180.000000        0.175498         4
        33         8         9        34     9        0.000000       -0.227541         1
        33         8         9        34     9      180.000000       12.226423         2
        33         8         9        34     9        0.000000       -0.694825         3
        33         8         9        34     9      180.000000        0.293262         4
        34         9        10        35     9        0.000000       -0.064681         1
        34         9        10        35     9      180.000000       11.410822         2
        34         9        10        35     9        0.000000       -0.658195         3
        34         9        10        35     9      180.000000        0.277090         4
        37        14        15        38     9        0.000000       -0.117658         1
        37        14        15        38     9      180.000000       11.932392         2
        37        14        15        38     9        0.000000       -0.694353         3
        37        14        15        38     9      180.000000        0.275937         4
        38        15        16        39     9        0.000000       -0.168145         1
        38        15        16        39     9      180.000000       11.942113         2
        38        15        16        39     9        0.000000       -0.731995         3
        38        15        16        39     9      180.000000        0.317910         4
        40        19        20        41     9        0.000000       -0.202412         1
        40        19        20        41     9      180.000000       12.044166         2
        40        19        20        41     9        0.000000       -0.720039         3
        40        19        20        41     9      180.000000        0.322236         4
        41        20        21        42     9        0.000000       -0.177599         1
        41        20        21        42     9      180.000000       11.407348         2
        41        20        21        42     9        0.000000       -0.617575         3
        41        20        21        42     9      180.000000        0.288706         4

[ dihedrals ] ; impropers
;       ai        aj        ak        al funct           phase               k        pn
         3         2         4         5     4      180.000000       10.650553         2
         3         4         5         2     4      180.000000       10.650553         2
         3         5         2         4     4      180.000000       10.650553         2
         8         7         9        33     4      180.000000        0.990475         2
         8         9        33         7     4      180.000000        0.990475         2
         8        33         7         9     4      180.000000        0.990475         2
        10         9        11        35     4      180.000000        8.176345         2
        10        11        35         9     4      180.000000        8.176345         2
        10        35         9        11     4      180.000000        8.176345         2
        12         7        11        36     4      180.000000        8.244189         2
        12        11        36         7     4      180.000000        8.244189         2
        12        36         7        11     4      180.000000        8.244189         2
        15        14        16        38     4      180.000000        0.196359         2
        15        16        38        14     4      180.000000        0.196359         2
        15        38        14        16     4      180.000000        0.196359         2
        26         2         6        27     4      180.000000       27.192329         2
        26         6        27         2     4      180.000000       27.192329         2
        26        27         2         6     4      180.000000       27.192329         2

[ pairs ]
;       ai        aj funct
         1         4     1
         1         5     1
         1         6     1
         1        27     1
         2         7     1
         2        13     1
         2        31     1
         2        32     1
         2        45     1
         3         7     1
         3        13     1
         3        27     1
         3        28     1
         3        29     1
         3        30     1
         4         6     1
         4        26     1
         4        32     1
         5         8     1
         5        12     1
         5        14     1
         5        25     1
         5        27     1
         5        31     1
         5        45     1
         6         9     1
         6        11     1
         6        15     1
         6        17     1
         6        33     1
         6        36     1
         6        37     1
         6        44     1
         7        10     1
         7        14     1
         7        25     1
         7        27     1
         7        32     1
         7        34     1
         8        11     1
         8        13     1
         8        26     1
         8        35     1
         8        36     1
         9        12     1
        10        33     1
        10        36     1
        11        34     1
        12        13     1
        12        26     1
        12        33     1
        12        35     1
        13        16     1
        13        18     1
        13        27     1
        13        32     1
        13        38     1
        14        17     1
        14        26     1
        14        39     1
        14        44     1
        15        18     1
        15        25     1
        16        19     1
        16        24     1
        16        37     1
        16        44     1
        17        20     1
        17        22     1
        17        38     1
        17        40     1
        17        43     1
        18        21     1
        18        23     1
        18        39     1
        18        41     1
        18        44     1
        19        22     1
        19        25     1
        19        42     1
        19        43     1
        20        23     1
        20        24     1
        21        40     1
        21        43     1
        22        41     1
        23        42     1
        23        43     1
        24        25     1
        24        40     1
        24        42     1
        25        26     1
        25        37     1
        25        39     1
        26        28     1
        26        29     1
        26        30     1
        26        32     1
        33        34     1
        34        35     1
        37        38     1
        38        39     1
        40        41     1
        41        42     1
