; ITP file created by ByteFF-ML, 2026-02-21 08:14:28.638967

[ atomtypes ]
;name           bonded.type        at.num        mass        charge   ptype           sigma         epsilon
 c0bf                                   6      0.0000       0.00000       A     3.39892e-01     4.52505e-01
 n1bf                                   7      0.0000       0.00000       A     3.18323e-01     7.02152e-01
 c2bf                                   6      0.0000       0.00000       A     3.31335e-01     4.10712e-01
 n3bf                                   7      0.0000       0.00000       A     3.36731e-01     4.77111e-01
 n4bf                                   7      0.0000       0.00000       A     3.26710e-01     6.52767e-01
 c5bf                                   6      0.0000       0.00000       A     3.39498e-01     4.46349e-01
 c6bf                                   6      0.0000       0.00000       A     3.31757e-01     4.15977e-01
 c7bf                                   6      0.0000       0.00000       A     3.31501e-01     4.13870e-01
 c8bf                                   6      0.0000       0.00000       A     3.31495e-01     4.13382e-01
 c9bf                                   6      0.0000       0.00000       A     3.31500e-01     4.12376e-01
 c10bf                                  6      0.0000       0.00000       A     3.31409e-01     4.12301e-01
 c11bf                                  6      0.0000       0.00000       A     3.31338e-01     4.14041e-01
 c12bf                                  6      0.0000       0.00000       A     3.31495e-01     4.12332e-01
 c13bf                                  6      0.0000       0.00000       A     3.31470e-01     4.12993e-01
 c14bf                                  6      0.0000       0.00000       A     3.31492e-01     4.12697e-01
 c15bf                                  6      0.0000       0.00000       A     3.31464e-01     4.12774e-01
 cl16bf                                17      0.0000       0.00000       A     3.46727e-01     1.10410e+00
 c17bf                                  6      0.0000       0.00000       A     3.31525e-01     4.12943e-01
 c18bf                                  6      0.0000       0.00000       A     3.31616e-01     4.14903e-01
 c19bf                                  6      0.0000       0.00000       A     3.31490e-01     4.10918e-01
 n20bf                                  7      0.0000       0.00000       A     3.38172e-01     3.93891e-01
 c21bf                                  6      0.0000       0.00000       A     3.31506e-01     4.13655e-01
 c22bf                                  6      0.0000       0.00000       A     3.31498e-01     4.13174e-01
 s23bf                                 16      0.0000       0.00000       A     3.52998e-01     1.18193e+00
 c24bf                                  6      0.0000       0.00000       A     3.31401e-01     4.15695e-01
 o25bf                                  8      0.0000       0.00000       A     3.04512e-01     6.15282e-01
 h26bf                                  1      0.0000       0.00000       A     2.42205e-01     8.61909e-02
 h27bf                                  1      0.0000       0.00000       A     2.42205e-01     8.61909e-02
 h28bf                                  1      0.0000       0.00000       A     2.42205e-01     8.61909e-02
 h29bf                                  1      0.0000       0.00000       A     1.10384e-01     3.90095e-02
 h30bf                                  1      0.0000       0.00000       A     1.10329e-01     4.05673e-02
 h31bf                                  1      0.0000       0.00000       A     2.62563e-01     6.77452e-02
 h32bf                                  1      0.0000       0.00000       A     2.62513e-01     6.74259e-02
 h33bf                                  1      0.0000       0.00000       A     2.62472e-01     6.74738e-02
 h34bf                                  1      0.0000       0.00000       A     2.62472e-01     6.74738e-02
 h35bf                                  1      0.0000       0.00000       A     2.62502e-01     6.73461e-02
 h36bf                                  1      0.0000       0.00000       A     2.62496e-01     6.71211e-02
 h37bf                                  1      0.0000       0.00000       A     2.62435e-01     6.74259e-02
 h38bf                                  1      0.0000       0.00000       A     2.62560e-01     6.76893e-02
 h39bf                                  1      0.0000       0.00000       A     2.54040e-01     6.78888e-02
 h40bf                                  1      0.0000       0.00000       A     2.53742e-01     6.68482e-02
 h41bf                                  1      0.0000       0.00000       A     1.10384e-01     3.90095e-02

[ moleculetype ]
;name             nrexcl
 CAT-13o               3

[ atoms ]
;       nr            type      resi   res      atom      cgnr      charge          mass ; qtot
         1            c0bf         1   UNL        c0         1     0.07249       12.0110 ; qtot    0.072
         2            n1bf         1   UNL        n1         2    -0.59707       14.0070 ; qtot   -0.525
         3            c2bf         1   UNL        c2         3     0.92037       12.0110 ; qtot    0.396
         4            n3bf         1   UNL        n3         4    -0.58939       14.0070 ; qtot   -0.194
         5            n4bf         1   UNL        n4         5    -0.58357       14.0070 ; qtot   -0.777
         6            c5bf         1   UNL        c5         6     0.05703       12.0110 ; qtot   -0.720
         7            c6bf         1   UNL        c6         7    -0.13218       12.0110 ; qtot   -0.852
         8            c7bf         1   UNL        c7         8    -0.06735       12.0110 ; qtot   -0.920
         9            c8bf         1   UNL        c8         9    -0.09693       12.0110 ; qtot   -1.017
        10            c9bf         1   UNL        c9        10    -0.09330       12.0110 ; qtot   -1.110
        11           c10bf         1   UNL       c10        11    -0.02839       12.0110 ; qtot   -1.138
        12           c11bf         1   UNL       c11        12    -0.02649       12.0110 ; qtot   -1.165
        13           c12bf         1   UNL       c12        13    -0.10326       12.0110 ; qtot   -1.268
        14           c13bf         1   UNL       c13        14    -0.10402       12.0110 ; qtot   -1.372
        15           c14bf         1   UNL       c14        15    -0.09512       12.0110 ; qtot   -1.467
        16           c15bf         1   UNL       c15        16     0.12011       12.0110 ; qtot   -1.347
        17          cl16bf         1   UNL      cl16        17    -0.20970       35.4530 ; qtot   -1.557
        18           c17bf         1   UNL       c17        18    -0.09584       12.0110 ; qtot   -1.653
        19           c18bf         1   UNL       c18        19    -0.05466       12.0110 ; qtot   -1.707
        20           c19bf         1   UNL       c19        20     0.35749       12.0110 ; qtot   -1.350
        21           n20bf         1   UNL       n20        21    -0.64467       14.0070 ; qtot   -1.994
        22           c21bf         1   UNL       c21        22     0.29292       12.0110 ; qtot   -1.702
        23           c22bf         1   UNL       c22        23    -0.23459       12.0110 ; qtot   -1.936
        24           s23bf         1   UNL       s23        24     0.06364       32.0670 ; qtot   -1.872
        25           c24bf         1   UNL       c24        25     0.56412       12.0110 ; qtot   -1.308
        26           o25bf         1   UNL       o25        26    -0.37905       15.9990 ; qtot   -1.687
        27           h26bf         1   UNL       h26        27     0.08945        1.0080 ; qtot   -1.598
        28           h27bf         1   UNL       h27        28     0.08945        1.0080 ; qtot   -1.509
        29           h28bf         1   UNL       h28        29     0.08945        1.0080 ; qtot   -1.419
        30           h29bf         1   UNL       h29        30     0.38409        1.0080 ; qtot   -1.035
        31           h30bf         1   UNL       h30        31     0.42473        1.0080 ; qtot   -0.610
        32           h31bf         1   UNL       h31        32     0.13175        1.0080 ; qtot   -0.478
        33           h32bf         1   UNL       h32        33     0.12028        1.0080 ; qtot   -0.358
        34           h33bf         1   UNL       h33        34     0.11650        1.0080 ; qtot   -0.242
        35           h34bf         1   UNL       h34        35     0.11993        1.0080 ; qtot   -0.122
        36           h35bf         1   UNL       h35        36     0.12261        1.0080 ; qtot    0.001
        37           h36bf         1   UNL       h36        37     0.13516        1.0080 ; qtot    0.136
        38           h37bf         1   UNL       h37        38     0.13341        1.0080 ; qtot    0.269
        39           h38bf         1   UNL       h38        39     0.13299        1.0080 ; qtot    0.402
        40           h39bf         1   UNL       h39        40     0.04931        1.0080 ; qtot    0.452
        41           h40bf         1   UNL       h40        41     0.16424        1.0080 ; qtot    0.616
        42           h41bf         1   UNL       h41        42     0.38406        1.0080 ; qtot    1.000

[ bonds ]
;       ai        aj funct               r               k
         1         2     1        0.146779   194321.160742
         1        27     1        0.109019   312406.082422
         1        28     1        0.109019   312406.082422
         1        29     1        0.109019   312406.082422
         2         3     1        0.135569   306920.762402
         2        25     1        0.142140   152356.565186
         3         4     1        0.133030   418651.617139
         3         5     1        0.133282   383417.709814
         4        30     1        0.101331   425017.507764
         4        42     1        0.101331   425017.507764
         5         6     1        0.148114   148192.279834
         5        31     1        0.101557   418628.812500
         6         7     1        0.152428   163333.857642
         6        20     1        0.151971   170082.664453
         6        25     1        0.154886   119681.884814
         7         8     1        0.140027   294171.513770
         7        19     1        0.139832   297979.684131
         8         9     1        0.139658   314140.945947
         8        32     1        0.108544   321085.711768
         9        10     1        0.139608   315488.462598
         9        33     1        0.108615   320000.129248
        10        11     1        0.140537   285631.112744
        10        34     1        0.108587   318592.753613
        11        12     1        0.148299   214205.132983
        11        19     1        0.140396   287137.980957
        12        13     1        0.140642   283730.615527
        12        18     1        0.140548   284644.231152
        13        14     1        0.139639   316467.172314
        13        35     1        0.108557   319942.823975
        14        15     1        0.139818   306197.015186
        14        36     1        0.108593   321221.875635
        15        16     1        0.139667   296743.126221
        15        37     1        0.108450   326068.844531
        16        17     1        0.175898   146278.069189
        16        18     1        0.139434   307507.503027
        18        38     1        0.108450   323511.456250
        19        39     1        0.108525   320017.749854
        20        21     1        0.130553   398190.084863
        20        24     1        0.174436   126694.936865
        21        22     1        0.137615   254273.176807
        22        23     1        0.136951   380795.406201
        22        40     1        0.108375   329808.984033
        23        24     1        0.172993   170573.870752
        23        41     1        0.108119   343801.455762
        25        26     1        0.120204   726320.080566

[ angles ]
;       ai        aj        ak funct           theta             cth
         1         2         3     1      126.554115      466.212970
         1         2        25     1      123.235008      533.997141
         2         1        27     1      109.239075      483.505935
         2         1        28     1      109.239075      483.505935
         2         1        29     1      109.239075      483.505935
         2         3         4     1      123.859535      625.180614
         2         3         5     1      111.315651      584.459012
         2        25         6     1      106.077103      167.360000
         2        25        26     1      124.978027      642.376921
         3         2        25     1      109.853760      842.740762
         3         4        30     1      121.284012      450.241807
         3         4        42     1      121.284012      450.241807
         3         5         6     1      111.535721      625.108280
         3         5        31     1      123.852829      417.779608
         4         3         5     1      125.383156      614.454262
         5         6         7     1      111.345139      590.584918
         5         6        20     1      108.361252      544.476198
         5         6        25     1      101.010147      339.214180
         6         5        31     1      119.485291      371.079577
         6         7         8     1      119.933388      484.739856
         6         7        19     1      119.702065      445.174318
         6        20        21     1      121.398758      360.917691
         6        20        24     1      122.928246      375.640983
         6        25        26     1      127.667404      366.571862
         7         6        20     1      113.152748      504.582318
         7         6        25     1      111.622299      590.834160
         7         8         9     1      119.524170      676.284392
         7         8        32     1      120.450302      400.215982
         7        19        11     1      120.987450      667.299096
         7        19        39     1      119.849915      400.129635
         8         7        19     1      119.882851      694.870811
         8         9        10     1      120.360367      726.676834
         8         9        33     1      119.830727      430.859109
         9         8        32     1      119.915260      421.555557
         9        10        11     1      120.465897      706.018079
         9        10        34     1      119.746338      429.320019
        10         9        33     1      119.784500      435.754605
        10        11        12     1      120.859482      512.536010
        10        11        19     1      118.319664      675.177805
        11        10        34     1      119.759117      426.939418
        11        12        13     1      120.945435      503.337128
        11        12        18     1      120.427696      481.664869
        11        19        39     1      119.119019      414.355688
        12        11        19     1      120.852600      423.397293
        12        13        14     1      120.709496      710.226339
        12        13        35     1      119.625290      429.265114
        12        18        16     1      119.954468      654.295153
        12        18        38     1      120.525940      413.949137
        13        12        18     1      118.518814      610.093928
        13        14        15     1      120.716507      706.259979
        13        14        36     1      119.854904      434.295638
        14        13        35     1      119.665451      434.119208
        14        15        16     1      118.458839      608.116654
        14        15        37     1      121.243332      419.806776
        15        14        36     1      119.403763      439.510571
        15        16        17     1      119.263100      362.742700
        15        16        18     1      121.578903      646.790308
        16        15        37     1      120.373581      408.925573
        16        18        38     1      119.578125      413.311731
        17        16        18     1      119.060081      368.288051
        20         6        25     1      109.446457      669.933760
        20        21        22     1      111.160690      338.387129
        20        24        23     1       88.569542      167.360000
        21        20        24     1      115.057419      167.360000
        21        22        23     1      115.261696      296.766812
        21        22        40     1      119.454208      366.994246
        22        23        24     1      110.128319      167.360000
        22        23        41     1      128.651825      363.898701
        23        22        40     1      125.096909      371.780634
        24        23        41     1      121.241234      357.145764
        27         1        28     1      109.827271      349.375236
        27         1        29     1      109.827271      349.375236
        28         1        29     1      109.827271      349.375236
        30         4        42     1      117.465050      314.119565

[ dihedrals ] ; propers for gromacs 4.5 or higher, use funct 9
;       ai        aj        ak        al funct           phase               k        pn
         1         2         3         4     9        0.000000        1.865779         1
         1         2         3         4     9      180.000000        7.520736         2
         1         2         3         4     9        0.000000       -0.055478         3
         1         2         3         4     9      180.000000       -0.078069         4
         1         2         3         5     9        0.000000       -3.141290         1
         1         2         3         5     9      180.000000        5.784978         2
         1         2         3         5     9        0.000000       -0.219398         3
         1         2         3         5     9      180.000000        0.087994         4
         1         2        25         6     9        0.000000       -0.751165         1
         1         2        25         6     9      180.000000        5.644736         2
         1         2        25         6     9        0.000000        0.224332         3
         1         2        25         6     9      180.000000       -0.108338         4
         1         2        25        26     9        0.000000       -0.421280         1
         1         2        25        26     9      180.000000        9.419289         2
         1         2        25        26     9        0.000000       -0.313688         3
         1         2        25        26     9      180.000000        0.257037         4
         2         3         4        30     9        0.000000       -0.664875         1
         2         3         4        30     9      180.000000        6.362917         2
         2         3         4        30     9        0.000000        0.367468         3
         2         3         4        30     9      180.000000       -0.636730         4
         2         3         4        42     9        0.000000       -0.664874         1
         2         3         4        42     9      180.000000        6.362917         2
         2         3         4        42     9        0.000000        0.367467         3
         2         3         4        42     9      180.000000       -0.636730         4
         2         3         5         6     9        0.000000       -1.309570         1
         2         3         5         6     9      180.000000       22.586270         2
         2         3         5         6     9        0.000000       -1.381220         3
         2         3         5         6     9      180.000000       -2.563659         4
         2         3         5        31     9        0.000000       -0.394908         1
         2         3         5        31     9      180.000000        8.999772         2
         2         3         5        31     9        0.000000        0.041523         3
         2         3         5        31     9      180.000000       -0.724658         4
         2        25         6         5     9        0.000000        0.364260         1
         2        25         6         5     9      180.000000        7.689613         2
         2        25         6         5     9        0.000000       -0.210796         3
         2        25         6         5     9      180.000000       -0.191699         4
         2        25         6         7     9        0.000000        0.610075         1
         2        25         6         7     9      180.000000        0.565401         2
         2        25         6         7     9        0.000000        0.453466         3
         2        25         6         7     9      180.000000        0.777917         4
         2        25         6        20     9        0.000000       -1.517489         1
         2        25         6        20     9      180.000000        2.660483         2
         2        25         6        20     9        0.000000        0.367218         3
         2        25         6        20     9      180.000000        0.736636         4
         3         2         1        27     9        0.000000        0.016830         1
         3         2         1        27     9      180.000000        0.004057         2
         3         2         1        27     9        0.000000        0.178774         3
         3         2         1        27     9      180.000000       -0.015868         4
         3         2         1        28     9        0.000000        0.016830         1
         3         2         1        28     9      180.000000        0.004057         2
         3         2         1        28     9        0.000000        0.178774         3
         3         2         1        28     9      180.000000       -0.015868         4
         3         2         1        29     9        0.000000        0.016830         1
         3         2         1        29     9      180.000000        0.004057         2
         3         2         1        29     9        0.000000        0.178774         3
         3         2         1        29     9      180.000000       -0.015868         4
         3         2        25         6     9        0.000000       -2.854945         1
         3         2        25         6     9      180.000000       11.720109         2
         3         2        25         6     9        0.000000       -1.630303         3
         3         2        25         6     9      180.000000       -0.399362         4
         3         2        25        26     9        0.000000        2.262299         1
         3         2        25        26     9      180.000000       17.705670         2
         3         2        25        26     9        0.000000       -0.745531         3
         3         2        25        26     9      180.000000       -0.814125         4
         3         5         6         7     9        0.000000       -0.061469         1
         3         5         6         7     9      180.000000        0.642441         2
         3         5         6         7     9        0.000000        0.357898         3
         3         5         6         7     9      180.000000        0.311084         4
         3         5         6        20     9        0.000000        1.303165         1
         3         5         6        20     9      180.000000        0.572047         2
         3         5         6        20     9        0.000000        0.363384         3
         3         5         6        20     9      180.000000        0.186227         4
         3         5         6        25     9        0.000000       -2.446401         1
         3         5         6        25     9      180.000000        5.984387         2
         3         5         6        25     9        0.000000       -0.307138         3
         3         5         6        25     9      180.000000       -1.550605         4
         4         3         2        25     9        0.000000        1.365293         1
         4         3         2        25     9      180.000000       12.945708         2
         4         3         2        25     9        0.000000       -0.222353         3
         4         3         2        25     9      180.000000       -0.810270         4
         4         3         5         6     9        0.000000        2.465420         1
         4         3         5         6     9      180.000000       17.330045         2
         4         3         5         6     9        0.000000        0.862956         3
         4         3         5         6     9      180.000000       -1.732994         4
         4         3         5        31     9        0.000000       -0.303685         1
         4         3         5        31     9      180.000000        8.051086         2
         4         3         5        31     9        0.000000        0.425042         3
         4         3         5        31     9      180.000000       -0.337795         4
         5         3         2        25     9        0.000000       -1.398909         1
         5         3         2        25     9      180.000000       14.688575         2
         5         3         2        25     9        0.000000       -2.664447         3
         5         3         2        25     9      180.000000       -1.458423         4
         5         3         4        30     9        0.000000       -2.112731         1
         5         3         4        30     9      180.000000        6.728350         2
         5         3         4        30     9        0.000000        0.031864         3
         5         3         4        30     9      180.000000       -0.562017         4
         5         3         4        42     9        0.000000       -2.112731         1
         5         3         4        42     9      180.000000        6.728350         2
         5         3         4        42     9        0.000000        0.031864         3
         5         3         4        42     9      180.000000       -0.562017         4
         5         6         7         8     9        0.000000       -0.593268         1
         5         6         7         8     9      180.000000        1.496789         2
         5         6         7         8     9        0.000000        0.163920         3
         5         6         7         8     9      180.000000        0.173197         4
         5         6         7        19     9        0.000000       -0.337053         1
         5         6         7        19     9      180.000000        1.495878         2
         5         6         7        19     9        0.000000        0.091837         3
         5         6         7        19     9      180.000000        0.167856         4
         5         6        20        21     9        0.000000        6.226261         1
         5         6        20        21     9      180.000000       -0.080682         2
         5         6        20        21     9        0.000000        0.156160         3
         5         6        20        21     9      180.000000        0.183920         4
         5         6        20        24     9        0.000000       -1.441288         1
         5         6        20        24     9      180.000000        0.675249         2
         5         6        20        24     9        0.000000        0.570385         3
         5         6        20        24     9      180.000000        0.080544         4
         5         6        25        26     9        0.000000        6.413381         1
         5         6        25        26     9      180.000000        5.022146         2
         5         6        25        26     9        0.000000        0.116974         3
         5         6        25        26     9      180.000000        0.463645         4
         6         7         8         9     9        0.000000        0.115088         1
         6         7         8         9     9      180.000000       15.361800         2
         6         7         8         9     9        0.000000       -0.160499         3
         6         7         8         9     9      180.000000       -0.237374         4
         6         7         8        32     9        0.000000        0.037529         1
         6         7         8        32     9      180.000000       12.861672         2
         6         7         8        32     9        0.000000       -0.277193         3
         6         7         8        32     9      180.000000        0.175160         4
         6         7        19        11     9        0.000000        0.141896         1
         6         7        19        11     9      180.000000       15.037458         2
         6         7        19        11     9        0.000000       -0.099956         3
         6         7        19        11     9      180.000000       -0.281775         4
         6         7        19        39     9        0.000000        0.040927         1
         6         7        19        39     9      180.000000       13.047542         2
         6         7        19        39     9        0.000000       -0.244388         3
         6         7        19        39     9      180.000000        0.166567         4
         6        20        21        22     9        0.000000        0.744645         1
         6        20        21        22     9      180.000000       32.129700         2
         6        20        21        22     9        0.000000        0.593059         3
         6        20        21        22     9      180.000000       -0.722683         4
         6        20        24        23     9        0.000000        1.329879         1
         6        20        24        23     9      180.000000       18.559882         2
         6        20        24        23     9        0.000000        0.567145         3
         6        20        24        23     9      180.000000       -0.816143         4
         7         6         5        31     9        0.000000        1.098072         1
         7         6         5        31     9      180.000000        0.247949         2
         7         6         5        31     9        0.000000        0.207291         3
         7         6         5        31     9      180.000000        0.043102         4
         7         6        20        21     9        0.000000       -1.447873         1
         7         6        20        21     9      180.000000        1.044285         2
         7         6        20        21     9        0.000000        0.463854         3
         7         6        20        21     9      180.000000        0.047306         4
         7         6        20        24     9        0.000000        0.012774         1
         7         6        20        24     9      180.000000        0.642215         2
         7         6        20        24     9        0.000000        0.386191         3
         7         6        20        24     9      180.000000        0.121251         4
         7         6        25        26     9        0.000000       -1.089108         1
         7         6        25        26     9      180.000000        1.041676         2
         7         6        25        26     9        0.000000       -0.293649         3
         7         6        25        26     9      180.000000        0.366169         4
         7         8         9        10     9        0.000000        0.143811         1
         7         8         9        10     9      180.000000       18.668632         2
         7         8         9        10     9        0.000000       -1.473506         3
         7         8         9        10     9      180.000000       -0.483460         4
         7         8         9        33     9        0.000000        0.047143         1
         7         8         9        33     9      180.000000       15.119201         2
         7         8         9        33     9        0.000000       -0.600279         3
         7         8         9        33     9      180.000000        0.049342         4
         7        19        11        10     9        0.000000       -0.031454         1
         7        19        11        10     9      180.000000       18.709779         2
         7        19        11        10     9        0.000000       -1.513154         3
         7        19        11        10     9      180.000000       -0.467573         4
         7        19        11        12     9        0.000000        0.323613         1
         7        19        11        12     9      180.000000       16.942210         2
         7        19        11        12     9        0.000000       -0.132141         3
         7        19        11        12     9      180.000000       -0.438759         4
         8         7         6        20     9        0.000000        0.145416         1
         8         7         6        20     9      180.000000        0.785718         2
         8         7         6        20     9        0.000000        0.261606         3
         8         7         6        20     9      180.000000        0.025862         4
         8         7         6        25     9        0.000000       -0.136133         1
         8         7         6        25     9      180.000000       -0.662063         2
         8         7         6        25     9        0.000000        0.242647         3
         8         7         6        25     9      180.000000        0.087286         4
         8         7        19        11     9        0.000000       -0.068057         1
         8         7        19        11     9      180.000000       19.066209         2
         8         7        19        11     9        0.000000       -1.555805         3
         8         7        19        11     9      180.000000       -0.496223         4
         8         7        19        39     9        0.000000        0.077368         1
         8         7        19        39     9      180.000000       14.692005         2
         8         7        19        39     9        0.000000       -0.727963         3
         8         7        19        39     9      180.000000        0.019996         4
         8         9        10        11     9        0.000000       -0.039643         1
         8         9        10        11     9      180.000000       18.809162         2
         8         9        10        11     9        0.000000       -1.542474         3
         8         9        10        11     9      180.000000       -0.342807         4
         8         9        10        34     9        0.000000        0.082664         1
         8         9        10        34     9      180.000000       14.622830         2
         8         9        10        34     9        0.000000       -0.734160         3
         8         9        10        34     9      180.000000        0.165532         4
         9         8         7        19     9        0.000000       -0.142688         1
         9         8         7        19     9      180.000000       19.313762         2
         9         8         7        19     9        0.000000       -1.504255         3
         9         8         7        19     9      180.000000       -0.521357         4
         9        10        11        12     9        0.000000        0.226556         1
         9        10        11        12     9      180.000000       16.153995         2
         9        10        11        12     9        0.000000       -0.178009         3
         9        10        11        12     9      180.000000       -0.242238         4
         9        10        11        19     9        0.000000       -0.204827         1
         9        10        11        19     9      180.000000       18.718290         2
         9        10        11        19     9        0.000000       -1.542410         3
         9        10        11        19     9      180.000000       -0.340105         4
        10         9         8        32     9        0.000000        0.075531         1
        10         9         8        32     9      180.000000       14.627167         2
        10         9         8        32     9        0.000000       -0.647191         3
        10         9         8        32     9      180.000000        0.064618         4
        10        11        12        13     9        0.000000       -0.009739         1
        10        11        12        13     9      180.000000        3.327584         2
        10        11        12        13     9        0.000000        0.047677         3
        10        11        12        13     9      180.000000       -0.022025         4
        10        11        12        18     9        0.000000        0.010327         1
        10        11        12        18     9      180.000000        3.330645         2
        10        11        12        18     9        0.000000        0.012912         3
        10        11        12        18     9      180.000000       -0.012942         4
        10        11        19        39     9        0.000000       -0.127760         1
        10        11        19        39     9      180.000000       14.562167         2
        10        11        19        39     9        0.000000       -0.636869         3
        10        11        19        39     9      180.000000       -0.013033         4
        11        10         9        33     9        0.000000       -0.059059         1
        11        10         9        33     9      180.000000       14.721715         2
        11        10         9        33     9        0.000000       -0.606048         3
        11        10         9        33     9      180.000000        0.110581         4
        11        12        13        14     9        0.000000        0.313694         1
        11        12        13        14     9      180.000000       16.368970         2
        11        12        13        14     9        0.000000       -0.082266         3
        11        12        13        14     9      180.000000       -0.283701         4
        11        12        13        35     9        0.000000       -0.065722         1
        11        12        13        35     9      180.000000       13.384855         2
        11        12        13        35     9        0.000000       -0.191002         3
        11        12        13        35     9      180.000000        0.181794         4
        11        12        18        16     9        0.000000        0.236094         1
        11        12        18        16     9      180.000000       16.708040         2
        11        12        18        16     9        0.000000       -0.164163         3
        11        12        18        16     9      180.000000       -0.415868         4
        11        12        18        38     9        0.000000       -0.083993         1
        11        12        18        38     9      180.000000       13.209934         2
        11        12        18        38     9        0.000000       -0.212778         3
        11        12        18        38     9      180.000000        0.209617         4
        12        11        10        34     9        0.000000       -0.104969         1
        12        11        10        34     9      180.000000       13.352840         2
        12        11        10        34     9        0.000000       -0.223612         3
        12        11        10        34     9      180.000000        0.188672         4
        12        11        19        39     9        0.000000       -0.091016         1
        12        11        19        39     9      180.000000       13.390050         2
        12        11        19        39     9        0.000000       -0.150626         3
        12        11        19        39     9      180.000000        0.160736         4
        12        13        14        15     9        0.000000       -0.027105         1
        12        13        14        15     9      180.000000       18.923034         2
        12        13        14        15     9        0.000000       -1.503937         3
        12        13        14        15     9      180.000000       -0.356268         4
        12        13        14        36     9        0.000000       -0.082647         1
        12        13        14        36     9      180.000000       14.805088         2
        12        13        14        36     9        0.000000       -0.643495         3
        12        13        14        36     9      180.000000        0.073654         4
        12        18        16        15     9        0.000000       -0.008240         1
        12        18        16        15     9      180.000000       17.745278         2
        12        18        16        15     9        0.000000       -1.184654         3
        12        18        16        15     9      180.000000       -0.352119         4
        12        18        16        17     9        0.000000        0.356484         1
        12        18        16        17     9      180.000000       19.187195         2
        12        18        16        17     9        0.000000        0.423572         3
        12        18        16        17     9      180.000000       -0.719313         4
        13        12        11        19     9        0.000000        0.041073         1
        13        12        11        19     9      180.000000        3.423569         2
        13        12        11        19     9        0.000000        0.043961         3
        13        12        11        19     9      180.000000       -0.032795         4
        13        12        18        16     9        0.000000       -0.226810         1
        13        12        18        16     9      180.000000       18.460100         2
        13        12        18        16     9        0.000000       -1.564517         3
        13        12        18        16     9      180.000000       -0.363342         4
        13        12        18        38     9        0.000000       -0.081612         1
        13        12        18        38     9      180.000000       14.063211         2
        13        12        18        38     9        0.000000       -0.651845         3
        13        12        18        38     9      180.000000        0.074764         4
        13        14        15        16     9        0.000000       -0.014672         1
        13        14        15        16     9      180.000000       18.658773         2
        13        14        15        16     9        0.000000       -1.423404         3
        13        14        15        16     9      180.000000       -0.430664         4
        13        14        15        37     9        0.000000        0.015297         1
        13        14        15        37     9      180.000000       13.921456         2
        13        14        15        37     9        0.000000       -0.702882         3
        13        14        15        37     9      180.000000        0.159191         4
        14        13        12        18     9        0.000000       -0.178260         1
        14        13        12        18     9      180.000000       18.281466         2
        14        13        12        18     9        0.000000       -1.464057         3
        14        13        12        18     9      180.000000       -0.353057         4
        14        15        16        17     9        0.000000        0.384560         1
        14        15        16        17     9      180.000000       19.125338         2
        14        15        16        17     9        0.000000        0.328218         3
        14        15        16        17     9      180.000000       -0.554486         4
        14        15        16        18     9        0.000000       -0.060650         1
        14        15        16        18     9      180.000000       17.644798         2
        14        15        16        18     9        0.000000       -1.259503         3
        14        15        16        18     9      180.000000       -0.384797         4
        15        14        13        35     9        0.000000        0.073505         1
        15        14        13        35     9      180.000000       14.891523         2
        15        14        13        35     9        0.000000       -0.707692         3
        15        14        13        35     9      180.000000        0.130542         4
        15        16        18        38     9        0.000000        0.006367         1
        15        16        18        38     9      180.000000       13.721602         2
        15        16        18        38     9        0.000000       -0.619973         3
        15        16        18        38     9      180.000000        0.133122         4
        16        15        14        36     9        0.000000        0.036286         1
        16        15        14        36     9      180.000000       14.441092         2
        16        15        14        36     9        0.000000       -0.533853         3
        16        15        14        36     9      180.000000        0.102825         4
        17        16        15        37     9        0.000000        0.203003         1
        17        16        15        37     9      180.000000       13.237178         2
        17        16        15        37     9        0.000000       -0.115367         3
        17        16        15        37     9      180.000000        0.239543         4
        17        16        18        38     9        0.000000        0.138200         1
        17        16        18        38     9      180.000000       13.815334         2
        17        16        18        38     9        0.000000       -0.095173         3
        17        16        18        38     9      180.000000        0.212289         4
        18        12        11        19     9        0.000000        0.082099         1
        18        12        11        19     9      180.000000        3.438054         2
        18        12        11        19     9        0.000000        0.004896         3
        18        12        11        19     9      180.000000       -0.022874         4
        18        12        13        35     9        0.000000       -0.117209         1
        18        12        13        35     9      180.000000       14.303306         2
        18        12        13        35     9        0.000000       -0.626107         3
        18        12        13        35     9      180.000000        0.027459         4
        18        16        15        37     9        0.000000        0.011133         1
        18        16        15        37     9      180.000000       13.432437         2
        18        16        15        37     9        0.000000       -0.533136         3
        18        16        15        37     9      180.000000        0.083311         4
        19         7         6        20     9        0.000000       -0.276483         1
        19         7         6        20     9      180.000000        0.859247         2
        19         7         6        20     9        0.000000        0.238179         3
        19         7         6        20     9      180.000000        0.046612         4
        19         7         6        25     9        0.000000       -0.283903         1
        19         7         6        25     9      180.000000       -0.592653         2
        19         7         6        25     9        0.000000        0.219964         3
        19         7         6        25     9      180.000000        0.068396         4
        19         7         8        32     9        0.000000        0.091674         1
        19         7         8        32     9      180.000000       14.578699         2
        19         7         8        32     9        0.000000       -0.641525         3
        19         7         8        32     9      180.000000        0.007009         4
        19        11        10        34     9        0.000000       -0.121517         1
        19        11        10        34     9      180.000000       14.642356         2
        19        11        10        34     9        0.000000       -0.674951         3
        19        11        10        34     9      180.000000        0.044996         4
        20         6         5        31     9        0.000000        2.336852         1
        20         6         5        31     9      180.000000       -0.689634         2
        20         6         5        31     9        0.000000        0.345056         3
        20         6         5        31     9      180.000000        0.032024         4
        20         6        25        26     9        0.000000        0.014348         1
        20         6        25        26     9      180.000000        2.557829         2
        20         6        25        26     9        0.000000       -0.370042         3
        20         6        25        26     9      180.000000        0.362931         4
        20        21        22        23     9        0.000000       -0.446526         1
        20        21        22        23     9      180.000000       25.496134         2
        20        21        22        23     9        0.000000       -2.444646         3
        20        21        22        23     9      180.000000       -0.462475         4
        20        21        22        40     9        0.000000        1.288192         1
        20        21        22        40     9      180.000000       19.377469         2
        20        21        22        40     9        0.000000        0.627736         3
        20        21        22        40     9      180.000000       -0.884374         4
        20        24        23        22     9        0.000000        0.045758         1
        20        24        23        22     9      180.000000       26.628575         2
        20        24        23        22     9        0.000000       -5.244667         3
        20        24        23        22     9      180.000000       -0.035287         4
        20        24        23        41     9        0.000000        1.304747         1
        20        24        23        41     9      180.000000       10.570474         2
        20        24        23        41     9        0.000000        0.780920         3
        20        24        23        41     9      180.000000       -0.069426         4
        21        20         6        25     9        0.000000       -0.440988         1
        21        20         6        25     9      180.000000        0.446943         2
        21        20         6        25     9        0.000000        0.259743         3
        21        20         6        25     9      180.000000        0.071223         4
        21        20        24        23     9        0.000000       -0.096745         1
        21        20        24        23     9      180.000000       34.836559         2
        21        20        24        23     9        0.000000       -6.478802         3
        21        20        24        23     9      180.000000       -0.357415         4
        21        22        23        24     9        0.000000       -0.357227         1
        21        22        23        24     9      180.000000       32.245896         2
        21        22        23        24     9        0.000000       -5.094768         3
        21        22        23        24     9      180.000000       -0.668014         4
        21        22        23        41     9        0.000000        0.580146         1
        21        22        23        41     9      180.000000       20.098188         2
        21        22        23        41     9        0.000000        0.072925         3
        21        22        23        41     9      180.000000       -0.851750         4
        22        21        20        24     9        0.000000       -0.312258         1
        22        21        20        24     9      180.000000       34.964353         2
        22        21        20        24     9        0.000000       -4.236649         3
        22        21        20        24     9      180.000000        0.137219         4
        24        20         6        25     9        0.000000        0.372105         1
        24        20         6        25     9      180.000000       -0.173329         2
        24        20         6        25     9        0.000000        0.183583         3
        24        20         6        25     9      180.000000        0.137070         4
        24        23        22        40     9        0.000000        0.636268         1
        24        23        22        40     9      180.000000       19.719528         2
        24        23        22        40     9        0.000000        0.191059         3
        24        23        22        40     9      180.000000       -1.047622         4
        25         2         1        27     9        0.000000       -0.064752         1
        25         2         1        27     9      180.000000       -0.088963         2
        25         2         1        27     9        0.000000       -0.287528         3
        25         2         1        27     9      180.000000        0.051674         4
        25         2         1        28     9        0.000000       -0.064752         1
        25         2         1        28     9      180.000000       -0.088963         2
        25         2         1        28     9        0.000000       -0.287528         3
        25         2         1        28     9      180.000000        0.051674         4
        25         2         1        29     9        0.000000       -0.064752         1
        25         2         1        29     9      180.000000       -0.088963         2
        25         2         1        29     9        0.000000       -0.287528         3
        25         2         1        29     9      180.000000        0.051674         4
        25         6         5        31     9        0.000000        0.247249         1
        25         6         5        31     9      180.000000       -1.241060         2
        25         6         5        31     9        0.000000        0.196353         3
        25         6         5        31     9      180.000000        0.231587         4
        32         8         9        33     9        0.000000       -0.108972         1
        32         8         9        33     9      180.000000       11.957404         2
        32         8         9        33     9        0.000000       -0.701492         3
        32         8         9        33     9      180.000000        0.270470         4
        33         9        10        34     9        0.000000       -0.167157         1
        33         9        10        34     9      180.000000       11.944916         2
        33         9        10        34     9        0.000000       -0.733049         3
        33         9        10        34     9      180.000000        0.319879         4
        35        13        14        36     9        0.000000       -0.202412         1
        35        13        14        36     9      180.000000       12.044166         2
        35        13        14        36     9        0.000000       -0.720039         3
        35        13        14        36     9      180.000000        0.322236         4
        36        14        15        37     9        0.000000       -0.177599         1
        36        14        15        37     9      180.000000       11.407348         2
        36        14        15        37     9        0.000000       -0.617575         3
        36        14        15        37     9      180.000000        0.288706         4
        40        22        23        41     9        0.000000       -0.287546         1
        40        22        23        41     9      180.000000       12.647282         2
        40        22        23        41     9        0.000000       -0.627106         3
        40        22        23        41     9      180.000000        0.186638         4

[ dihedrals ] ; impropers
;       ai        aj        ak        al funct           phase               k        pn
         3         2         4         5     4      180.000000        9.878151         2
         3         4         5         2     4      180.000000        9.878151         2
         3         5         2         4     4      180.000000        9.878151         2
         9         8        10        33     4      180.000000        0.303822         2
         9        10        33         8     4      180.000000        0.303822         2
         9        33         8        10     4      180.000000        0.303822         2
        22        21        23        40     4      180.000000        0.535419         2
        22        23        40        21     4      180.000000        0.535419         2
        22        40        21        23     4      180.000000        0.535419         2
        25         2         6        26     4      180.000000       26.958946         2
        25         6        26         2     4      180.000000       26.958946         2
        25        26         2         6     4      180.000000       26.958946         2

[ pairs ]
;       ai        aj funct
         1         4     1
         1         5     1
         1         6     1
         1        26     1
         2         7     1
         2        20     1
         2        30     1
         2        31     1
         2        42     1
         3         7     1
         3        20     1
         3        26     1
         3        27     1
         3        28     1
         3        29     1
         4         6     1
         4        25     1
         4        31     1
         5         8     1
         5        19     1
         5        21     1
         5        24     1
         5        26     1
         5        30     1
         5        42     1
         6         9     1
         6        11     1
         6        22     1
         6        23     1
         6        32     1
         6        39     1
         7        10     1
         7        12     1
         7        21     1
         7        24     1
         7        26     1
         7        31     1
         7        33     1
         8        11     1
         8        20     1
         8        25     1
         8        34     1
         8        39     1
         9        12     1
         9        19     1
        10        13     1
        10        18     1
        10        32     1
        10        39     1
        11        14     1
        11        16     1
        11        33     1
        11        35     1
        11        38     1
        12        15     1
        12        17     1
        12        34     1
        12        36     1
        12        39     1
        13        16     1
        13        19     1
        13        37     1
        13        38     1
        14        17     1
        14        18     1
        15        35     1
        15        38     1
        16        36     1
        17        37     1
        17        38     1
        18        19     1
        18        35     1
        18        37     1
        19        20     1
        19        25     1
        19        32     1
        19        34     1
        20        26     1
        20        31     1
        20        40     1
        20        41     1
        21        25     1
        21        41     1
        24        25     1
        24        40     1
        25        27     1
        25        28     1
        25        29     1
        25        31     1
        32        33     1
        33        34     1
        35        36     1
        36        37     1
        40        41     1
