; ITP file created by ByteFF-ML, 2026-02-21 08:14:01.352620

[ atomtypes ]
;name           bonded.type        at.num        mass        charge   ptype           sigma         epsilon
 c0bf                                   6      0.0000       0.00000       A     3.39816e-01     4.50499e-01
 c1bf                                   6      0.0000       0.00000       A     3.39762e-01     4.50854e-01
 c2bf                                   6      0.0000       0.00000       A     3.39816e-01     4.50499e-01
 c3bf                                   6      0.0000       0.00000       A     3.39874e-01     4.52727e-01
 c4bf                                   6      0.0000       0.00000       A     3.31643e-01     4.15104e-01
 c5bf                                   6      0.0000       0.00000       A     3.31467e-01     4.13976e-01
 c6bf                                   6      0.0000       0.00000       A     3.31498e-01     4.13427e-01
 c7bf                                   6      0.0000       0.00000       A     3.31500e-01     4.12376e-01
 c8bf                                   6      0.0000       0.00000       A     3.31396e-01     4.12338e-01
 c9bf                                   6      0.0000       0.00000       A     3.31338e-01     4.14041e-01
 c10bf                                  6      0.0000       0.00000       A     3.31495e-01     4.12332e-01
 c11bf                                  6      0.0000       0.00000       A     3.31470e-01     4.12993e-01
 c12bf                                  6      0.0000       0.00000       A     3.31492e-01     4.12697e-01
 c13bf                                  6      0.0000       0.00000       A     3.31464e-01     4.12774e-01
 cl14bf                                17      0.0000       0.00000       A     3.46727e-01     1.10410e+00
 c15bf                                  6      0.0000       0.00000       A     3.31525e-01     4.12943e-01
 c16bf                                  6      0.0000       0.00000       A     3.31563e-01     4.15388e-01
 n17bf                                  7      0.0000       0.00000       A     3.27051e-01     6.45610e-01
 c18bf                                  6      0.0000       0.00000       A     3.31231e-01     4.10289e-01
 n19bf                                  7      0.0000       0.00000       A     3.36712e-01     4.77349e-01
 n20bf                                  7      0.0000       0.00000       A     3.18277e-01     7.06114e-01
 c21bf                                  6      0.0000       0.00000       A     3.39916e-01     4.52554e-01
 c22bf                                  6      0.0000       0.00000       A     3.31418e-01     4.15179e-01
 o23bf                                  8      0.0000       0.00000       A     3.04537e-01     6.15155e-01
 h24bf                                  1      0.0000       0.00000       A     2.59968e-01     8.78365e-02
 h25bf                                  1      0.0000       0.00000       A     2.59968e-01     8.78365e-02
 h26bf                                  1      0.0000       0.00000       A     2.59968e-01     8.78365e-02
 h27bf                                  1      0.0000       0.00000       A     2.60096e-01     8.68054e-02
 h28bf                                  1      0.0000       0.00000       A     2.59968e-01     8.78365e-02
 h29bf                                  1      0.0000       0.00000       A     2.59968e-01     8.78365e-02
 h30bf                                  1      0.0000       0.00000       A     2.59968e-01     8.78365e-02
 h31bf                                  1      0.0000       0.00000       A     2.62586e-01     6.77372e-02
 h32bf                                  1      0.0000       0.00000       A     2.62513e-01     6.74259e-02
 h33bf                                  1      0.0000       0.00000       A     2.62472e-01     6.74738e-02
 h34bf                                  1      0.0000       0.00000       A     2.62472e-01     6.74738e-02
 h35bf                                  1      0.0000       0.00000       A     2.62502e-01     6.73461e-02
 h36bf                                  1      0.0000       0.00000       A     2.62496e-01     6.71211e-02
 h37bf                                  1      0.0000       0.00000       A     2.62435e-01     6.74259e-02
 h38bf                                  1      0.0000       0.00000       A     2.62582e-01     6.76350e-02
 h39bf                                  1      0.0000       0.00000       A     1.10536e-01     4.00278e-02
 h40bf                                  1      0.0000       0.00000       A     1.10384e-01     3.90095e-02
 h41bf                                  1      0.0000       0.00000       A     2.42205e-01     8.61909e-02
 h42bf                                  1      0.0000       0.00000       A     2.42205e-01     8.61909e-02
 h43bf                                  1      0.0000       0.00000       A     2.42205e-01     8.61909e-02
 h44bf                                  1      0.0000       0.00000       A     1.10384e-01     3.90095e-02

[ moleculetype ]
;name             nrexcl
 CAT-13c               3

[ atoms ]
;       nr            type      resi   res      atom      cgnr      charge          mass ; qtot
         1            c0bf         1   UNL        c0         1    -0.09393       12.0110 ; qtot   -0.094
         2            c1bf         1   UNL        c1         2    -0.04169       12.0110 ; qtot   -0.136
         3            c2bf         1   UNL        c2         3    -0.09393       12.0110 ; qtot   -0.230
         4            c3bf         1   UNL        c3         4     0.07572       12.0110 ; qtot   -0.154
         5            c4bf         1   UNL        c4         5    -0.12513       12.0110 ; qtot   -0.279
         6            c5bf         1   UNL        c5         6    -0.07707       12.0110 ; qtot   -0.356
         7            c6bf         1   UNL        c6         7    -0.09621       12.0110 ; qtot   -0.452
         8            c7bf         1   UNL        c7         8    -0.09361       12.0110 ; qtot   -0.546
         9            c8bf         1   UNL        c8         9    -0.02778       12.0110 ; qtot   -0.574
        10            c9bf         1   UNL        c9        10    -0.02653       12.0110 ; qtot   -0.600
        11           c10bf         1   UNL       c10        11    -0.10326       12.0110 ; qtot   -0.703
        12           c11bf         1   UNL       c11        12    -0.10402       12.0110 ; qtot   -0.807
        13           c12bf         1   UNL       c12        13    -0.09512       12.0110 ; qtot   -0.903
        14           c13bf         1   UNL       c13        14     0.12011       12.0110 ; qtot   -0.782
        15          cl14bf         1   UNL      cl14        15    -0.20970       35.4530 ; qtot   -0.992
        16           c15bf         1   UNL       c15        16    -0.09584       12.0110 ; qtot   -1.088
        17           c16bf         1   UNL       c16        17    -0.06321       12.0110 ; qtot   -1.151
        18           n17bf         1   UNL       n17        18    -0.61295       14.0070 ; qtot   -1.764
        19           c18bf         1   UNL       c18        19     0.93324       12.0110 ; qtot   -0.831
        20           n19bf         1   UNL       n19        20    -0.59258       14.0070 ; qtot   -1.423
        21           n20bf         1   UNL       n20        21    -0.58361       14.0070 ; qtot   -2.007
        22           c21bf         1   UNL       c21        22     0.07179       12.0110 ; qtot   -1.935
        23           c22bf         1   UNL       c22        23     0.54207       12.0110 ; qtot   -1.393
        24           o23bf         1   UNL       o23        24    -0.38582       15.9990 ; qtot   -1.779
        25           h24bf         1   UNL       h24        25     0.04289        1.0080 ; qtot   -1.736
        26           h25bf         1   UNL       h25        26     0.04289        1.0080 ; qtot   -1.693
        27           h26bf         1   UNL       h26        27     0.04289        1.0080 ; qtot   -1.650
        28           h27bf         1   UNL       h27        28     0.06846        1.0080 ; qtot   -1.582
        29           h28bf         1   UNL       h28        29     0.04289        1.0080 ; qtot   -1.539
        30           h29bf         1   UNL       h29        30     0.04289        1.0080 ; qtot   -1.496
        31           h30bf         1   UNL       h30        31     0.04289        1.0080 ; qtot   -1.453
        32           h31bf         1   UNL       h31        32     0.12929        1.0080 ; qtot   -1.324
        33           h32bf         1   UNL       h32        33     0.12066        1.0080 ; qtot   -1.203
        34           h33bf         1   UNL       h33        34     0.11650        1.0080 ; qtot   -1.087
        35           h34bf         1   UNL       h34        35     0.11993        1.0080 ; qtot   -0.967
        36           h35bf         1   UNL       h35        36     0.12261        1.0080 ; qtot   -0.844
        37           h36bf         1   UNL       h36        37     0.13516        1.0080 ; qtot   -0.709
        38           h37bf         1   UNL       h37        38     0.13341        1.0080 ; qtot   -0.576
        39           h38bf         1   UNL       h38        39     0.13077        1.0080 ; qtot   -0.445
        40           h39bf         1   UNL       h39        40     0.40778        1.0080 ; qtot   -0.037
        41           h40bf         1   UNL       h40        41     0.38402        1.0080 ; qtot    0.347
        42           h41bf         1   UNL       h41        42     0.08969        1.0080 ; qtot    0.437
        43           h42bf         1   UNL       h42        43     0.08969        1.0080 ; qtot    0.526
        44           h43bf         1   UNL       h43        44     0.08969        1.0080 ; qtot    0.616
        45           h44bf         1   UNL       h44        45     0.38406        1.0080 ; qtot    1.000

[ bonds ]
;       ai        aj funct               r               k
         1         2     1        0.153573   182991.034814
         1        25     1        0.109363   300997.200049
         1        26     1        0.109363   300997.200049
         1        27     1        0.109363   300997.200049
         2         3     1        0.153573   182991.034814
         2         4     1        0.156218   127120.614941
         2        28     1        0.109598   301244.399268
         3        29     1        0.109363   300997.200049
         3        30     1        0.109363   300997.200049
         3        31     1        0.109363   300997.200049
         4         5     1        0.152519   163371.627026
         4        18     1        0.148768   141620.343042
         4        23     1        0.154500   128015.116040
         5         6     1        0.140111   292859.825684
         5        17     1        0.139920   296103.753613
         6         7     1        0.139658   314919.725635
         6        32     1        0.108515   321410.543799
         7         8     1        0.139586   316123.468359
         7        33     1        0.108612   320061.290625
         8         9     1        0.140531   285804.382031
         8        34     1        0.108587   318592.753613
         9        10     1        0.148301   214182.660327
         9        17     1        0.140395   287075.134131
        10        11     1        0.140642   283730.615527
        10        16     1        0.140548   284644.231152
        11        12     1        0.139639   316467.172314
        11        35     1        0.108557   319942.823975
        12        13     1        0.139818   306197.015186
        12        36     1        0.108593   321221.875635
        13        14     1        0.139667   296743.126221
        13        37     1        0.108450   326068.844531
        14        15     1        0.175898   146278.069189
        14        16     1        0.139434   307507.503027
        16        38     1        0.108450   323511.456250
        17        39     1        0.108494   320125.593066
        18        19     1        0.133313   386130.491406
        18        40     1        0.101323   425114.497705
        19        20     1        0.133057   418278.647656
        19        21     1        0.135584   306381.827246
        20        41     1        0.101330   425081.325000
        20        45     1        0.101330   425081.325000
        21        22     1        0.146725   195302.028345
        21        23     1        0.142401   149091.581909
        22        42     1        0.109021   312395.586670
        22        43     1        0.109021   312395.586670
        22        44     1        0.109021   312395.586670
        23        24     1        0.120446   715199.741992

[ angles ]
;       ai        aj        ak funct           theta             cth
         1         2         3     1      110.892929      634.766160
         1         2         4     1      112.087967      582.358010
         1         2        28     1      108.133255      498.062917
         2         1        25     1      111.090958      508.172292
         2         1        26     1      111.090958      508.172292
         2         1        27     1      111.090958      508.172292
         2         3        29     1      111.090958      508.172292
         2         3        30     1      111.090958      508.172292
         2         3        31     1      111.090958      508.172292
         2         4         5     1      114.526566      534.891610
         2         4        18     1      110.064026      589.231578
         2         4        23     1      110.587204      657.167759
         3         2         4     1      112.087967      582.358010
         3         2        28     1      108.133255      498.062917
         4         2        28     1      104.873657      475.826670
         4         5         6     1      120.337097      485.844527
         4         5        17     1      120.122902      441.956355
         4        18        19     1      112.027283      619.765215
         4        18        40     1      121.547226      361.869459
         4        23        21     1      106.524399      167.360000
         4        23        24     1      127.964157      364.744394
         5         4        18     1      110.449135      616.507957
         5         4        23     1      111.473671      605.584969
         5         6         7     1      119.820969      674.677278
         5         6        32     1      120.542419      409.743590
         5        17         9     1      121.268677      663.011352
         5        17        39     1      119.871315      407.163353
         6         5        17     1      119.454308      688.824326
         6         7         8     1      120.361771      724.310182
         6         7        33     1      119.807091      432.807335
         7         6        32     1      119.568863      425.123602
         7         8         9     1      120.438126      704.283981
         7         8        34     1      119.753983      429.862651
         8         7        33     1      119.786880      438.147496
         8         9        10     1      120.854164      514.556506
         8         9        17     1      118.308365      669.571133
         9         8        34     1      119.774094      427.878162
         9        10        11     1      120.944580      503.462419
         9        10        16     1      120.426231      481.721242
         9        17        39     1      118.857468      420.509780
        10         9        17     1      120.812485      419.018573
        10        11        12     1      120.709496      710.226339
        10        11        35     1      119.625290      429.265114
        10        16        14     1      119.954468      654.295153
        10        16        38     1      120.525940      413.949137
        11        10        16     1      118.518814      610.093928
        11        12        13     1      120.716507      706.259979
        11        12        36     1      119.854904      434.295638
        12        11        35     1      119.665451      434.119208
        12        13        14     1      118.458839      608.116654
        12        13        37     1      121.243332      419.806776
        13        12        36     1      119.403763      439.510571
        13        14        15     1      119.263100      362.742700
        13        14        16     1      121.578903      646.790308
        14        13        37     1      120.373581      408.925605
        14        16        38     1      119.578125      413.311731
        15        14        16     1      119.060081      368.288051
        18         4        23     1      100.391464      347.069267
        18        19        20     1      125.309799      613.975122
        18        19        21     1      111.301025      586.353993
        19        18        40     1      123.257835      429.612994
        19        20        41     1      121.320984      451.159930
        19        20        45     1      121.320984      451.159930
        19        21        22     1      126.587502      467.925553
        19        21        23     1      109.772545      834.231861
        20        19        21     1      123.819397      625.789547
        21        22        42     1      109.246056      484.634068
        21        22        43     1      109.246056      484.634068
        21        22        44     1      109.246056      484.634068
        21        23        24     1      124.402420      652.753350
        22        21        23     1      123.213333      529.735828
        25         1        26     1      107.866066      362.773089
        25         1        27     1      107.866066      362.773089
        26         1        27     1      107.866066      362.773089
        29         3        30     1      107.866066      362.773089
        29         3        31     1      107.866066      362.773089
        30         3        31     1      107.866066      362.773089
        41        20        45     1      117.429977      314.388120
        42        22        43     1      109.820786      349.271620
        42        22        44     1      109.820786      349.271620
        43        22        44     1      109.820801      349.271620

[ dihedrals ] ; propers for gromacs 4.5 or higher, use funct 9
;       ai        aj        ak        al funct           phase               k        pn
         1         2         3        29     9        0.000000       -0.066636         1
         1         2         3        29     9      180.000000        0.019104         2
         1         2         3        29     9        0.000000        0.531759         3
         1         2         3        29     9      180.000000        0.038301         4
         1         2         3        30     9        0.000000       -0.066636         1
         1         2         3        30     9      180.000000        0.019104         2
         1         2         3        30     9        0.000000        0.531759         3
         1         2         3        30     9      180.000000        0.038301         4
         1         2         3        31     9        0.000000       -0.066636         1
         1         2         3        31     9      180.000000        0.019104         2
         1         2         3        31     9        0.000000        0.531759         3
         1         2         3        31     9      180.000000        0.038301         4
         1         2         4         5     9        0.000000        0.558454         1
         1         2         4         5     9      180.000000        0.252599         2
         1         2         4         5     9        0.000000        1.179109         3
         1         2         4         5     9      180.000000        0.065762         4
         1         2         4        18     9        0.000000       -0.100252         1
         1         2         4        18     9      180.000000       -0.092325         2
         1         2         4        18     9        0.000000        0.876770         3
         1         2         4        18     9      180.000000       -0.008146         4
         1         2         4        23     9        0.000000       -0.030853         1
         1         2         4        23     9      180.000000       -0.100592         2
         1         2         4        23     9        0.000000        0.658253         3
         1         2         4        23     9      180.000000        0.013690         4
         2         4         5         6     9        0.000000        0.142336         1
         2         4         5         6     9      180.000000        0.667711         2
         2         4         5         6     9        0.000000        0.271009         3
         2         4         5         6     9      180.000000       -0.007321         4
         2         4         5        17     9        0.000000       -0.018970         1
         2         4         5        17     9      180.000000        0.778886         2
         2         4         5        17     9        0.000000        0.230218         3
         2         4         5        17     9      180.000000       -0.021390         4
         2         4        18        19     9        0.000000       -2.390412         1
         2         4        18        19     9      180.000000        1.640181         2
         2         4        18        19     9        0.000000        0.143669         3
         2         4        18        19     9      180.000000        0.106125         4
         2         4        18        40     9        0.000000        0.848161         1
         2         4        18        40     9      180.000000        0.655421         2
         2         4        18        40     9        0.000000        0.253139         3
         2         4        18        40     9      180.000000       -0.048067         4
         2         4        23        21     9        0.000000       -2.345756         1
         2         4        23        21     9      180.000000        1.915682         2
         2         4        23        21     9        0.000000        0.133771         3
         2         4        23        21     9      180.000000        0.588592         4
         2         4        23        24     9        0.000000       -0.648372         1
         2         4        23        24     9      180.000000        1.518433         2
         2         4        23        24     9        0.000000       -0.467790         3
         2         4        23        24     9      180.000000        0.466207         4
         3         2         1        25     9        0.000000       -0.066636         1
         3         2         1        25     9      180.000000        0.019104         2
         3         2         1        25     9        0.000000        0.531759         3
         3         2         1        25     9      180.000000        0.038301         4
         3         2         1        26     9        0.000000       -0.066636         1
         3         2         1        26     9      180.000000        0.019104         2
         3         2         1        26     9        0.000000        0.531759         3
         3         2         1        26     9      180.000000        0.038301         4
         3         2         1        27     9        0.000000       -0.066636         1
         3         2         1        27     9      180.000000        0.019104         2
         3         2         1        27     9        0.000000        0.531759         3
         3         2         1        27     9      180.000000        0.038301         4
         3         2         4         5     9        0.000000        0.558454         1
         3         2         4         5     9      180.000000        0.252599         2
         3         2         4         5     9        0.000000        1.179109         3
         3         2         4         5     9      180.000000        0.065762         4
         3         2         4        18     9        0.000000       -0.100252         1
         3         2         4        18     9      180.000000       -0.092325         2
         3         2         4        18     9        0.000000        0.876770         3
         3         2         4        18     9      180.000000       -0.008146         4
         3         2         4        23     9        0.000000       -0.030853         1
         3         2         4        23     9      180.000000       -0.100592         2
         3         2         4        23     9        0.000000        0.658253         3
         3         2         4        23     9      180.000000        0.013690         4
         4         2         1        25     9        0.000000       -0.119402         1
         4         2         1        25     9      180.000000        0.053272         2
         4         2         1        25     9        0.000000        0.328425         3
         4         2         1        25     9      180.000000        0.018615         4
         4         2         1        26     9        0.000000       -0.119402         1
         4         2         1        26     9      180.000000        0.053272         2
         4         2         1        26     9        0.000000        0.328425         3
         4         2         1        26     9      180.000000        0.018615         4
         4         2         1        27     9        0.000000       -0.119402         1
         4         2         1        27     9      180.000000        0.053272         2
         4         2         1        27     9        0.000000        0.328425         3
         4         2         1        27     9      180.000000        0.018615         4
         4         2         3        29     9        0.000000       -0.119402         1
         4         2         3        29     9      180.000000        0.053272         2
         4         2         3        29     9        0.000000        0.328425         3
         4         2         3        29     9      180.000000        0.018615         4
         4         2         3        30     9        0.000000       -0.119402         1
         4         2         3        30     9      180.000000        0.053272         2
         4         2         3        30     9        0.000000        0.328425         3
         4         2         3        30     9      180.000000        0.018615         4
         4         2         3        31     9        0.000000       -0.119402         1
         4         2         3        31     9      180.000000        0.053272         2
         4         2         3        31     9        0.000000        0.328425         3
         4         2         3        31     9      180.000000        0.018615         4
         4         5         6         7     9        0.000000        0.177674         1
         4         5         6         7     9      180.000000       14.751517         2
         4         5         6         7     9        0.000000       -0.149896         3
         4         5         6         7     9      180.000000       -0.182764         4
         4         5         6        32     9        0.000000        0.028945         1
         4         5         6        32     9      180.000000       12.694597         2
         4         5         6        32     9        0.000000       -0.324619         3
         4         5         6        32     9      180.000000        0.174502         4
         4         5        17         9     9        0.000000        0.174997         1
         4         5        17         9     9      180.000000       14.581304         2
         4         5        17         9     9        0.000000       -0.115110         3
         4         5        17         9     9      180.000000       -0.256401         4
         4         5        17        39     9        0.000000       -0.006210         1
         4         5        17        39     9      180.000000       12.780956         2
         4         5        17        39     9        0.000000       -0.334211         3
         4         5        17        39     9      180.000000        0.171283         4
         4        18        19        20     9        0.000000        2.612416         1
         4        18        19        20     9      180.000000       17.735223         2
         4        18        19        20     9        0.000000        0.874155         3
         4        18        19        20     9      180.000000       -1.934708         4
         4        18        19        21     9        0.000000       -1.482070         1
         4        18        19        21     9      180.000000       22.536475         2
         4        18        19        21     9        0.000000       -1.372585         3
         4        18        19        21     9      180.000000       -2.699343         4
         4        23        21        19     9        0.000000       -3.207261         1
         4        23        21        19     9      180.000000       11.478737         2
         4        23        21        19     9        0.000000       -1.519175         3
         4        23        21        19     9      180.000000       -0.453444         4
         4        23        21        22     9        0.000000       -1.205217         1
         4        23        21        22     9      180.000000        6.079127         2
         4        23        21        22     9        0.000000        0.176340         3
         4        23        21        22     9      180.000000       -0.132939         4
         5         4         2        28     9        0.000000       -0.375052         1
         5         4         2        28     9      180.000000        0.210143         2
         5         4         2        28     9        0.000000        0.801655         3
         5         4         2        28     9      180.000000        0.041623         4
         5         4        18        19     9        0.000000        0.247569         1
         5         4        18        19     9      180.000000        0.622254         2
         5         4        18        19     9        0.000000        0.283719         3
         5         4        18        19     9      180.000000        0.251048         4
         5         4        18        40     9        0.000000        1.022995         1
         5         4        18        40     9      180.000000        0.715272         2
         5         4        18        40     9        0.000000        0.198559         3
         5         4        18        40     9      180.000000       -0.008454         4
         5         4        23        21     9        0.000000        0.836459         1
         5         4        23        21     9      180.000000        0.726564         2
         5         4        23        21     9        0.000000        0.361719         3
         5         4        23        21     9      180.000000        0.833117         4
         5         4        23        24     9        0.000000       -0.350933         1
         5         4        23        24     9      180.000000        1.379945         2
         5         4        23        24     9        0.000000       -0.297145         3
         5         4        23        24     9      180.000000        0.436177         4
         5         6         7         8     9        0.000000        0.140317         1
         5         6         7         8     9      180.000000       18.572721         2
         5         6         7         8     9        0.000000       -1.485026         3
         5         6         7         8     9      180.000000       -0.442589         4
         5         6         7        33     9        0.000000        0.072608         1
         5         6         7        33     9      180.000000       15.018448         2
         5         6         7        33     9        0.000000       -0.577005         3
         5         6         7        33     9      180.000000        0.100698         4
         5        17         9         8     9        0.000000       -0.038930         1
         5        17         9         8     9      180.000000       18.652277         2
         5        17         9         8     9        0.000000       -1.512221         3
         5        17         9         8     9      180.000000       -0.486644         4
         5        17         9        10     9        0.000000        0.295574         1
         5        17         9        10     9      180.000000       16.783120         2
         5        17         9        10     9        0.000000       -0.122091         3
         5        17         9        10     9      180.000000       -0.414464         4
         6         5         4        18     9        0.000000       -0.221112         1
         6         5         4        18     9      180.000000        1.451903         2
         6         5         4        18     9        0.000000        0.145829         3
         6         5         4        18     9      180.000000        0.198512         4
         6         5         4        23     9        0.000000       -0.202625         1
         6         5         4        23     9      180.000000       -0.493276         2
         6         5         4        23     9        0.000000        0.126979         3
         6         5         4        23     9      180.000000        0.175189         4
         6         5        17         9     9        0.000000       -0.052835         1
         6         5        17         9     9      180.000000       18.941167         2
         6         5        17         9     9        0.000000       -1.508193         3
         6         5        17         9     9      180.000000       -0.426727         4
         6         5        17        39     9        0.000000        0.026804         1
         6         5        17        39     9      180.000000       14.405027         2
         6         5        17        39     9        0.000000       -0.752691         3
         6         5        17        39     9      180.000000        0.077242         4
         6         7         8         9     9        0.000000       -0.035209         1
         6         7         8         9     9      180.000000       18.742423         2
         6         7         8         9     9        0.000000       -1.504017         3
         6         7         8         9     9      180.000000       -0.320854         4
         6         7         8        34     9        0.000000        0.081942         1
         6         7         8        34     9      180.000000       14.570583         2
         6         7         8        34     9        0.000000       -0.746820         3
         6         7         8        34     9      180.000000        0.180738         4
         7         6         5        17     9        0.000000       -0.119548         1
         7         6         5        17     9      180.000000       19.224228         2
         7         6         5        17     9        0.000000       -1.485600         3
         7         6         5        17     9      180.000000       -0.473879         4
         7         8         9        10     9        0.000000        0.230393         1
         7         8         9        10     9      180.000000       16.138719         2
         7         8         9        10     9        0.000000       -0.170314         3
         7         8         9        10     9      180.000000       -0.239830         4
         7         8         9        17     9        0.000000       -0.187212         1
         7         8         9        17     9      180.000000       18.601731         2
         7         8         9        17     9        0.000000       -1.465302         3
         7         8         9        17     9      180.000000       -0.321333         4
         8         7         6        32     9        0.000000        0.062619         1
         8         7         6        32     9      180.000000       14.693401         2
         8         7         6        32     9        0.000000       -0.640098         3
         8         7         6        32     9      180.000000        0.078783         4
         8         9        10        11     9        0.000000       -0.007673         1
         8         9        10        11     9      180.000000        3.330936         2
         8         9        10        11     9        0.000000        0.042995         3
         8         9        10        11     9      180.000000       -0.020547         4
         8         9        10        16     9        0.000000        0.012343         1
         8         9        10        16     9      180.000000        3.332869         2
         8         9        10        16     9        0.000000        0.008260         3
         8         9        10        16     9      180.000000       -0.011868         4
         8         9        17        39     9        0.000000       -0.135659         1
         8         9        17        39     9      180.000000       14.563869         2
         8         9        17        39     9        0.000000       -0.615135         3
         8         9        17        39     9      180.000000       -0.014512         4
         9         8         7        33     9        0.000000       -0.061811         1
         9         8         7        33     9      180.000000       14.749343         2
         9         8         7        33     9        0.000000       -0.605681         3
         9         8         7        33     9      180.000000        0.112692         4
         9        10        11        12     9        0.000000        0.305756         1
         9        10        11        12     9      180.000000       16.370787         2
         9        10        11        12     9        0.000000       -0.083573         3
         9        10        11        12     9      180.000000       -0.282910         4
         9        10        11        35     9        0.000000       -0.069395         1
         9        10        11        35     9      180.000000       13.412475         2
         9        10        11        35     9        0.000000       -0.191922         3
         9        10        11        35     9      180.000000        0.179052         4
         9        10        16        14     9        0.000000        0.228981         1
         9        10        16        14     9      180.000000       16.708027         2
         9        10        16        14     9        0.000000       -0.162579         3
         9        10        16        14     9      180.000000       -0.417023         4
         9        10        16        38     9        0.000000       -0.087783         1
         9        10        16        38     9      180.000000       13.235678         2
         9        10        16        38     9        0.000000       -0.212974         3
         9        10        16        38     9      180.000000        0.206124         4
        10         9         8        34     9        0.000000       -0.104976         1
        10         9         8        34     9      180.000000       13.346715         2
        10         9         8        34     9        0.000000       -0.223323         3
        10         9         8        34     9      180.000000        0.189275         4
        10         9        17        39     9        0.000000       -0.102566         1
        10         9        17        39     9      180.000000       13.302217         2
        10         9        17        39     9        0.000000       -0.158942         3
        10         9        17        39     9      180.000000        0.169556         4
        10        11        12        13     9        0.000000       -0.027105         1
        10        11        12        13     9      180.000000       18.923034         2
        10        11        12        13     9        0.000000       -1.503937         3
        10        11        12        13     9      180.000000       -0.356268         4
        10        11        12        36     9        0.000000       -0.082647         1
        10        11        12        36     9      180.000000       14.805088         2
        10        11        12        36     9        0.000000       -0.643495         3
        10        11        12        36     9      180.000000        0.073654         4
        10        16        14        13     9        0.000000       -0.008240         1
        10        16        14        13     9      180.000000       17.745278         2
        10        16        14        13     9        0.000000       -1.184654         3
        10        16        14        13     9      180.000000       -0.352119         4
        10        16        14        15     9        0.000000        0.356484         1
        10        16        14        15     9      180.000000       19.187195         2
        10        16        14        15     9        0.000000        0.423572         3
        10        16        14        15     9      180.000000       -0.719313         4
        11        10         9        17     9        0.000000       -0.012244         1
        11        10         9        17     9      180.000000        3.433542         2
        11        10         9        17     9        0.000000        0.042849         3
        11        10         9        17     9      180.000000       -0.030671         4
        11        10        16        14     9        0.000000       -0.226810         1
        11        10        16        14     9      180.000000       18.460100         2
        11        10        16        14     9        0.000000       -1.564517         3
        11        10        16        14     9      180.000000       -0.363342         4
        11        10        16        38     9        0.000000       -0.081612         1
        11        10        16        38     9      180.000000       14.063211         2
        11        10        16        38     9        0.000000       -0.651845         3
        11        10        16        38     9      180.000000        0.074764         4
        11        12        13        14     9        0.000000       -0.014672         1
        11        12        13        14     9      180.000000       18.658773         2
        11        12        13        14     9        0.000000       -1.423404         3
        11        12        13        14     9      180.000000       -0.430664         4
        11        12        13        37     9        0.000000        0.015297         1
        11        12        13        37     9      180.000000       13.921456         2
        11        12        13        37     9        0.000000       -0.702882         3
        11        12        13        37     9      180.000000        0.159191         4
        12        11        10        16     9        0.000000       -0.178260         1
        12        11        10        16     9      180.000000       18.281466         2
        12        11        10        16     9        0.000000       -1.464057         3
        12        11        10        16     9      180.000000       -0.353057         4
        12        13        14        15     9        0.000000        0.384560         1
        12        13        14        15     9      180.000000       19.125338         2
        12        13        14        15     9        0.000000        0.328218         3
        12        13        14        15     9      180.000000       -0.554486         4
        12        13        14        16     9        0.000000       -0.060650         1
        12        13        14        16     9      180.000000       17.644798         2
        12        13        14        16     9        0.000000       -1.259503         3
        12        13        14        16     9      180.000000       -0.384797         4
        13        12        11        35     9        0.000000        0.073505         1
        13        12        11        35     9      180.000000       14.891523         2
        13        12        11        35     9        0.000000       -0.707692         3
        13        12        11        35     9      180.000000        0.130542         4
        13        14        16        38     9        0.000000        0.006367         1
        13        14        16        38     9      180.000000       13.721602         2
        13        14        16        38     9        0.000000       -0.619973         3
        13        14        16        38     9      180.000000        0.133122         4
        14        13        12        36     9        0.000000        0.036286         1
        14        13        12        36     9      180.000000       14.441092         2
        14        13        12        36     9        0.000000       -0.533853         3
        14        13        12        36     9      180.000000        0.102825         4
        15        14        13        37     9        0.000000        0.203003         1
        15        14        13        37     9      180.000000       13.237178         2
        15        14        13        37     9        0.000000       -0.115367         3
        15        14        13        37     9      180.000000        0.239543         4
        15        14        16        38     9        0.000000        0.138200         1
        15        14        16        38     9      180.000000       13.815334         2
        15        14        16        38     9        0.000000       -0.095173         3
        15        14        16        38     9      180.000000        0.212289         4
        16        10         9        17     9        0.000000        0.018680         1
        16        10         9        17     9      180.000000        3.448555         2
        16        10         9        17     9        0.000000        0.000935         3
        16        10         9        17     9      180.000000       -0.018859         4
        16        10        11        35     9        0.000000       -0.117209         1
        16        10        11        35     9      180.000000       14.303306         2
        16        10        11        35     9        0.000000       -0.626107         3
        16        10        11        35     9      180.000000        0.027459         4
        16        14        13        37     9        0.000000        0.011133         1
        16        14        13        37     9      180.000000       13.432437         2
        16        14        13        37     9        0.000000       -0.533136         3
        16        14        13        37     9      180.000000        0.083311         4
        17         5         4        18     9        0.000000       -0.010111         1
        17         5         4        18     9      180.000000        1.484481         2
        17         5         4        18     9        0.000000        0.062554         3
        17         5         4        18     9      180.000000        0.190037         4
        17         5         4        23     9        0.000000       -0.526446         1
        17         5         4        23     9      180.000000       -0.371905         2
        17         5         4        23     9        0.000000        0.089353         3
        17         5         4        23     9      180.000000        0.178723         4
        17         5         6        32     9        0.000000        0.022796         1
        17         5         6        32     9      180.000000       14.565823         2
        17         5         6        32     9        0.000000       -0.698828         3
        17         5         6        32     9      180.000000        0.036783         4
        17         9         8        34     9        0.000000       -0.123173         1
        17         9         8        34     9      180.000000       14.594679         2
        17         9         8        34     9        0.000000       -0.692893         3
        17         9         8        34     9      180.000000        0.061281         4
        18         4         2        28     9        0.000000       -0.279350         1
        18         4         2        28     9      180.000000        0.149307         2
        18         4         2        28     9        0.000000        0.772507         3
        18         4         2        28     9      180.000000       -0.105712         4
        18         4        23        21     9        0.000000        0.874419         1
        18         4        23        21     9      180.000000        8.662894         2
        18         4        23        21     9        0.000000       -0.264802         3
        18         4        23        21     9      180.000000       -0.426316         4
        18         4        23        24     9        0.000000        8.257120         1
        18         4        23        24     9      180.000000        6.350335         2
        18         4        23        24     9        0.000000       -0.008813         3
        18         4        23        24     9      180.000000        0.364998         4
        18        19        20        41     9        0.000000       -1.915312         1
        18        19        20        41     9      180.000000        6.480324         2
        18        19        20        41     9        0.000000       -0.093416         3
        18        19        20        41     9      180.000000       -0.491432         4
        18        19        20        45     9        0.000000       -1.915312         1
        18        19        20        45     9      180.000000        6.480324         2
        18        19        20        45     9        0.000000       -0.093416         3
        18        19        20        45     9      180.000000       -0.491432         4
        18        19        21        22     9        0.000000       -2.753278         1
        18        19        21        22     9      180.000000        5.890460         2
        18        19        21        22     9        0.000000       -0.228153         3
        18        19        21        22     9      180.000000        0.051685         4
        18        19        21        23     9        0.000000       -1.484859         1
        18        19        21        23     9      180.000000       14.926387         2
        18        19        21        23     9        0.000000       -2.730301         3
        18        19        21        23     9      180.000000       -1.321654         4
        19        18         4        23     9        0.000000       -1.751347         1
        19        18         4        23     9      180.000000        7.090481         2
        19        18         4        23     9        0.000000       -0.374523         3
        19        18         4        23     9      180.000000       -1.789613         4
        19        21        22        42     9        0.000000        0.016539         1
        19        21        22        42     9      180.000000       -0.004482         2
        19        21        22        42     9        0.000000        0.177476         3
        19        21        22        42     9      180.000000       -0.012118         4
        19        21        22        43     9        0.000000        0.016539         1
        19        21        22        43     9      180.000000       -0.004482         2
        19        21        22        43     9        0.000000        0.177476         3
        19        21        22        43     9      180.000000       -0.012118         4
        19        21        22        44     9        0.000000        0.016539         1
        19        21        22        44     9      180.000000       -0.004482         2
        19        21        22        44     9        0.000000        0.177476         3
        19        21        22        44     9      180.000000       -0.012118         4
        19        21        23        24     9        0.000000        1.247604         1
        19        21        23        24     9      180.000000       17.050865         2
        19        21        23        24     9        0.000000       -0.389407         3
        19        21        23        24     9      180.000000       -0.861929         4
        20        19        18        40     9        0.000000       -0.988637         1
        20        19        18        40     9      180.000000        7.994984         2
        20        19        18        40     9        0.000000        0.402981         3
        20        19        18        40     9      180.000000       -0.443774         4
        20        19        21        22     9        0.000000        1.594883         1
        20        19        21        22     9      180.000000        7.656751         2
        20        19        21        22     9        0.000000       -0.074121         3
        20        19        21        22     9      180.000000       -0.116158         4
        20        19        21        23     9        0.000000        1.414714         1
        20        19        21        23     9      180.000000       13.097311         2
        20        19        21        23     9        0.000000       -0.261202         3
        20        19        21        23     9      180.000000       -0.803874         4
        21        19        18        40     9        0.000000       -0.488996         1
        21        19        18        40     9      180.000000        8.744914         2
        21        19        18        40     9        0.000000        0.134155         3
        21        19        18        40     9      180.000000       -0.837403         4
        21        19        20        41     9        0.000000       -0.779521         1
        21        19        20        41     9      180.000000        6.179367         2
        21        19        20        41     9        0.000000        0.279152         3
        21        19        20        41     9      180.000000       -0.663796         4
        21        19        20        45     9        0.000000       -0.779521         1
        21        19        20        45     9      180.000000        6.179367         2
        21        19        20        45     9        0.000000        0.279152         3
        21        19        20        45     9      180.000000       -0.663796         4
        22        21        23        24     9        0.000000       -0.407088         1
        22        21        23        24     9      180.000000        9.404220         2
        22        21        23        24     9        0.000000       -0.314147         3
        22        21        23        24     9      180.000000        0.250795         4
        23         4         2        28     9        0.000000       -0.089868         1
        23         4         2        28     9      180.000000        0.087248         2
        23         4         2        28     9        0.000000        0.575920         3
        23         4         2        28     9      180.000000        0.009057         4
        23         4        18        40     9        0.000000       -0.504515         1
        23         4        18        40     9      180.000000       -0.482342         2
        23         4        18        40     9        0.000000        0.113310         3
        23         4        18        40     9      180.000000        0.158677         4
        23        21        22        42     9        0.000000       -0.083312         1
        23        21        22        42     9      180.000000       -0.079873         2
        23        21        22        42     9        0.000000       -0.308016         3
        23        21        22        42     9      180.000000        0.054306         4
        23        21        22        43     9        0.000000       -0.083312         1
        23        21        22        43     9      180.000000       -0.079873         2
        23        21        22        43     9        0.000000       -0.308016         3
        23        21        22        43     9      180.000000        0.054306         4
        23        21        22        44     9        0.000000       -0.083312         1
        23        21        22        44     9      180.000000       -0.079873         2
        23        21        22        44     9        0.000000       -0.308016         3
        23        21        22        44     9      180.000000        0.054306         4
        25         1         2        28     9        0.000000        0.087779         1
        25         1         2        28     9      180.000000        0.057632         2
        25         1         2        28     9        0.000000        0.566975         3
        25         1         2        28     9      180.000000       -0.023366         4
        26         1         2        28     9        0.000000        0.087779         1
        26         1         2        28     9      180.000000        0.057632         2
        26         1         2        28     9        0.000000        0.566975         3
        26         1         2        28     9      180.000000       -0.023366         4
        27         1         2        28     9        0.000000        0.087779         1
        27         1         2        28     9      180.000000        0.057632         2
        27         1         2        28     9        0.000000        0.566975         3
        27         1         2        28     9      180.000000       -0.023366         4
        28         2         3        29     9        0.000000        0.087779         1
        28         2         3        29     9      180.000000        0.057632         2
        28         2         3        29     9        0.000000        0.566975         3
        28         2         3        29     9      180.000000       -0.023366         4
        28         2         3        30     9        0.000000        0.087779         1
        28         2         3        30     9      180.000000        0.057632         2
        28         2         3        30     9        0.000000        0.566975         3
        28         2         3        30     9      180.000000       -0.023366         4
        28         2         3        31     9        0.000000        0.087779         1
        28         2         3        31     9      180.000000        0.057632         2
        28         2         3        31     9        0.000000        0.566975         3
        28         2         3        31     9      180.000000       -0.023366         4
        32         6         7        33     9        0.000000       -0.137112         1
        32         6         7        33     9      180.000000       11.931861         2
        32         6         7        33     9        0.000000       -0.727578         3
        32         6         7        33     9      180.000000        0.303260         4
        33         7         8        34     9        0.000000       -0.173564         1
        33         7         8        34     9      180.000000       11.938521         2
        33         7         8        34     9        0.000000       -0.730809         3
        33         7         8        34     9      180.000000        0.326092         4
        35        11        12        36     9        0.000000       -0.202412         1
        35        11        12        36     9      180.000000       12.044166         2
        35        11        12        36     9        0.000000       -0.720039         3
        35        11        12        36     9      180.000000        0.322236         4
        36        12        13        37     9        0.000000       -0.177599         1
        36        12        13        37     9      180.000000       11.407348         2
        36        12        13        37     9        0.000000       -0.617575         3
        36        12        13        37     9      180.000000        0.288706         4

[ dihedrals ] ; impropers
;       ai        aj        ak        al funct           phase               k        pn
        19        18        20        21     4      180.000000       10.692592         2
        19        20        21        18     4      180.000000       10.692592         2
        19        21        18        20     4      180.000000       10.692592         2
        23         4        21        24     4      180.000000       27.893333         2
        23        21        24         4     4      180.000000       27.893333         2
        23        24         4        21     4      180.000000       27.893333         2

[ pairs ]
;       ai        aj funct
         1         5     1
         1        18     1
         1        23     1
         1        29     1
         1        30     1
         1        31     1
         2         6     1
         2        17     1
         2        19     1
         2        21     1
         2        24     1
         2        40     1
         3         5     1
         3        18     1
         3        23     1
         3        25     1
         3        26     1
         3        27     1
         4         7     1
         4         9     1
         4        20     1
         4        22     1
         4        25     1
         4        26     1
         4        27     1
         4        29     1
         4        30     1
         4        31     1
         4        32     1
         4        39     1
         5         8     1
         5        10     1
         5        19     1
         5        21     1
         5        24     1
         5        28     1
         5        33     1
         5        40     1
         6         9     1
         6        18     1
         6        23     1
         6        34     1
         6        39     1
         7        10     1
         7        17     1
         8        11     1
         8        16     1
         8        32     1
         8        39     1
         9        12     1
         9        14     1
         9        33     1
         9        35     1
         9        38     1
        10        13     1
        10        15     1
        10        34     1
        10        36     1
        10        39     1
        11        14     1
        11        17     1
        11        37     1
        11        38     1
        12        15     1
        12        16     1
        13        35     1
        13        38     1
        14        36     1
        15        37     1
        15        38     1
        16        17     1
        16        35     1
        16        37     1
        17        18     1
        17        23     1
        17        32     1
        17        34     1
        18        22     1
        18        24     1
        18        28     1
        18        41     1
        18        45     1
        19        24     1
        19        42     1
        19        43     1
        19        44     1
        20        22     1
        20        23     1
        20        40     1
        21        40     1
        21        41     1
        21        45     1
        22        24     1
        23        28     1
        23        40     1
        23        42     1
        23        43     1
        23        44     1
        25        28     1
        26        28     1
        27        28     1
        28        29     1
        28        30     1
        28        31     1
        32        33     1
        33        34     1
        35        36     1
        36        37     1
