; ITP file created by ByteFF-joint-25, 2026-02-18 03:16:15.756340

[ atomtypes ]
;name           bonded.type        at.num        mass        charge   ptype           sigma         epsilon
 c0bf                                   6      0.0000       0.00000       A     3.39733e-01     4.51254e-01    ;  uncertainty sigma = 0.000013, epsilon = 0.001262
 n1bf                                   7      0.0000       0.00000       A     3.18106e-01     6.83348e-01    ;  uncertainty sigma = 0.000075, epsilon = 0.006498
 c2bf                                   6      0.0000       0.00000       A     3.31514e-01     4.12305e-01    ;  uncertainty sigma = 0.000056, epsilon = 0.001447
 n3bf                                   7      0.0000       0.00000       A     3.36546e-01     4.71601e-01    ;  uncertainty sigma = 0.000088, epsilon = 0.005519
 n4bf                                   7      0.0000       0.00000       A     3.27457e-01     6.58404e-01    ;  uncertainty sigma = 0.000111, epsilon = 0.017997
 c5bf                                   6      0.0000       0.00000       A     3.39761e-01     4.51452e-01    ;  uncertainty sigma = 0.000062, epsilon = 0.001880
 c6bf                                   6      0.0000       0.00000       A     3.31491e-01     4.13856e-01    ;  uncertainty sigma = 0.000027, epsilon = 0.001054
 c7bf                                   6      0.0000       0.00000       A     3.31507e-01     4.13151e-01    ;  uncertainty sigma = 0.000003, epsilon = 0.000585
 c8bf                                   6      0.0000       0.00000       A     3.31522e-01     4.13324e-01    ;  uncertainty sigma = 0.000003, epsilon = 0.000652
 c9bf                                   6      0.0000       0.00000       A     3.31513e-01     4.13269e-01    ;  uncertainty sigma = 0.000005, epsilon = 0.000649
 c10bf                                  6      0.0000       0.00000       A     3.31500e-01     4.13475e-01    ;  uncertainty sigma = 0.000008, epsilon = 0.000533
 c11bf                                  6      0.0000       0.00000       A     3.31513e-01     4.13167e-01    ;  uncertainty sigma = 0.000009, epsilon = 0.000575
 c12bf                                  6      0.0000       0.00000       A     3.31511e-01     4.13320e-01    ;  uncertainty sigma = 0.000005, epsilon = 0.000665
 c13bf                                  6      0.0000       0.00000       A     3.31521e-01     4.13375e-01    ;  uncertainty sigma = 0.000003, epsilon = 0.000656
 c14bf                                  6      0.0000       0.00000       A     3.31522e-01     4.13446e-01    ;  uncertainty sigma = 0.000004, epsilon = 0.000552
 c15bf                                  6      0.0000       0.00000       A     3.31526e-01     4.13122e-01    ;  uncertainty sigma = 0.000006, epsilon = 0.000502
 cl16bf                                17      0.0000       0.00000       A     3.46610e-01     1.10414e+00    ;  uncertainty sigma = 0.000013, epsilon = 0.001445
 c17bf                                  6      0.0000       0.00000       A     3.31523e-01     4.13401e-01    ;  uncertainty sigma = 0.000007, epsilon = 0.000655
 c18bf                                  6      0.0000       0.00000       A     3.31517e-01     4.13184e-01    ;  uncertainty sigma = 0.000017, epsilon = 0.000982
 c19bf                                  6      0.0000       0.00000       A     3.39885e-01     4.50774e-01    ;  uncertainty sigma = 0.000039, epsilon = 0.001644
 c20bf                                  6      0.0000       0.00000       A     3.39740e-01     4.50644e-01    ;  uncertainty sigma = 0.000021, epsilon = 0.000840
 c21bf                                  6      0.0000       0.00000       A     3.39755e-01     4.51044e-01    ;  uncertainty sigma = 0.000027, epsilon = 0.001122
 c22bf                                  6      0.0000       0.00000       A     3.39755e-01     4.51044e-01    ;  uncertainty sigma = 0.000027, epsilon = 0.001122
 c23bf                                  6      0.0000       0.00000       A     3.31567e-01     4.13976e-01    ;  uncertainty sigma = 0.000014, epsilon = 0.000867
 o24bf                                  8      0.0000       0.00000       A     3.04820e-01     6.12102e-01    ;  uncertainty sigma = 0.000053, epsilon = 0.001927
 h25bf                                  1      0.0000       0.00000       A     2.42208e-01     8.66970e-02    ;  uncertainty sigma = 0.000028, epsilon = 0.000664
 h26bf                                  1      0.0000       0.00000       A     2.42208e-01     8.66970e-02    ;  uncertainty sigma = 0.000028, epsilon = 0.000664
 h27bf                                  1      0.0000       0.00000       A     2.42208e-01     8.66970e-02    ;  uncertainty sigma = 0.000028, epsilon = 0.000664
 h28bf                                  1      0.0000       0.00000       A     1.10696e-01     4.12787e-02    ;  uncertainty sigma = 0.000128, epsilon = 0.001559
 h29bf                                  1      0.0000       0.00000       A     1.10555e-01     4.03893e-02    ;  uncertainty sigma = 0.000087, epsilon = 0.001838
 h30bf                                  1      0.0000       0.00000       A     2.62559e-01     6.70864e-02    ;  uncertainty sigma = 0.000006, epsilon = 0.000392
 h31bf                                  1      0.0000       0.00000       A     2.62564e-01     6.70136e-02    ;  uncertainty sigma = 0.000010, epsilon = 0.000418
 h32bf                                  1      0.0000       0.00000       A     2.62562e-01     6.70409e-02    ;  uncertainty sigma = 0.000012, epsilon = 0.000506
 h33bf                                  1      0.0000       0.00000       A     2.62562e-01     6.70409e-02    ;  uncertainty sigma = 0.000012, epsilon = 0.000506
 h34bf                                  1      0.0000       0.00000       A     2.62568e-01     6.69665e-02    ;  uncertainty sigma = 0.000007, epsilon = 0.000468
 h35bf                                  1      0.0000       0.00000       A     2.62560e-01     6.70939e-02    ;  uncertainty sigma = 0.000009, epsilon = 0.000590
 h36bf                                  1      0.0000       0.00000       A     2.62559e-01     6.71672e-02    ;  uncertainty sigma = 0.000013, epsilon = 0.000620
 h37bf                                  1      0.0000       0.00000       A     2.62550e-01     6.72383e-02    ;  uncertainty sigma = 0.000015, epsilon = 0.000625
 h38bf                                  1      0.0000       0.00000       A     2.59999e-01     8.66318e-02    ;  uncertainty sigma = 0.000029, epsilon = 0.000655
 h39bf                                  1      0.0000       0.00000       A     2.59999e-01     8.66318e-02    ;  uncertainty sigma = 0.000029, epsilon = 0.000655
 h40bf                                  1      0.0000       0.00000       A     2.59999e-01     8.66318e-02    ;  uncertainty sigma = 0.000029, epsilon = 0.000655
 h41bf                                  1      0.0000       0.00000       A     2.60049e-01     8.63724e-02    ;  uncertainty sigma = 0.000026, epsilon = 0.000485
 h42bf                                  1      0.0000       0.00000       A     2.60049e-01     8.63724e-02    ;  uncertainty sigma = 0.000026, epsilon = 0.000485
 h43bf                                  1      0.0000       0.00000       A     2.60049e-01     8.63724e-02    ;  uncertainty sigma = 0.000026, epsilon = 0.000485
 h44bf                                  1      0.0000       0.00000       A     2.60049e-01     8.63724e-02    ;  uncertainty sigma = 0.000026, epsilon = 0.000485
 h45bf                                  1      0.0000       0.00000       A     1.10696e-01     4.12786e-02    ;  uncertainty sigma = 0.000128, epsilon = 0.001560

[ moleculetype ]
;name             nrexcl
 MOL                   3

[ atoms ]
;       nr            type      resi   res      atom      cgnr      charge          mass ; qtot
         1            c0bf         1   UNL        c0         1     0.07510       12.0110 ; qtot    0.075
         2            n1bf         1   UNL        n1         2    -0.42175       14.0070 ; qtot   -0.347
         3            c2bf         1   UNL        c2         3     0.45884       12.0110 ; qtot    0.112
         4            n3bf         1   UNL        n3         4    -0.48057       14.0070 ; qtot   -0.368
         5            n4bf         1   UNL        n4         5    -0.37424       14.0070 ; qtot   -0.743
         6            c5bf         1   UNL        c5         6     0.08884       12.0110 ; qtot   -0.654
         7            c6bf         1   UNL        c6         7    -0.12655       12.0110 ; qtot   -0.780
         8            c7bf         1   UNL        c7         8    -0.09773       12.0110 ; qtot   -0.878
         9            c8bf         1   UNL        c8         9    -0.11245       12.0110 ; qtot   -0.991
        10            c9bf         1   UNL        c9        10    -0.09585       12.0110 ; qtot   -1.086
        11           c10bf         1   UNL       c10        11    -0.01930       12.0110 ; qtot   -1.106
        12           c11bf         1   UNL       c11        12    -0.03437       12.0110 ; qtot   -1.140
        13           c12bf         1   UNL       c12        13    -0.11891       12.0110 ; qtot   -1.259
        14           c13bf         1   UNL       c13        14    -0.12274       12.0110 ; qtot   -1.382
        15           c14bf         1   UNL       c14        15    -0.11373       12.0110 ; qtot   -1.495
        16           c15bf         1   UNL       c15        16     0.03067       12.0110 ; qtot   -1.465
        17          cl16bf         1   UNL      cl16        17    -0.11712       35.4530 ; qtot   -1.582
        18           c17bf         1   UNL       c17        18    -0.11226       12.0110 ; qtot   -1.694
        19           c18bf         1   UNL       c18        19    -0.08342       12.0110 ; qtot   -1.778
        20           c19bf         1   UNL       c19        20    -0.15693       12.0110 ; qtot   -1.934
        21           c20bf         1   UNL       c20        21    -0.07011       12.0110 ; qtot   -2.005
        22           c21bf         1   UNL       c21        22    -0.10225       12.0110 ; qtot   -2.107
        23           c22bf         1   UNL       c22        23    -0.10225       12.0110 ; qtot   -2.209
        24           c23bf         1   UNL       c23        24     0.71651       12.0110 ; qtot   -1.493
        25           o24bf         1   UNL       o24        25    -0.45629       15.9990 ; qtot   -1.949
        26           h25bf         1   UNL       h25        26     0.09037        1.0080 ; qtot   -1.858
        27           h26bf         1   UNL       h26        27     0.09037        1.0080 ; qtot   -1.768
        28           h27bf         1   UNL       h27        28     0.09037        1.0080 ; qtot   -1.678
        29           h28bf         1   UNL       h28        29     0.33562        1.0080 ; qtot   -1.342
        30           h29bf         1   UNL       h29        30     0.35147        1.0080 ; qtot   -0.991
        31           h30bf         1   UNL       h30        31     0.14514        1.0080 ; qtot   -0.846
        32           h31bf         1   UNL       h31        32     0.14635        1.0080 ; qtot   -0.699
        33           h32bf         1   UNL       h32        33     0.13653        1.0080 ; qtot   -0.563
        34           h33bf         1   UNL       h33        34     0.13932        1.0080 ; qtot   -0.423
        35           h34bf         1   UNL       h34        35     0.13920        1.0080 ; qtot   -0.284
        36           h35bf         1   UNL       h35        36     0.15171        1.0080 ; qtot   -0.132
        37           h36bf         1   UNL       h36        37     0.15143        1.0080 ; qtot    0.019
        38           h37bf         1   UNL       h37        38     0.14681        1.0080 ; qtot    0.166
        39           h38bf         1   UNL       h38        39     0.05013        1.0080 ; qtot    0.216
        40           h39bf         1   UNL       h39        40     0.05013        1.0080 ; qtot    0.266
        41           h40bf         1   UNL       h40        41     0.05013        1.0080 ; qtot    0.316
        42           h41bf         1   UNL       h41        42     0.08705        1.0080 ; qtot    0.403
        43           h42bf         1   UNL       h42        43     0.08705        1.0080 ; qtot    0.490
        44           h43bf         1   UNL       h43        44     0.08705        1.0080 ; qtot    0.577
        45           h44bf         1   UNL       h44        45     0.08705        1.0080 ; qtot    0.664
        46           h45bf         1   UNL       h45        46     0.33558        1.0080 ; qtot    1.000

[ bonds ]
;       ai        aj funct               r               k
         1         2     1        0.146657   260885.066406    ;  uncertainty r = 0.000126, k = 11.951860
         1        26     1        0.109173   309392.626904    ;  uncertainty r = 0.000044, k = 3.074427
         1        27     1        0.109173   309392.626904    ;  uncertainty r = 0.000044, k = 3.074427
         1        28     1        0.109173   309392.626904    ;  uncertainty r = 0.000044, k = 3.074427
         2         3     1        0.135501   283413.444629    ;  uncertainty r = 0.000209, k = 43.897322
         2        24     1        0.142815   298566.016162    ;  uncertainty r = 0.000391, k = 65.916841
         3         4     1        0.133087   314584.270166    ;  uncertainty r = 0.000242, k = 39.874214
         3         5     1        0.133491   531422.445117    ;  uncertainty r = 0.000134, k = 51.582084
         4        29     1        0.101395   420938.337598    ;  uncertainty r = 0.000072, k = 12.186656
         4        46     1        0.101395   420938.388672    ;  uncertainty r = 0.000072, k = 12.186639
         5         6     1        0.149826   219855.971777    ;  uncertainty r = 0.000403, k = 74.789452
         5        30     1        0.101513   427468.865967    ;  uncertainty r = 0.000059, k = 5.065724
         6         7     1        0.150924   206901.494165    ;  uncertainty r = 0.000132, k = 15.128134
         6        20     1        0.151692   195992.436865    ;  uncertainty r = 0.000120, k = 25.335221
         6        24     1        0.153454   177415.121899    ;  uncertainty r = 0.000430, k = 19.429228
         7         8     1        0.139753   351336.690625    ;  uncertainty r = 0.000032, k = 5.692099
         7        19     1        0.139537   343895.125879    ;  uncertainty r = 0.000020, k = 8.325006
         8         9     1        0.139468   369111.591309    ;  uncertainty r = 0.000022, k = 1.198155
         8        31     1        0.108779   333108.353027    ;  uncertainty r = 0.000026, k = 2.646029
         9        10     1        0.139329   371020.030566    ;  uncertainty r = 0.000025, k = 2.446582
         9        32     1        0.108773   333044.357031    ;  uncertainty r = 0.000024, k = 1.073341
        10        11     1        0.140093   347628.753418    ;  uncertainty r = 0.000015, k = 1.016472
        10        33     1        0.108820   334865.306152    ;  uncertainty r = 0.000023, k = 0.943338
        11        12     1        0.147965   271899.170605    ;  uncertainty r = 0.000041, k = 4.477553
        11        19     1        0.139807   338445.021533    ;  uncertainty r = 0.000071, k = 2.329698
        12        13     1        0.140235   345940.929248    ;  uncertainty r = 0.000017, k = 2.209472
        12        18     1        0.140145   349973.877246    ;  uncertainty r = 0.000025, k = 1.038770
        13        14     1        0.139452   367068.213965    ;  uncertainty r = 0.000025, k = 1.779929
        13        34     1        0.108805   334917.401855    ;  uncertainty r = 0.000025, k = 0.881878
        14        15     1        0.139500   374338.220410    ;  uncertainty r = 0.000020, k = 1.415152
        14        35     1        0.108776   333408.771582    ;  uncertainty r = 0.000008, k = 1.051657
        15        16     1        0.139473   361470.709424    ;  uncertainty r = 0.000016, k = 2.291888
        15        36     1        0.108715   335671.742529    ;  uncertainty r = 0.000009, k = 0.604869
        16        17     1        0.175805   197124.279858    ;  uncertainty r = 0.000030, k = 2.861100
        16        18     1        0.139310   357391.896777    ;  uncertainty r = 0.000022, k = 1.821603
        18        37     1        0.108730   336354.375000    ;  uncertainty r = 0.000018, k = 1.108077
        19        38     1        0.108823   333548.510645    ;  uncertainty r = 0.000019, k = 1.967341
        20        21     1        0.151727   211592.929297    ;  uncertainty r = 0.000123, k = 6.215258
        20        22     1        0.151269   199643.068799    ;  uncertainty r = 0.000149, k = 9.804173
        20        23     1        0.151269   199643.068799    ;  uncertainty r = 0.000149, k = 9.804173
        21        39     1        0.109557   310566.261377    ;  uncertainty r = 0.000034, k = 1.310683
        21        40     1        0.109557   310566.261377    ;  uncertainty r = 0.000034, k = 1.310683
        21        41     1        0.109557   310566.261377    ;  uncertainty r = 0.000034, k = 1.310683
        22        23     1        0.150958   219121.626660    ;  uncertainty r = 0.000162, k = 6.080337
        22        42     1        0.108682   312979.416064    ;  uncertainty r = 0.000039, k = 3.529717
        22        43     1        0.108682   312979.416064    ;  uncertainty r = 0.000039, k = 3.529717
        23        44     1        0.108682   312979.416064    ;  uncertainty r = 0.000039, k = 3.529717
        23        45     1        0.108682   312979.416064    ;  uncertainty r = 0.000039, k = 3.529717
        24        25     1        0.120228   628122.387109    ;  uncertainty r = 0.000212, k = 12.737594

[ angles ]
;       ai        aj        ak funct           theta             cth
         1         2         3     1      118.635620      373.650621    ;  uncertainty theta = 0.007341, k = 0.424831
         1         2        24     1      119.108963      398.262808    ;  uncertainty theta = 0.009050, k = 0.296113
         2         1        26     1      107.386826      470.538797    ;  uncertainty theta = 0.002437, k = 0.223060
         2         1        27     1      107.386826      470.538797    ;  uncertainty theta = 0.002437, k = 0.223060
         2         1        28     1      107.386826      470.538797    ;  uncertainty theta = 0.002437, k = 0.223060
         2         3         4     1      125.917709      534.615810    ;  uncertainty theta = 0.010953, k = 0.293808
         2         3         5     1      113.175331      706.603836    ;  uncertainty theta = 0.009923, k = 0.275284
         2        24         6     1      110.065125      489.715538    ;  uncertainty theta = 0.005492, k = 0.635136
         2        24        25     1      125.162010      651.264473    ;  uncertainty theta = 0.010376, k = 0.121904
         3         2        24     1      110.426376      716.141053    ;  uncertainty theta = 0.010505, k = 0.266007
         3         4        29     1      114.805252      368.607010    ;  uncertainty theta = 0.004201, k = 0.181221
         3         4        46     1      114.805252      368.607042    ;  uncertainty theta = 0.004201, k = 0.181221
         3         5         6     1      112.132095      604.465869    ;  uncertainty theta = 0.015985, k = 0.400594
         3         5        30     1      119.315659      354.183810    ;  uncertainty theta = 0.009252, k = 0.158755
         4         3         5     1      128.625687      646.281034    ;  uncertainty theta = 0.007752, k = 0.331431
         5         6         7     1      110.278275      627.747221    ;  uncertainty theta = 0.008174, k = 0.202975
         5         6        20     1      109.787125      606.704835    ;  uncertainty theta = 0.008086, k = 0.106946
         5         6        24     1      102.835510      937.207445    ;  uncertainty theta = 0.007981, k = 0.555686
         6         5        30     1      117.616722      295.395246    ;  uncertainty theta = 0.008609, k = 0.330180
         6         7         8     1      116.953758      369.312728    ;  uncertainty theta = 0.006924, k = 0.226369
         6         7        19     1      116.364761      369.823949    ;  uncertainty theta = 0.006388, k = 0.179017
         6        20        21     1      114.239586      405.634606    ;  uncertainty theta = 0.008182, k = 0.373334
         6        20        22     1      109.393166      316.660603    ;  uncertainty theta = 0.011397, k = 0.201461
         6        20        23     1      109.393166      316.660603    ;  uncertainty theta = 0.011397, k = 0.201461
         6        24        25     1      125.524315      411.787964    ;  uncertainty theta = 0.009324, k = 0.151574
         7         6        20     1      112.435204      501.029212    ;  uncertainty theta = 0.010110, k = 0.311897
         7         6        24     1      109.092148      486.021148    ;  uncertainty theta = 0.004110, k = 0.115053
         7         8         9     1      120.399033      513.320254    ;  uncertainty theta = 0.003759, k = 0.036734
         7         8        31     1      118.642250      270.880227    ;  uncertainty theta = 0.003578, k = 0.047314
         7        19        11     1      122.519363      513.623795    ;  uncertainty theta = 0.001821, k = 0.180142
         7        19        38     1      118.299950      270.788421    ;  uncertainty theta = 0.003101, k = 0.071483
         8         7        19     1      123.252762      437.356132    ;  uncertainty theta = 0.006362, k = 0.166349
         8         9        10     1      120.345154      509.133030    ;  uncertainty theta = 0.002500, k = 0.084456
         8         9        32     1      119.805992      282.150583    ;  uncertainty theta = 0.002149, k = 0.045154
         9         8        31     1      120.247437      300.167493    ;  uncertainty theta = 0.003088, k = 0.018580
         9        10        11     1      119.856079      533.741674    ;  uncertainty theta = 0.002533, k = 0.069104
         9        10        33     1      120.256119      294.317580    ;  uncertainty theta = 0.001009, k = 0.017634
        10         9        32     1      120.382919      284.275111    ;  uncertainty theta = 0.000810, k = 0.049636
        10        11        12     1      121.108765      406.280343    ;  uncertainty theta = 0.001685, k = 0.144542
        10        11        19     1      120.113487      404.494342    ;  uncertainty theta = 0.004579, k = 0.233117
        11        10        33     1      118.978149      278.261856    ;  uncertainty theta = 0.000623, k = 0.090439
        11        12        13     1      120.635498      411.787453    ;  uncertainty theta = 0.002216, k = 0.046097
        11        12        18     1      119.857498      410.875203    ;  uncertainty theta = 0.001689, k = 0.054241
        11        19        38     1      118.834839      282.600898    ;  uncertainty theta = 0.001831, k = 0.075884
        12        11        19     1      120.021301      413.767121    ;  uncertainty theta = 0.002498, k = 0.153133
        12        13        14     1      120.504349      532.913346    ;  uncertainty theta = 0.001618, k = 0.068709
        12        13        34     1      119.203636      278.269901    ;  uncertainty theta = 0.001744, k = 0.040876
        12        18        16     1      119.741173      510.605660    ;  uncertainty theta = 0.001091, k = 0.073584
        12        18        37     1      120.095413      273.299613    ;  uncertainty theta = 0.001008, k = 0.066605
        13        12        18     1      120.374191      415.451390    ;  uncertainty theta = 0.002120, k = 0.132953
        13        14        15     1      120.717369      509.837057    ;  uncertainty theta = 0.001401, k = 0.048240
        13        14        35     1      120.238693      282.499708    ;  uncertainty theta = 0.001326, k = 0.011496
        14        13        34     1      120.338760      294.190309    ;  uncertainty theta = 0.001360, k = 0.032086
        14        15        16     1      117.430496      514.054606    ;  uncertainty theta = 0.001033, k = 0.048095
        14        15        36     1      121.325417      283.555061    ;  uncertainty theta = 0.001286, k = 0.023037
        15        14        35     1      119.863365      284.707455    ;  uncertainty theta = 0.000778, k = 0.019642
        15        16        17     1      120.461792      447.827848    ;  uncertainty theta = 0.001141, k = 0.053761
        15        16        18     1      121.555298      359.688909    ;  uncertainty theta = 0.001133, k = 0.149052
        16        15        36     1      121.035461      285.494859    ;  uncertainty theta = 0.001567, k = 0.028924
        16        18        37     1      120.760788      292.340624    ;  uncertainty theta = 0.001328, k = 0.049697
        17        16        18     1      120.006104      442.243297    ;  uncertainty theta = 0.000762, k = 0.110065
        20         6        24     1      107.840981      485.379241    ;  uncertainty theta = 0.006250, k = 0.264300
        20        21        39     1      108.358849      388.911853    ;  uncertainty theta = 0.001544, k = 0.085468
        20        21        40     1      108.358849      388.911853    ;  uncertainty theta = 0.001544, k = 0.085468
        20        21        41     1      108.358849      388.911853    ;  uncertainty theta = 0.001544, k = 0.085468
        20        22        23     1       60.207611      167.360000    ;  uncertainty theta = 0.040664, k = 0.000000
        20        22        42     1      109.352295      205.293301    ;  uncertainty theta = 0.006317, k = 0.234798
        20        22        43     1      109.352295      205.293301    ;  uncertainty theta = 0.006317, k = 0.234798
        20        23        22     1       60.207611      167.360000    ;  uncertainty theta = 0.040664, k = 0.000000
        20        23        44     1      109.352295      205.293301    ;  uncertainty theta = 0.006317, k = 0.234798
        20        23        45     1      109.352295      205.293301    ;  uncertainty theta = 0.006317, k = 0.234798
        21        20        22     1      113.658707      295.333318    ;  uncertainty theta = 0.005451, k = 0.258383
        21        20        23     1      113.658707      295.333318    ;  uncertainty theta = 0.005451, k = 0.258383
        22        20        23     1       58.657795      167.360000    ;  uncertainty theta = 0.038669, k = 0.000000
        22        23        44     1      109.678787      224.044163    ;  uncertainty theta = 0.003297, k = 0.310606
        22        23        45     1      109.678787      224.044163    ;  uncertainty theta = 0.003297, k = 0.310606
        23        22        42     1      109.678787      224.044163    ;  uncertainty theta = 0.003297, k = 0.310606
        23        22        43     1      109.678787      224.044163    ;  uncertainty theta = 0.003297, k = 0.310606
        26         1        27     1      107.626610      325.638365    ;  uncertainty theta = 0.003338, k = 0.102136
        26         1        28     1      107.626610      325.638365    ;  uncertainty theta = 0.003338, k = 0.102136
        27         1        28     1      107.626610      325.638365    ;  uncertainty theta = 0.003338, k = 0.102136
        29         4        46     1      112.405212      264.736094    ;  uncertainty theta = 0.015790, k = 0.355763
        39        21        40     1      105.729759      318.454713    ;  uncertainty theta = 0.001196, k = 0.055613
        39        21        41     1      105.729759      318.454713    ;  uncertainty theta = 0.001196, k = 0.055613
        40        21        41     1      105.729759      318.454713    ;  uncertainty theta = 0.001196, k = 0.055613
        42        22        43     1      113.939072      201.673160    ;  uncertainty theta = 0.006085, k = 0.090679
        44        23        45     1      113.939072      201.673160    ;  uncertainty theta = 0.006085, k = 0.090679

[ dihedrals ] ; propers for gromacs 4.5 or higher, use funct 9
;       ai        aj        ak        al funct           phase               k        pn
         1         2         3         4     9        0.000000        0.000777         1    ;  uncertainty k = 0.670586
         1         2         3         4     9      180.000000        6.873220         2    ;  uncertainty k = 0.673734
         1         2         3         4     9        0.000000        0.941570         3    ;  uncertainty k = 0.716494
         1         2         3         4     9      180.000000       -0.003154         4    ;  uncertainty k = 0.310324
         1         2         3         5     9        0.000000       -0.334125         1    ;  uncertainty k = 2.424995
         1         2         3         5     9      180.000000        8.046323         2    ;  uncertainty k = 0.431274
         1         2         3         5     9        0.000000        0.213590         3    ;  uncertainty k = 0.218645
         1         2         3         5     9      180.000000       -0.122702         4    ;  uncertainty k = 0.263117
         1         2        24         6     9        0.000000        4.984490         1    ;  uncertainty k = 2.280349
         1         2        24         6     9      180.000000        4.602290         2    ;  uncertainty k = 1.260769
         1         2        24         6     9        0.000000        1.313457         3    ;  uncertainty k = 0.747517
         1         2        24         6     9      180.000000        0.180409         4    ;  uncertainty k = 0.477890
         1         2        24        25     9        0.000000       -0.645754         1    ;  uncertainty k = 3.202785
         1         2        24        25     9      180.000000        8.402027         2    ;  uncertainty k = 0.450881
         1         2        24        25     9        0.000000        0.595044         3    ;  uncertainty k = 0.495437
         1         2        24        25     9      180.000000        0.201742         4    ;  uncertainty k = 0.233817
         2         3         4        29     9        0.000000        7.508695         1    ;  uncertainty k = 1.978539
         2         3         4        29     9      180.000000        9.433518         2    ;  uncertainty k = 0.648250
         2         3         4        29     9        0.000000        0.985403         3    ;  uncertainty k = 0.520007
         2         3         4        29     9      180.000000       -0.952804         4    ;  uncertainty k = 0.242139
         2         3         4        46     9        0.000000        7.508695         1    ;  uncertainty k = 1.978540
         2         3         4        46     9      180.000000        9.433518         2    ;  uncertainty k = 0.648250
         2         3         4        46     9        0.000000        0.985403         3    ;  uncertainty k = 0.520006
         2         3         4        46     9      180.000000       -0.952804         4    ;  uncertainty k = 0.242139
         2         3         5         6     9        0.000000        1.111687         1    ;  uncertainty k = 1.684721
         2         3         5         6     9      180.000000       15.379435         2    ;  uncertainty k = 0.258899
         2         3         5         6     9        0.000000       -0.108975         3    ;  uncertainty k = 0.976649
         2         3         5         6     9      180.000000       -0.576037         4    ;  uncertainty k = 0.223619
         2         3         5        30     9        0.000000        4.304995         1    ;  uncertainty k = 3.350796
         2         3         5        30     9      180.000000       10.879889         2    ;  uncertainty k = 0.675199
         2         3         5        30     9        0.000000        1.054644         3    ;  uncertainty k = 0.716122
         2         3         5        30     9      180.000000       -0.446658         4    ;  uncertainty k = 0.162960
         2        24         6         5     9        0.000000        0.607654         1    ;  uncertainty k = 3.104610
         2        24         6         5     9      180.000000        6.956127         2    ;  uncertainty k = 0.789438
         2        24         6         5     9        0.000000        0.447166         3    ;  uncertainty k = 0.613761
         2        24         6         5     9      180.000000        0.241565         4    ;  uncertainty k = 0.623313
         2        24         6         7     9        0.000000       -2.006663         1    ;  uncertainty k = 3.178136
         2        24         6         7     9      180.000000        1.754134         2    ;  uncertainty k = 1.324050
         2        24         6         7     9        0.000000        1.097713         3    ;  uncertainty k = 0.512986
         2        24         6         7     9      180.000000        0.798873         4    ;  uncertainty k = 0.308390
         2        24         6        20     9        0.000000       -4.417731         1    ;  uncertainty k = 2.322206
         2        24         6        20     9      180.000000        2.279440         2    ;  uncertainty k = 0.942177
         2        24         6        20     9        0.000000        0.897930         3    ;  uncertainty k = 0.164446
         2        24         6        20     9      180.000000        0.427616         4    ;  uncertainty k = 0.255861
         3         2         1        26     9        0.000000       -0.401373         1    ;  uncertainty k = 0.525393
         3         2         1        26     9      180.000000       -1.088695         2    ;  uncertainty k = 0.436166
         3         2         1        26     9        0.000000        0.455670         3    ;  uncertainty k = 0.204029
         3         2         1        26     9      180.000000        0.189357         4    ;  uncertainty k = 0.053573
         3         2         1        27     9        0.000000       -0.401373         1    ;  uncertainty k = 0.525393
         3         2         1        27     9      180.000000       -1.088695         2    ;  uncertainty k = 0.436166
         3         2         1        27     9        0.000000        0.455670         3    ;  uncertainty k = 0.204029
         3         2         1        27     9      180.000000        0.189357         4    ;  uncertainty k = 0.053573
         3         2         1        28     9        0.000000       -0.401373         1    ;  uncertainty k = 0.525393
         3         2         1        28     9      180.000000       -1.088695         2    ;  uncertainty k = 0.436166
         3         2         1        28     9        0.000000        0.455670         3    ;  uncertainty k = 0.204029
         3         2         1        28     9      180.000000        0.189357         4    ;  uncertainty k = 0.053573
         3         2        24         6     9        0.000000        3.066622         1    ;  uncertainty k = 2.061106
         3         2        24         6     9      180.000000        3.020256         2    ;  uncertainty k = 1.252999
         3         2        24         6     9        0.000000       -0.318483         3    ;  uncertainty k = 0.867114
         3         2        24         6     9      180.000000        0.825262         4    ;  uncertainty k = 0.250986
         3         2        24        25     9        0.000000        0.443666         1    ;  uncertainty k = 2.514634
         3         2        24        25     9      180.000000        7.869094         2    ;  uncertainty k = 0.663644
         3         2        24        25     9        0.000000        0.454865         3    ;  uncertainty k = 0.510633
         3         2        24        25     9      180.000000        0.046047         4    ;  uncertainty k = 0.269091
         3         5         6         7     9        0.000000       -0.430771         1    ;  uncertainty k = 0.948400
         3         5         6         7     9      180.000000        1.116922         2    ;  uncertainty k = 0.504720
         3         5         6         7     9        0.000000        0.708604         3    ;  uncertainty k = 0.347160
         3         5         6         7     9      180.000000        0.500674         4    ;  uncertainty k = 0.268103
         3         5         6        20     9        0.000000       -1.173809         1    ;  uncertainty k = 1.832553
         3         5         6        20     9      180.000000        1.190440         2    ;  uncertainty k = 0.573213
         3         5         6        20     9        0.000000        0.664865         3    ;  uncertainty k = 0.393710
         3         5         6        20     9      180.000000        0.327327         4    ;  uncertainty k = 0.146933
         3         5         6        24     9        0.000000        1.452743         1    ;  uncertainty k = 1.093155
         3         5         6        24     9      180.000000        2.359196         2    ;  uncertainty k = 1.224942
         3         5         6        24     9        0.000000        0.035033         3    ;  uncertainty k = 0.685356
         3         5         6        24     9      180.000000        0.475437         4    ;  uncertainty k = 0.401811
         4         3         2        24     9        0.000000       -0.598287         1    ;  uncertainty k = 0.800799
         4         3         2        24     9      180.000000        6.772780         2    ;  uncertainty k = 1.253111
         4         3         2        24     9        0.000000        0.190916         3    ;  uncertainty k = 0.702660
         4         3         2        24     9      180.000000       -0.077852         4    ;  uncertainty k = 0.469328
         4         3         5         6     9        0.000000        2.307989         1    ;  uncertainty k = 1.491936
         4         3         5         6     9      180.000000       10.711077         2    ;  uncertainty k = 0.833337
         4         3         5         6     9        0.000000        0.508817         3    ;  uncertainty k = 0.585470
         4         3         5         6     9      180.000000       -0.416263         4    ;  uncertainty k = 0.573146
         4         3         5        30     9        0.000000        2.509553         1    ;  uncertainty k = 2.671104
         4         3         5        30     9      180.000000        7.926700         2    ;  uncertainty k = 1.011319
         4         3         5        30     9        0.000000        0.948906         3    ;  uncertainty k = 0.185087
         4         3         5        30     9      180.000000       -0.288764         4    ;  uncertainty k = 0.271431
         5         3         2        24     9        0.000000       -0.183458         1    ;  uncertainty k = 1.439442
         5         3         2        24     9      180.000000        8.482213         2    ;  uncertainty k = 0.779831
         5         3         2        24     9        0.000000       -1.110442         3    ;  uncertainty k = 1.160611
         5         3         2        24     9      180.000000        0.014367         4    ;  uncertainty k = 0.432492
         5         3         4        29     9        0.000000        5.881546         1    ;  uncertainty k = 1.222089
         5         3         4        29     9      180.000000       10.286459         2    ;  uncertainty k = 0.325964
         5         3         4        29     9        0.000000        1.444777         3    ;  uncertainty k = 0.456150
         5         3         4        29     9      180.000000       -0.763704         4    ;  uncertainty k = 0.306645
         5         3         4        46     9        0.000000        5.881546         1    ;  uncertainty k = 1.222089
         5         3         4        46     9      180.000000       10.286457         2    ;  uncertainty k = 0.325963
         5         3         4        46     9        0.000000        1.444777         3    ;  uncertainty k = 0.456151
         5         3         4        46     9      180.000000       -0.763704         4    ;  uncertainty k = 0.306644
         5         6         7         8     9        0.000000       -0.657151         1    ;  uncertainty k = 1.577883
         5         6         7         8     9      180.000000        2.836194         2    ;  uncertainty k = 0.263903
         5         6         7         8     9        0.000000        0.597994         3    ;  uncertainty k = 0.156434
         5         6         7         8     9      180.000000        0.356835         4    ;  uncertainty k = 0.085306
         5         6         7        19     9        0.000000       -0.510549         1    ;  uncertainty k = 1.521041
         5         6         7        19     9      180.000000        2.843106         2    ;  uncertainty k = 0.332511
         5         6         7        19     9        0.000000        0.565427         3    ;  uncertainty k = 0.114153
         5         6         7        19     9      180.000000        0.364921         4    ;  uncertainty k = 0.102447
         5         6        20        21     9        0.000000       -2.134662         1    ;  uncertainty k = 1.703676
         5         6        20        21     9      180.000000        0.495127         2    ;  uncertainty k = 0.791384
         5         6        20        21     9        0.000000        1.863837         3    ;  uncertainty k = 0.503160
         5         6        20        21     9      180.000000       -0.050126         4    ;  uncertainty k = 0.157029
         5         6        20        22     9        0.000000       -0.767800         1    ;  uncertainty k = 0.468052
         5         6        20        22     9      180.000000       -0.228206         2    ;  uncertainty k = 0.600503
         5         6        20        22     9        0.000000        1.373702         3    ;  uncertainty k = 0.357645
         5         6        20        22     9      180.000000        0.122494         4    ;  uncertainty k = 0.095646
         5         6        20        23     9        0.000000       -0.767800         1    ;  uncertainty k = 0.468052
         5         6        20        23     9      180.000000       -0.228206         2    ;  uncertainty k = 0.600503
         5         6        20        23     9        0.000000        1.373702         3    ;  uncertainty k = 0.357645
         5         6        20        23     9      180.000000        0.122494         4    ;  uncertainty k = 0.095646
         5         6        24        25     9        0.000000       -0.491189         1    ;  uncertainty k = 3.031280
         5         6        24        25     9      180.000000        2.742883         2    ;  uncertainty k = 1.335203
         5         6        24        25     9        0.000000        0.295591         3    ;  uncertainty k = 0.579841
         5         6        24        25     9      180.000000        0.426414         4    ;  uncertainty k = 0.126989
         6         7         8         9     9        0.000000        0.045920         1    ;  uncertainty k = 0.293650
         6         7         8         9     9      180.000000        8.767318         2    ;  uncertainty k = 0.396528
         6         7         8         9     9        0.000000        1.373676         3    ;  uncertainty k = 0.436493
         6         7         8         9     9      180.000000        1.872266         4    ;  uncertainty k = 0.175277
         6         7         8        31     9        0.000000       -0.481219         1    ;  uncertainty k = 0.292511
         6         7         8        31     9      180.000000        7.066470         2    ;  uncertainty k = 0.422312
         6         7         8        31     9        0.000000        0.619988         3    ;  uncertainty k = 0.313760
         6         7         8        31     9      180.000000        1.038744         4    ;  uncertainty k = 0.260641
         6         7        19        11     9        0.000000        0.088359         1    ;  uncertainty k = 0.109904
         6         7        19        11     9      180.000000        8.427503         2    ;  uncertainty k = 0.255226
         6         7        19        11     9        0.000000        1.318592         3    ;  uncertainty k = 0.314496
         6         7        19        11     9      180.000000        1.861878         4    ;  uncertainty k = 0.125562
         6         7        19        38     9        0.000000       -0.413679         1    ;  uncertainty k = 0.305294
         6         7        19        38     9      180.000000        7.157319         2    ;  uncertainty k = 0.424226
         6         7        19        38     9        0.000000        0.577656         3    ;  uncertainty k = 0.381857
         6         7        19        38     9      180.000000        1.098038         4    ;  uncertainty k = 0.290181
         6        20        21        39     9        0.000000       -0.379549         1    ;  uncertainty k = 0.959395
         6        20        21        39     9      180.000000       -1.423953         2    ;  uncertainty k = 0.302996
         6        20        21        39     9        0.000000        1.247712         3    ;  uncertainty k = 0.135189
         6        20        21        39     9      180.000000       -0.081467         4    ;  uncertainty k = 0.131748
         6        20        21        40     9        0.000000       -0.379549         1    ;  uncertainty k = 0.959395
         6        20        21        40     9      180.000000       -1.423953         2    ;  uncertainty k = 0.302996
         6        20        21        40     9        0.000000        1.247712         3    ;  uncertainty k = 0.135189
         6        20        21        40     9      180.000000       -0.081467         4    ;  uncertainty k = 0.131748
         6        20        21        41     9        0.000000       -0.379549         1    ;  uncertainty k = 0.959395
         6        20        21        41     9      180.000000       -1.423953         2    ;  uncertainty k = 0.302996
         6        20        21        41     9        0.000000        1.247712         3    ;  uncertainty k = 0.135189
         6        20        21        41     9      180.000000       -0.081467         4    ;  uncertainty k = 0.131748
         6        20        22        23     9        0.000000       62.609140         1    ;  uncertainty k = 0.276213
         6        20        22        23     9      180.000000       -5.216039         2    ;  uncertainty k = 2.616771
         6        20        22        23     9        0.000000       -9.395876         3    ;  uncertainty k = 0.773782
         6        20        22        23     9      180.000000        7.498278         4    ;  uncertainty k = 0.512611
         6        20        22        42     9        0.000000        0.894376         1    ;  uncertainty k = 2.726305
         6        20        22        42     9      180.000000       -2.736747         2    ;  uncertainty k = 1.366068
         6        20        22        42     9        0.000000        0.421857         3    ;  uncertainty k = 0.322580
         6        20        22        42     9      180.000000       -0.969636         4    ;  uncertainty k = 0.222039
         6        20        22        43     9        0.000000        0.894376         1    ;  uncertainty k = 2.726305
         6        20        22        43     9      180.000000       -2.736747         2    ;  uncertainty k = 1.366068
         6        20        22        43     9        0.000000        0.421857         3    ;  uncertainty k = 0.322580
         6        20        22        43     9      180.000000       -0.969636         4    ;  uncertainty k = 0.222039
         6        20        23        22     9        0.000000       62.609140         1    ;  uncertainty k = 0.276213
         6        20        23        22     9      180.000000       -5.216039         2    ;  uncertainty k = 2.616771
         6        20        23        22     9        0.000000       -9.395876         3    ;  uncertainty k = 0.773782
         6        20        23        22     9      180.000000        7.498278         4    ;  uncertainty k = 0.512611
         6        20        23        44     9        0.000000        0.894376         1    ;  uncertainty k = 2.726305
         6        20        23        44     9      180.000000       -2.736747         2    ;  uncertainty k = 1.366068
         6        20        23        44     9        0.000000        0.421857         3    ;  uncertainty k = 0.322580
         6        20        23        44     9      180.000000       -0.969636         4    ;  uncertainty k = 0.222039
         6        20        23        45     9        0.000000        0.894376         1    ;  uncertainty k = 2.726305
         6        20        23        45     9      180.000000       -2.736747         2    ;  uncertainty k = 1.366068
         6        20        23        45     9        0.000000        0.421857         3    ;  uncertainty k = 0.322580
         6        20        23        45     9      180.000000       -0.969636         4    ;  uncertainty k = 0.222039
         7         6         5        30     9        0.000000        2.804446         1    ;  uncertainty k = 0.954458
         7         6         5        30     9      180.000000        0.527289         2    ;  uncertainty k = 0.958862
         7         6         5        30     9        0.000000        0.611575         3    ;  uncertainty k = 0.392017
         7         6         5        30     9      180.000000        0.057202         4    ;  uncertainty k = 0.114535
         7         6        20        21     9        0.000000       -0.614342         1    ;  uncertainty k = 0.752098
         7         6        20        21     9      180.000000        1.233299         2    ;  uncertainty k = 0.311318
         7         6        20        21     9        0.000000        1.673107         3    ;  uncertainty k = 0.494448
         7         6        20        21     9      180.000000        0.041539         4    ;  uncertainty k = 0.181249
         7         6        20        22     9        0.000000        0.007110         1    ;  uncertainty k = 0.422799
         7         6        20        22     9      180.000000        0.886643         2    ;  uncertainty k = 0.361656
         7         6        20        22     9        0.000000        0.928787         3    ;  uncertainty k = 0.134677
         7         6        20        22     9      180.000000        0.119750         4    ;  uncertainty k = 0.161995
         7         6        20        23     9        0.000000        0.007110         1    ;  uncertainty k = 0.422799
         7         6        20        23     9      180.000000        0.886643         2    ;  uncertainty k = 0.361656
         7         6        20        23     9        0.000000        0.928787         3    ;  uncertainty k = 0.134677
         7         6        20        23     9      180.000000        0.119750         4    ;  uncertainty k = 0.161995
         7         6        24        25     9        0.000000       -0.142206         1    ;  uncertainty k = 1.488310
         7         6        24        25     9      180.000000        3.460316         2    ;  uncertainty k = 0.530538
         7         6        24        25     9        0.000000        0.467082         3    ;  uncertainty k = 0.269582
         7         6        24        25     9      180.000000        0.056342         4    ;  uncertainty k = 0.225419
         7         8         9        10     9        0.000000       -0.017820         1    ;  uncertainty k = 0.214232
         7         8         9        10     9      180.000000       13.236740         2    ;  uncertainty k = 0.279320
         7         8         9        10     9        0.000000       -0.870942         3    ;  uncertainty k = 0.547338
         7         8         9        10     9      180.000000        0.788856         4    ;  uncertainty k = 0.198556
         7         8         9        32     9        0.000000        0.140591         1    ;  uncertainty k = 0.311277
         7         8         9        32     9      180.000000        7.379931         2    ;  uncertainty k = 0.257341
         7         8         9        32     9        0.000000        1.444352         3    ;  uncertainty k = 0.149830
         7         8         9        32     9      180.000000        1.826187         4    ;  uncertainty k = 0.164096
         7        19        11        10     9        0.000000        0.177884         1    ;  uncertainty k = 0.313357
         7        19        11        10     9      180.000000       10.007595         2    ;  uncertainty k = 0.385782
         7        19        11        10     9        0.000000       -0.078106         3    ;  uncertainty k = 0.288861
         7        19        11        10     9      180.000000        1.123022         4    ;  uncertainty k = 0.274198
         7        19        11        12     9        0.000000        0.297192         1    ;  uncertainty k = 0.117760
         7        19        11        12     9      180.000000        8.489105         2    ;  uncertainty k = 0.461758
         7        19        11        12     9        0.000000        1.255384         3    ;  uncertainty k = 0.405503
         7        19        11        12     9      180.000000        1.741968         4    ;  uncertainty k = 0.083925
         8         7         6        20     9        0.000000        0.181717         1    ;  uncertainty k = 0.985608
         8         7         6        20     9      180.000000        2.158870         2    ;  uncertainty k = 0.261817
         8         7         6        20     9        0.000000        0.175574         3    ;  uncertainty k = 0.409182
         8         7         6        20     9      180.000000        0.286942         4    ;  uncertainty k = 0.024514
         8         7         6        24     9        0.000000        0.296056         1    ;  uncertainty k = 1.396127
         8         7         6        24     9      180.000000        1.044137         2    ;  uncertainty k = 0.226281
         8         7         6        24     9        0.000000        0.460982         3    ;  uncertainty k = 0.172175
         8         7         6        24     9      180.000000        0.262126         4    ;  uncertainty k = 0.187606
         8         7        19        11     9        0.000000       -0.287064         1    ;  uncertainty k = 0.364677
         8         7        19        11     9      180.000000       11.558409         2    ;  uncertainty k = 0.128692
         8         7        19        11     9        0.000000       -0.214525         3    ;  uncertainty k = 0.248825
         8         7        19        11     9      180.000000        0.959191         4    ;  uncertainty k = 0.232550
         8         7        19        38     9        0.000000        0.193764         1    ;  uncertainty k = 0.069436
         8         7        19        38     9      180.000000        7.744818         2    ;  uncertainty k = 0.473799
         8         7        19        38     9        0.000000        1.356685         3    ;  uncertainty k = 0.391228
         8         7        19        38     9      180.000000        1.678031         4    ;  uncertainty k = 0.208063
         8         9        10        11     9        0.000000       -0.068306         1    ;  uncertainty k = 0.248565
         8         9        10        11     9      180.000000       14.002987         2    ;  uncertainty k = 0.213587
         8         9        10        11     9        0.000000       -0.845960         3    ;  uncertainty k = 0.476900
         8         9        10        11     9      180.000000        0.704112         4    ;  uncertainty k = 0.232574
         8         9        10        33     9        0.000000        0.064016         1    ;  uncertainty k = 0.092273
         8         9        10        33     9      180.000000        7.688592         2    ;  uncertainty k = 0.226543
         8         9        10        33     9        0.000000        1.437399         3    ;  uncertainty k = 0.218022
         8         9        10        33     9      180.000000        1.818543         4    ;  uncertainty k = 0.230855
         9         8         7        19     9        0.000000       -0.250731         1    ;  uncertainty k = 0.245940
         9         8         7        19     9      180.000000       12.035187         2    ;  uncertainty k = 0.354582
         9         8         7        19     9        0.000000       -0.564038         3    ;  uncertainty k = 0.165581
         9         8         7        19     9      180.000000        0.838388         4    ;  uncertainty k = 0.278106
         9        10        11        12     9        0.000000        0.044195         1    ;  uncertainty k = 0.214242
         9        10        11        12     9      180.000000        8.958502         2    ;  uncertainty k = 0.565128
         9        10        11        12     9        0.000000        1.186061         3    ;  uncertainty k = 0.437863
         9        10        11        12     9      180.000000        1.741998         4    ;  uncertainty k = 0.179340
         9        10        11        19     9        0.000000        0.096590         1    ;  uncertainty k = 0.170254
         9        10        11        19     9      180.000000       11.189896         2    ;  uncertainty k = 0.224506
         9        10        11        19     9        0.000000       -0.444618         3    ;  uncertainty k = 0.348065
         9        10        11        19     9      180.000000        0.928347         4    ;  uncertainty k = 0.283086
        10         9         8        31     9        0.000000        0.032704         1    ;  uncertainty k = 0.132345
        10         9         8        31     9      180.000000        7.730094         2    ;  uncertainty k = 0.356543
        10         9         8        31     9        0.000000        1.379197         3    ;  uncertainty k = 0.227568
        10         9         8        31     9      180.000000        1.830147         4    ;  uncertainty k = 0.105034
        10        11        12        13     9        0.000000       -0.409064         1    ;  uncertainty k = 0.434004
        10        11        12        13     9      180.000000        3.912322         2    ;  uncertainty k = 0.073736
        10        11        12        13     9        0.000000        0.296457         3    ;  uncertainty k = 0.127973
        10        11        12        13     9      180.000000       -0.086674         4    ;  uncertainty k = 0.058067
        10        11        12        18     9        0.000000       -0.383500         1    ;  uncertainty k = 0.349828
        10        11        12        18     9      180.000000        3.939862         2    ;  uncertainty k = 0.075703
        10        11        12        18     9        0.000000        0.280229         3    ;  uncertainty k = 0.118948
        10        11        12        18     9      180.000000       -0.062553         4    ;  uncertainty k = 0.038680
        10        11        19        38     9        0.000000        0.083128         1    ;  uncertainty k = 0.147440
        10        11        19        38     9      180.000000        7.226658         2    ;  uncertainty k = 0.654950
        10        11        19        38     9        0.000000        1.426727         3    ;  uncertainty k = 0.129327
        10        11        19        38     9      180.000000        1.643467         4    ;  uncertainty k = 0.239394
        11        10         9        32     9        0.000000        0.002908         1    ;  uncertainty k = 0.199420
        11        10         9        32     9      180.000000        7.672408         2    ;  uncertainty k = 0.349212
        11        10         9        32     9        0.000000        1.347941         3    ;  uncertainty k = 0.222183
        11        10         9        32     9      180.000000        1.837528         4    ;  uncertainty k = 0.193883
        11        12        13        14     9        0.000000       -0.013523         1    ;  uncertainty k = 0.227713
        11        12        13        14     9      180.000000        8.767247         2    ;  uncertainty k = 0.608788
        11        12        13        14     9        0.000000        1.206561         3    ;  uncertainty k = 0.406748
        11        12        13        14     9      180.000000        1.772431         4    ;  uncertainty k = 0.161462
        11        12        13        34     9        0.000000       -0.224506         1    ;  uncertainty k = 0.313880
        11        12        13        34     9      180.000000        7.074185         2    ;  uncertainty k = 0.458184
        11        12        13        34     9        0.000000        0.826029         3    ;  uncertainty k = 0.163605
        11        12        13        34     9      180.000000        1.172513         4    ;  uncertainty k = 0.211575
        11        12        18        16     9        0.000000        0.078944         1    ;  uncertainty k = 0.172069
        11        12        18        16     9      180.000000        8.976806         2    ;  uncertainty k = 0.379370
        11        12        18        16     9        0.000000        1.283999         3    ;  uncertainty k = 0.283257
        11        12        18        16     9      180.000000        1.699353         4    ;  uncertainty k = 0.066177
        11        12        18        37     9        0.000000       -0.191332         1    ;  uncertainty k = 0.274327
        11        12        18        37     9      180.000000        7.090824         2    ;  uncertainty k = 0.420161
        11        12        18        37     9        0.000000        0.829283         3    ;  uncertainty k = 0.181998
        11        12        18        37     9      180.000000        1.172180         4    ;  uncertainty k = 0.201045
        12        11        10        33     9        0.000000       -0.148176         1    ;  uncertainty k = 0.277083
        12        11        10        33     9      180.000000        7.135452         2    ;  uncertainty k = 0.457935
        12        11        10        33     9        0.000000        0.827832         3    ;  uncertainty k = 0.124819
        12        11        10        33     9      180.000000        1.193859         4    ;  uncertainty k = 0.179856
        12        11        19        38     9        0.000000       -0.099872         1    ;  uncertainty k = 0.204507
        12        11        19        38     9      180.000000        7.338064         2    ;  uncertainty k = 0.303350
        12        11        19        38     9        0.000000        0.844541         3    ;  uncertainty k = 0.177082
        12        11        19        38     9      180.000000        1.281595         4    ;  uncertainty k = 0.187454
        12        13        14        15     9        0.000000       -0.042208         1    ;  uncertainty k = 0.231516
        12        13        14        15     9      180.000000       14.171992         2    ;  uncertainty k = 0.189515
        12        13        14        15     9        0.000000       -0.870742         3    ;  uncertainty k = 0.485056
        12        13        14        15     9      180.000000        0.699208         4    ;  uncertainty k = 0.253427
        12        13        14        35     9        0.000000        0.022682         1    ;  uncertainty k = 0.242894
        12        13        14        35     9      180.000000        7.703945         2    ;  uncertainty k = 0.339132
        12        13        14        35     9        0.000000        1.372428         3    ;  uncertainty k = 0.261098
        12        13        14        35     9      180.000000        1.835688         4    ;  uncertainty k = 0.149482
        12        18        16        15     9        0.000000       -0.010279         1    ;  uncertainty k = 0.315076
        12        18        16        15     9      180.000000        9.861218         2    ;  uncertainty k = 0.417908
        12        18        16        15     9        0.000000       -0.044172         3    ;  uncertainty k = 0.331365
        12        18        16        15     9      180.000000        1.160540         4    ;  uncertainty k = 0.311928
        12        18        16        17     9        0.000000        0.036466         1    ;  uncertainty k = 0.115484
        12        18        16        17     9      180.000000        9.485434         2    ;  uncertainty k = 0.578648
        12        18        16        17     9        0.000000        1.367643         3    ;  uncertainty k = 0.425703
        12        18        16        17     9      180.000000        1.685065         4    ;  uncertainty k = 0.101287
        13        12        11        19     9        0.000000       -0.198883         1    ;  uncertainty k = 0.460737
        13        12        11        19     9      180.000000        4.169652         2    ;  uncertainty k = 0.144070
        13        12        11        19     9        0.000000        0.281042         3    ;  uncertainty k = 0.157983
        13        12        11        19     9      180.000000       -0.007501         4    ;  uncertainty k = 0.045574
        13        12        18        16     9        0.000000        0.112971         1    ;  uncertainty k = 0.107592
        13        12        18        16     9      180.000000       11.459687         2    ;  uncertainty k = 0.265370
        13        12        18        16     9        0.000000       -0.359029         3    ;  uncertainty k = 0.399359
        13        12        18        16     9      180.000000        0.945001         4    ;  uncertainty k = 0.278886
        13        12        18        37     9        0.000000        0.189437         1    ;  uncertainty k = 0.134814
        13        12        18        37     9      180.000000        6.927558         2    ;  uncertainty k = 0.531255
        13        12        18        37     9        0.000000        1.476130         3    ;  uncertainty k = 0.227216
        13        12        18        37     9      180.000000        1.643456         4    ;  uncertainty k = 0.236170
        13        14        15        16     9        0.000000        0.034101         1    ;  uncertainty k = 0.181604
        13        14        15        16     9      180.000000       14.637857         2    ;  uncertainty k = 0.207905
        13        14        15        16     9        0.000000       -1.037223         3    ;  uncertainty k = 0.574419
        13        14        15        16     9      180.000000        0.689985         4    ;  uncertainty k = 0.252256
        13        14        15        36     9        0.000000        0.080157         1    ;  uncertainty k = 0.044174
        13        14        15        36     9      180.000000        7.631927         2    ;  uncertainty k = 0.319811
        13        14        15        36     9        0.000000        1.497161         3    ;  uncertainty k = 0.267179
        13        14        15        36     9      180.000000        1.800300         4    ;  uncertainty k = 0.165698
        14        13        12        18     9        0.000000       -0.014258         1    ;  uncertainty k = 0.046197
        14        13        12        18     9      180.000000       11.353969         2    ;  uncertainty k = 0.284679
        14        13        12        18     9        0.000000       -0.419125         3    ;  uncertainty k = 0.329524
        14        13        12        18     9      180.000000        0.851477         4    ;  uncertainty k = 0.284931
        14        15        16        17     9        0.000000        0.039415         1    ;  uncertainty k = 0.185710
        14        15        16        17     9      180.000000        9.400893         2    ;  uncertainty k = 0.673917
        14        15        16        17     9        0.000000        1.522713         3    ;  uncertainty k = 0.432767
        14        15        16        17     9      180.000000        1.637619         4    ;  uncertainty k = 0.162550
        14        15        16        18     9        0.000000       -0.035280         1    ;  uncertainty k = 0.114525
        14        15        16        18     9      180.000000       10.458549         2    ;  uncertainty k = 0.352853
        14        15        16        18     9        0.000000       -0.351603         3    ;  uncertainty k = 0.544621
        14        15        16        18     9      180.000000        0.999885         4    ;  uncertainty k = 0.326950
        15        14        13        34     9        0.000000        0.052492         1    ;  uncertainty k = 0.058933
        15        14        13        34     9      180.000000        7.952025         2    ;  uncertainty k = 0.267693
        15        14        13        34     9        0.000000        1.470677         3    ;  uncertainty k = 0.256858
        15        14        13        34     9      180.000000        1.851650         4    ;  uncertainty k = 0.164394
        15        16        18        37     9        0.000000       -0.045893         1    ;  uncertainty k = 0.245307
        15        16        18        37     9      180.000000        6.349827         2    ;  uncertainty k = 0.564330
        15        16        18        37     9        0.000000        1.416183         3    ;  uncertainty k = 0.310677
        15        16        18        37     9      180.000000        1.600595         4    ;  uncertainty k = 0.148712
        16        15        14        35     9        0.000000        0.013468         1    ;  uncertainty k = 0.140073
        16        15        14        35     9      180.000000        7.595964         2    ;  uncertainty k = 0.326738
        16        15        14        35     9        0.000000        1.451185         3    ;  uncertainty k = 0.275083
        16        15        14        35     9      180.000000        1.856285         4    ;  uncertainty k = 0.184737
        17        16        15        36     9        0.000000       -0.148142         1    ;  uncertainty k = 0.212406
        17        16        15        36     9      180.000000        7.328405         2    ;  uncertainty k = 0.291144
        17        16        15        36     9        0.000000        0.580550         3    ;  uncertainty k = 0.353024
        17        16        15        36     9      180.000000        0.942602         4    ;  uncertainty k = 0.155635
        17        16        18        37     9        0.000000       -0.243273         1    ;  uncertainty k = 0.262026
        17        16        18        37     9      180.000000        7.505922         2    ;  uncertainty k = 0.286010
        17        16        18        37     9        0.000000        0.606748         3    ;  uncertainty k = 0.290520
        17        16        18        37     9      180.000000        1.026416         4    ;  uncertainty k = 0.149534
        18        12        11        19     9        0.000000       -0.163163         1    ;  uncertainty k = 0.363773
        18        12        11        19     9      180.000000        4.180948         2    ;  uncertainty k = 0.136684
        18        12        11        19     9        0.000000        0.243870         3    ;  uncertainty k = 0.164381
        18        12        11        19     9      180.000000        0.015184         4    ;  uncertainty k = 0.044958
        18        12        13        34     9        0.000000        0.134271         1    ;  uncertainty k = 0.144927
        18        12        13        34     9      180.000000        6.905300         2    ;  uncertainty k = 0.558345
        18        12        13        34     9        0.000000        1.477109         3    ;  uncertainty k = 0.223699
        18        12        13        34     9      180.000000        1.638260         4    ;  uncertainty k = 0.236471
        18        16        15        36     9        0.000000        0.008768         1    ;  uncertainty k = 0.120181
        18        16        15        36     9      180.000000        6.217604         2    ;  uncertainty k = 0.626406
        18        16        15        36     9        0.000000        1.411019         3    ;  uncertainty k = 0.350782
        18        16        15        36     9      180.000000        1.518245         4    ;  uncertainty k = 0.154069
        19         7         6        20     9        0.000000        0.162452         1    ;  uncertainty k = 0.924389
        19         7         6        20     9      180.000000        2.197871         2    ;  uncertainty k = 0.253408
        19         7         6        20     9        0.000000        0.133549         3    ;  uncertainty k = 0.444787
        19         7         6        20     9      180.000000        0.288748         4    ;  uncertainty k = 0.030837
        19         7         6        24     9        0.000000        0.282125         1    ;  uncertainty k = 1.371800
        19         7         6        24     9      180.000000        1.035084         2    ;  uncertainty k = 0.211113
        19         7         6        24     9        0.000000        0.413201         3    ;  uncertainty k = 0.167830
        19         7         6        24     9      180.000000        0.276048         4    ;  uncertainty k = 0.183368
        19         7         8        31     9        0.000000        0.219269         1    ;  uncertainty k = 0.111113
        19         7         8        31     9      180.000000        7.590557         2    ;  uncertainty k = 0.502579
        19         7         8        31     9        0.000000        1.332737         3    ;  uncertainty k = 0.376647
        19         7         8        31     9      180.000000        1.668565         4    ;  uncertainty k = 0.232067
        19        11        10        33     9        0.000000        0.195953         1    ;  uncertainty k = 0.182850
        19        11        10        33     9      180.000000        7.019863         2    ;  uncertainty k = 0.432064
        19        11        10        33     9        0.000000        1.406819         3    ;  uncertainty k = 0.244147
        19        11        10        33     9      180.000000        1.605315         4    ;  uncertainty k = 0.252847
        20         6         5        30     9        0.000000        2.614006         1    ;  uncertainty k = 1.018329
        20         6         5        30     9      180.000000       -0.241291         2    ;  uncertainty k = 1.713811
        20         6         5        30     9        0.000000        0.456536         3    ;  uncertainty k = 0.212909
        20         6         5        30     9      180.000000        0.146834         4    ;  uncertainty k = 0.120394
        20         6        24        25     9        0.000000       -0.834518         1    ;  uncertainty k = 1.684278
        20         6        24        25     9      180.000000        3.475197         2    ;  uncertainty k = 0.979825
        20         6        24        25     9        0.000000       -0.021632         3    ;  uncertainty k = 0.209977
        20         6        24        25     9      180.000000       -0.022448         4    ;  uncertainty k = 0.206357
        20        22        23        44     9        0.000000       41.367436         1    ;  uncertainty k = 0.561358
        20        22        23        44     9      180.000000       -6.424173         2    ;  uncertainty k = 1.110445
        20        22        23        44     9        0.000000       -9.555769         3    ;  uncertainty k = 0.523662
        20        22        23        44     9      180.000000        4.365114         4    ;  uncertainty k = 0.608688
        20        22        23        45     9        0.000000       41.367436         1    ;  uncertainty k = 0.561358
        20        22        23        45     9      180.000000       -6.424173         2    ;  uncertainty k = 1.110445
        20        22        23        45     9        0.000000       -9.555769         3    ;  uncertainty k = 0.523662
        20        22        23        45     9      180.000000        4.365114         4    ;  uncertainty k = 0.608688
        20        23        22        42     9        0.000000       41.367436         1    ;  uncertainty k = 0.561358
        20        23        22        42     9      180.000000       -6.424173         2    ;  uncertainty k = 1.110445
        20        23        22        42     9        0.000000       -9.555769         3    ;  uncertainty k = 0.523662
        20        23        22        42     9      180.000000        4.365114         4    ;  uncertainty k = 0.608688
        20        23        22        43     9        0.000000       41.367436         1    ;  uncertainty k = 0.561358
        20        23        22        43     9      180.000000       -6.424173         2    ;  uncertainty k = 1.110445
        20        23        22        43     9        0.000000       -9.555769         3    ;  uncertainty k = 0.523662
        20        23        22        43     9      180.000000        4.365114         4    ;  uncertainty k = 0.608688
        21        20         6        24     9        0.000000       -0.201255         1    ;  uncertainty k = 0.778794
        21        20         6        24     9      180.000000       -0.254113         2    ;  uncertainty k = 0.515876
        21        20         6        24     9        0.000000        1.157105         3    ;  uncertainty k = 0.241811
        21        20         6        24     9      180.000000        0.088473         4    ;  uncertainty k = 0.040725
        21        20        22        23     9        0.000000       68.378052         1    ;  uncertainty k = 0.166106
        21        20        22        23     9      180.000000        1.642307         2    ;  uncertainty k = 2.388845
        21        20        22        23     9        0.000000      -11.302624         3    ;  uncertainty k = 1.231112
        21        20        22        23     9      180.000000        9.370358         4    ;  uncertainty k = 0.365037
        21        20        22        42     9        0.000000        0.055658         1    ;  uncertainty k = 2.472131
        21        20        22        42     9      180.000000       -0.483202         2    ;  uncertainty k = 0.970207
        21        20        22        42     9        0.000000        0.776076         3    ;  uncertainty k = 0.537500
        21        20        22        42     9      180.000000       -0.893031         4    ;  uncertainty k = 0.195585
        21        20        22        43     9        0.000000        0.055658         1    ;  uncertainty k = 2.472131
        21        20        22        43     9      180.000000       -0.483202         2    ;  uncertainty k = 0.970207
        21        20        22        43     9        0.000000        0.776076         3    ;  uncertainty k = 0.537500
        21        20        22        43     9      180.000000       -0.893031         4    ;  uncertainty k = 0.195585
        21        20        23        22     9        0.000000       68.378052         1    ;  uncertainty k = 0.166106
        21        20        23        22     9      180.000000        1.642307         2    ;  uncertainty k = 2.388845
        21        20        23        22     9        0.000000      -11.302624         3    ;  uncertainty k = 1.231112
        21        20        23        22     9      180.000000        9.370358         4    ;  uncertainty k = 0.365037
        21        20        23        44     9        0.000000        0.055658         1    ;  uncertainty k = 2.472131
        21        20        23        44     9      180.000000       -0.483202         2    ;  uncertainty k = 0.970207
        21        20        23        44     9        0.000000        0.776076         3    ;  uncertainty k = 0.537500
        21        20        23        44     9      180.000000       -0.893031         4    ;  uncertainty k = 0.195585
        21        20        23        45     9        0.000000        0.055658         1    ;  uncertainty k = 2.472131
        21        20        23        45     9      180.000000       -0.483202         2    ;  uncertainty k = 0.970207
        21        20        23        45     9        0.000000        0.776076         3    ;  uncertainty k = 0.537500
        21        20        23        45     9      180.000000       -0.893031         4    ;  uncertainty k = 0.195585
        22        20         6        24     9        0.000000       -0.333922         1    ;  uncertainty k = 0.928868
        22        20         6        24     9      180.000000        0.035115         2    ;  uncertainty k = 0.521180
        22        20         6        24     9        0.000000        0.525923         3    ;  uncertainty k = 0.338823
        22        20         6        24     9      180.000000       -0.085525         4    ;  uncertainty k = 0.122286
        22        20        21        39     9        0.000000        0.103612         1    ;  uncertainty k = 0.646586
        22        20        21        39     9      180.000000        0.469756         2    ;  uncertainty k = 0.256841
        22        20        21        39     9        0.000000        1.016791         3    ;  uncertainty k = 0.186522
        22        20        21        39     9      180.000000        0.084759         4    ;  uncertainty k = 0.082983
        22        20        21        40     9        0.000000        0.103612         1    ;  uncertainty k = 0.646586
        22        20        21        40     9      180.000000        0.469756         2    ;  uncertainty k = 0.256841
        22        20        21        40     9        0.000000        1.016791         3    ;  uncertainty k = 0.186522
        22        20        21        40     9      180.000000        0.084759         4    ;  uncertainty k = 0.082983
        22        20        21        41     9        0.000000        0.103612         1    ;  uncertainty k = 0.646586
        22        20        21        41     9      180.000000        0.469756         2    ;  uncertainty k = 0.256841
        22        20        21        41     9        0.000000        1.016791         3    ;  uncertainty k = 0.186522
        22        20        21        41     9      180.000000        0.084759         4    ;  uncertainty k = 0.082983
        22        20        23        44     9        0.000000       43.706292         1    ;  uncertainty k = 0.547019
        22        20        23        44     9      180.000000       -3.807382         2    ;  uncertainty k = 1.609635
        22        20        23        44     9        0.000000       -9.849158         3    ;  uncertainty k = 0.699444
        22        20        23        44     9      180.000000        5.145676         4    ;  uncertainty k = 0.408753
        22        20        23        45     9        0.000000       43.706292         1    ;  uncertainty k = 0.547019
        22        20        23        45     9      180.000000       -3.807382         2    ;  uncertainty k = 1.609635
        22        20        23        45     9        0.000000       -9.849158         3    ;  uncertainty k = 0.699444
        22        20        23        45     9      180.000000        5.145676         4    ;  uncertainty k = 0.408753
        23        20         6        24     9        0.000000       -0.333922         1    ;  uncertainty k = 0.928868
        23        20         6        24     9      180.000000        0.035115         2    ;  uncertainty k = 0.521180
        23        20         6        24     9        0.000000        0.525923         3    ;  uncertainty k = 0.338823
        23        20         6        24     9      180.000000       -0.085525         4    ;  uncertainty k = 0.122286
        23        20        21        39     9        0.000000        0.103612         1    ;  uncertainty k = 0.646586
        23        20        21        39     9      180.000000        0.469756         2    ;  uncertainty k = 0.256841
        23        20        21        39     9        0.000000        1.016791         3    ;  uncertainty k = 0.186522
        23        20        21        39     9      180.000000        0.084759         4    ;  uncertainty k = 0.082983
        23        20        21        40     9        0.000000        0.103612         1    ;  uncertainty k = 0.646586
        23        20        21        40     9      180.000000        0.469756         2    ;  uncertainty k = 0.256841
        23        20        21        40     9        0.000000        1.016791         3    ;  uncertainty k = 0.186522
        23        20        21        40     9      180.000000        0.084759         4    ;  uncertainty k = 0.082983
        23        20        21        41     9        0.000000        0.103612         1    ;  uncertainty k = 0.646586
        23        20        21        41     9      180.000000        0.469756         2    ;  uncertainty k = 0.256841
        23        20        21        41     9        0.000000        1.016791         3    ;  uncertainty k = 0.186522
        23        20        21        41     9      180.000000        0.084759         4    ;  uncertainty k = 0.082983
        23        20        22        42     9        0.000000       43.706292         1    ;  uncertainty k = 0.547019
        23        20        22        42     9      180.000000       -3.807382         2    ;  uncertainty k = 1.609635
        23        20        22        42     9        0.000000       -9.849158         3    ;  uncertainty k = 0.699444
        23        20        22        42     9      180.000000        5.145676         4    ;  uncertainty k = 0.408753
        23        20        22        43     9        0.000000       43.706292         1    ;  uncertainty k = 0.547019
        23        20        22        43     9      180.000000       -3.807382         2    ;  uncertainty k = 1.609635
        23        20        22        43     9        0.000000       -9.849158         3    ;  uncertainty k = 0.699444
        23        20        22        43     9      180.000000        5.145676         4    ;  uncertainty k = 0.408753
        24         2         1        26     9        0.000000        0.303082         1    ;  uncertainty k = 0.418621
        24         2         1        26     9      180.000000        0.073367         2    ;  uncertainty k = 0.215514
        24         2         1        26     9        0.000000        0.349280         3    ;  uncertainty k = 0.209293
        24         2         1        26     9      180.000000        0.304669         4    ;  uncertainty k = 0.062999
        24         2         1        27     9        0.000000        0.303082         1    ;  uncertainty k = 0.418621
        24         2         1        27     9      180.000000        0.073367         2    ;  uncertainty k = 0.215514
        24         2         1        27     9        0.000000        0.349280         3    ;  uncertainty k = 0.209293
        24         2         1        27     9      180.000000        0.304669         4    ;  uncertainty k = 0.062999
        24         2         1        28     9        0.000000        0.303082         1    ;  uncertainty k = 0.418621
        24         2         1        28     9      180.000000        0.073367         2    ;  uncertainty k = 0.215514
        24         2         1        28     9        0.000000        0.349280         3    ;  uncertainty k = 0.209293
        24         2         1        28     9      180.000000        0.304669         4    ;  uncertainty k = 0.062999
        24         6         5        30     9        0.000000       -0.033214         1    ;  uncertainty k = 2.603101
        24         6         5        30     9      180.000000        0.044370         2    ;  uncertainty k = 1.794998
        24         6         5        30     9        0.000000        0.327627         3    ;  uncertainty k = 0.406249
        24         6         5        30     9      180.000000       -0.008003         4    ;  uncertainty k = 0.108991
        31         8         9        32     9        0.000000       -0.102806         1    ;  uncertainty k = 0.348801
        31         8         9        32     9      180.000000        7.862618         2    ;  uncertainty k = 0.291256
        31         8         9        32     9        0.000000       -0.503808         3    ;  uncertainty k = 0.326258
        31         8         9        32     9      180.000000        0.133286         4    ;  uncertainty k = 0.184010
        32         9        10        33     9        0.000000       -0.100647         1    ;  uncertainty k = 0.195903
        32         9        10        33     9      180.000000        7.941174         2    ;  uncertainty k = 0.291930
        32         9        10        33     9        0.000000       -0.502787         3    ;  uncertainty k = 0.279639
        32         9        10        33     9      180.000000        0.115633         4    ;  uncertainty k = 0.148086
        34        13        14        35     9        0.000000       -0.071839         1    ;  uncertainty k = 0.139578
        34        13        14        35     9      180.000000        7.837294         2    ;  uncertainty k = 0.341150
        34        13        14        35     9        0.000000       -0.474130         3    ;  uncertainty k = 0.274221
        34        13        14        35     9      180.000000        0.116282         4    ;  uncertainty k = 0.133077
        35        14        15        36     9        0.000000       -0.080242         1    ;  uncertainty k = 0.065184
        35        14        15        36     9      180.000000        7.728195         2    ;  uncertainty k = 0.460598
        35        14        15        36     9        0.000000       -0.435761         3    ;  uncertainty k = 0.241594
        35        14        15        36     9      180.000000        0.035510         4    ;  uncertainty k = 0.167623
        42        22        23        44     9        0.000000        0.028157         1    ;  uncertainty k = 0.603111
        42        22        23        44     9      180.000000       -1.170252         2    ;  uncertainty k = 0.950478
        42        22        23        44     9        0.000000        0.863385         3    ;  uncertainty k = 0.350070
        42        22        23        44     9      180.000000       -0.660539         4    ;  uncertainty k = 0.044358
        42        22        23        45     9        0.000000        0.028157         1    ;  uncertainty k = 0.603111
        42        22        23        45     9      180.000000       -1.170252         2    ;  uncertainty k = 0.950478
        42        22        23        45     9        0.000000        0.863385         3    ;  uncertainty k = 0.350070
        42        22        23        45     9      180.000000       -0.660539         4    ;  uncertainty k = 0.044358
        43        22        23        44     9        0.000000        0.028157         1    ;  uncertainty k = 0.603111
        43        22        23        44     9      180.000000       -1.170252         2    ;  uncertainty k = 0.950478
        43        22        23        44     9        0.000000        0.863385         3    ;  uncertainty k = 0.350070
        43        22        23        44     9      180.000000       -0.660539         4    ;  uncertainty k = 0.044358
        43        22        23        45     9        0.000000        0.028157         1    ;  uncertainty k = 0.603111
        43        22        23        45     9      180.000000       -1.170252         2    ;  uncertainty k = 0.950478
        43        22        23        45     9        0.000000        0.863385         3    ;  uncertainty k = 0.350070
        43        22        23        45     9      180.000000       -0.660539         4    ;  uncertainty k = 0.044358

[ dihedrals ] ; impropers
;       ai        aj        ak        al funct           phase               k        pn
         2         1         3        24     4      180.000000        1.474624         2    ;  uncertainty k = 0.645275
         2         3        24         1     4      180.000000        1.474624         2    ;  uncertainty k = 0.645275
         2        24         1         3     4      180.000000        1.474624         2    ;  uncertainty k = 0.645275
         3         2         4         5     4      180.000000       30.629502         2    ;  uncertainty k = 0.143117
         3         4         5         2     4      180.000000       30.629502         2    ;  uncertainty k = 0.143117
         3         5         2         4     4      180.000000       30.629502         2    ;  uncertainty k = 0.143117
         4         3        29        46     4      180.000000        0.143591         2    ;  uncertainty k = 0.321079
         4        29        46         3     4      180.000000        0.143591         2    ;  uncertainty k = 0.321079
         4        46         3        29     4      180.000000        0.143591         2    ;  uncertainty k = 0.321079
         7         6         8        19     4      180.000000       10.978847         2    ;  uncertainty k = 0.273861
         7         8        19         6     4      180.000000       10.978847         2    ;  uncertainty k = 0.273861
         7        19         6         8     4      180.000000       10.978847         2    ;  uncertainty k = 0.273861
         8         7         9        31     4      180.000000        3.703104         2    ;  uncertainty k = 0.214027
         8         9        31         7     4      180.000000        3.703104         2    ;  uncertainty k = 0.214027
         8        31         7         9     4      180.000000        3.703104         2    ;  uncertainty k = 0.214027
         9         8        10        32     4      180.000000        3.976885         2    ;  uncertainty k = 0.124187
         9        10        32         8     4      180.000000        3.976885         2    ;  uncertainty k = 0.124187
         9        32         8        10     4      180.000000        3.976885         2    ;  uncertainty k = 0.124187
        10         9        11        33     4      180.000000        4.397289         2    ;  uncertainty k = 0.115003
        10        11        33         9     4      180.000000        4.397289         2    ;  uncertainty k = 0.115003
        10        33         9        11     4      180.000000        4.397289         2    ;  uncertainty k = 0.115003
        11        10        12        19     4      180.000000       14.989674         2    ;  uncertainty k = 0.051621
        11        12        19        10     4      180.000000       14.989674         2    ;  uncertainty k = 0.051621
        11        19        10        12     4      180.000000       14.989674         2    ;  uncertainty k = 0.051621
        12        11        13        18     4      180.000000       14.812893         2    ;  uncertainty k = 0.055764
        12        13        18        11     4      180.000000       14.812893         2    ;  uncertainty k = 0.055764
        12        18        11        13     4      180.000000       14.812893         2    ;  uncertainty k = 0.055764
        13        12        14        34     4      180.000000        3.700190         2    ;  uncertainty k = 0.086941
        13        14        34        12     4      180.000000        3.700190         2    ;  uncertainty k = 0.086941
        13        34        12        14     4      180.000000        3.700190         2    ;  uncertainty k = 0.086941
        14        13        15        35     4      180.000000        4.249201         2    ;  uncertainty k = 0.103732
        14        15        35        13     4      180.000000        4.249201         2    ;  uncertainty k = 0.103732
        14        35        13        15     4      180.000000        4.249201         2    ;  uncertainty k = 0.103732
        15        14        16        36     4      180.000000        3.525381         2    ;  uncertainty k = 0.172936
        15        16        36        14     4      180.000000        3.525381         2    ;  uncertainty k = 0.172936
        15        36        14        16     4      180.000000        3.525381         2    ;  uncertainty k = 0.172936
        16        15        17        18     4      180.000000       13.371882         2    ;  uncertainty k = 0.047246
        16        17        18        15     4      180.000000       13.371882         2    ;  uncertainty k = 0.047246
        16        18        15        17     4      180.000000       13.371882         2    ;  uncertainty k = 0.047246
        18        12        16        37     4      180.000000        3.443516         2    ;  uncertainty k = 0.143384
        18        16        37        12     4      180.000000        3.443516         2    ;  uncertainty k = 0.143384
        18        37        12        16     4      180.000000        3.443516         2    ;  uncertainty k = 0.143384
        19         7        11        38     4      180.000000        4.144157         2    ;  uncertainty k = 0.264108
        19        11        38         7     4      180.000000        4.144157         2    ;  uncertainty k = 0.264108
        19        38         7        11     4      180.000000        4.144157         2    ;  uncertainty k = 0.264108
        24         2         6        25     4      180.000000       50.411403         2    ;  uncertainty k = 0.039708
        24         6        25         2     4      180.000000       50.411403         2    ;  uncertainty k = 0.039708
        24        25         2         6     4      180.000000       50.411403         2    ;  uncertainty k = 0.039708

[ pairs ]
;       ai        aj funct
         1         4     1
         1         5     1
         1         6     1
         1        25     1
         2         7     1
         2        20     1
         2        29     1
         2        30     1
         2        46     1
         3         7     1
         3        20     1
         3        25     1
         3        26     1
         3        27     1
         3        28     1
         4         6     1
         4        24     1
         4        30     1
         5         8     1
         5        19     1
         5        21     1
         5        22     1
         5        23     1
         5        25     1
         5        29     1
         5        46     1
         6         9     1
         6        11     1
         6        31     1
         6        38     1
         6        39     1
         6        40     1
         6        41     1
         6        42     1
         6        43     1
         6        44     1
         6        45     1
         7        10     1
         7        12     1
         7        21     1
         7        22     1
         7        23     1
         7        25     1
         7        30     1
         7        32     1
         8        11     1
         8        20     1
         8        24     1
         8        33     1
         8        38     1
         9        12     1
         9        19     1
        10        13     1
        10        18     1
        10        31     1
        10        38     1
        11        14     1
        11        16     1
        11        32     1
        11        34     1
        11        37     1
        12        15     1
        12        17     1
        12        33     1
        12        35     1
        12        38     1
        13        16     1
        13        19     1
        13        36     1
        13        37     1
        14        17     1
        14        18     1
        15        34     1
        15        37     1
        16        35     1
        17        36     1
        17        37     1
        18        19     1
        18        34     1
        18        36     1
        19        20     1
        19        24     1
        19        31     1
        19        33     1
        20        25     1
        20        30     1
        21        24     1
        21        42     1
        21        43     1
        21        44     1
        21        45     1
        22        24     1
        22        39     1
        22        40     1
        22        41     1
        23        24     1
        23        39     1
        23        40     1
        23        41     1
        24        26     1
        24        27     1
        24        28     1
        24        30     1
        31        32     1
        32        33     1
        34        35     1
        35        36     1
        42        44     1
        42        45     1
        43        44     1
        43        45     1
