; ITP file created by ByteFF-joint-25, 2026-02-18 03:15:17.452242

[ atomtypes ]
;name           bonded.type        at.num        mass        charge   ptype           sigma         epsilon
 c0bf                                   6      0.0000       0.00000       A     3.39732e-01     4.51256e-01    ;  uncertainty sigma = 0.000013, epsilon = 0.001265
 n1bf                                   7      0.0000       0.00000       A     3.18098e-01     6.83124e-01    ;  uncertainty sigma = 0.000073, epsilon = 0.006424
 c2bf                                   6      0.0000       0.00000       A     3.31512e-01     4.12381e-01    ;  uncertainty sigma = 0.000058, epsilon = 0.001500
 n3bf                                   7      0.0000       0.00000       A     3.36544e-01     4.71564e-01    ;  uncertainty sigma = 0.000086, epsilon = 0.005524
 n4bf                                   7      0.0000       0.00000       A     3.27488e-01     6.57271e-01    ;  uncertainty sigma = 0.000130, epsilon = 0.010556
 c5bf                                   6      0.0000       0.00000       A     3.39797e-01     4.51347e-01    ;  uncertainty sigma = 0.000040, epsilon = 0.003032
 c6bf                                   6      0.0000       0.00000       A     3.31581e-01     4.13815e-01    ;  uncertainty sigma = 0.000032, epsilon = 0.001364
 c7bf                                   6      0.0000       0.00000       A     3.31512e-01     4.13187e-01    ;  uncertainty sigma = 0.000002, epsilon = 0.000604
 c8bf                                   6      0.0000       0.00000       A     3.31520e-01     4.13286e-01    ;  uncertainty sigma = 0.000002, epsilon = 0.000576
 c9bf                                   6      0.0000       0.00000       A     3.31518e-01     4.13337e-01    ;  uncertainty sigma = 0.000003, epsilon = 0.000580
 c10bf                                  6      0.0000       0.00000       A     3.31520e-01     4.13286e-01    ;  uncertainty sigma = 0.000002, epsilon = 0.000576
 c11bf                                  6      0.0000       0.00000       A     3.31512e-01     4.13187e-01    ;  uncertainty sigma = 0.000002, epsilon = 0.000604
 c12bf                                  6      0.0000       0.00000       A     3.31582e-01     4.13992e-01    ;  uncertainty sigma = 0.000025, epsilon = 0.001348
 c13bf                                  6      0.0000       0.00000       A     3.31510e-01     4.13156e-01    ;  uncertainty sigma = 0.000002, epsilon = 0.000626
 c14bf                                  6      0.0000       0.00000       A     3.31522e-01     4.13312e-01    ;  uncertainty sigma = 0.000003, epsilon = 0.000635
 c15bf                                  6      0.0000       0.00000       A     3.31513e-01     4.13269e-01    ;  uncertainty sigma = 0.000005, epsilon = 0.000649
 c16bf                                  6      0.0000       0.00000       A     3.31501e-01     4.13596e-01    ;  uncertainty sigma = 0.000009, epsilon = 0.000503
 c17bf                                  6      0.0000       0.00000       A     3.31517e-01     4.13249e-01    ;  uncertainty sigma = 0.000008, epsilon = 0.000569
 c18bf                                  6      0.0000       0.00000       A     3.31514e-01     4.13287e-01    ;  uncertainty sigma = 0.000005, epsilon = 0.000643
 c19bf                                  6      0.0000       0.00000       A     3.31520e-01     4.13375e-01    ;  uncertainty sigma = 0.000002, epsilon = 0.000634
 c20bf                                  6      0.0000       0.00000       A     3.31518e-01     4.13340e-01    ;  uncertainty sigma = 0.000003, epsilon = 0.000580
 c21bf                                  6      0.0000       0.00000       A     3.31520e-01     4.13375e-01    ;  uncertainty sigma = 0.000002, epsilon = 0.000634
 c22bf                                  6      0.0000       0.00000       A     3.31514e-01     4.13287e-01    ;  uncertainty sigma = 0.000005, epsilon = 0.000643
 c23bf                                  6      0.0000       0.00000       A     3.31517e-01     4.13162e-01    ;  uncertainty sigma = 0.000019, epsilon = 0.001030
 c24bf                                  6      0.0000       0.00000       A     3.31544e-01     4.14220e-01    ;  uncertainty sigma = 0.000018, epsilon = 0.000894
 o25bf                                  8      0.0000       0.00000       A     3.04823e-01     6.12187e-01    ;  uncertainty sigma = 0.000062, epsilon = 0.001949
 h26bf                                  1      0.0000       0.00000       A     2.42208e-01     8.66970e-02    ;  uncertainty sigma = 0.000028, epsilon = 0.000664
 h27bf                                  1      0.0000       0.00000       A     2.42208e-01     8.66970e-02    ;  uncertainty sigma = 0.000028, epsilon = 0.000664
 h28bf                                  1      0.0000       0.00000       A     2.42208e-01     8.66970e-02    ;  uncertainty sigma = 0.000028, epsilon = 0.000664
 h29bf                                  1      0.0000       0.00000       A     1.10696e-01     4.12787e-02    ;  uncertainty sigma = 0.000128, epsilon = 0.001559
 h30bf                                  1      0.0000       0.00000       A     1.10548e-01     4.04868e-02    ;  uncertainty sigma = 0.000082, epsilon = 0.001718
 h31bf                                  1      0.0000       0.00000       A     2.62558e-01     6.70852e-02    ;  uncertainty sigma = 0.000008, epsilon = 0.000421
 h32bf                                  1      0.0000       0.00000       A     2.62558e-01     6.70264e-02    ;  uncertainty sigma = 0.000011, epsilon = 0.000445
 h33bf                                  1      0.0000       0.00000       A     2.62552e-01     6.70645e-02    ;  uncertainty sigma = 0.000011, epsilon = 0.000453
 h34bf                                  1      0.0000       0.00000       A     2.62558e-01     6.70264e-02    ;  uncertainty sigma = 0.000011, epsilon = 0.000445
 h35bf                                  1      0.0000       0.00000       A     2.62558e-01     6.70852e-02    ;  uncertainty sigma = 0.000008, epsilon = 0.000420
 h36bf                                  1      0.0000       0.00000       A     2.62558e-01     6.70852e-02    ;  uncertainty sigma = 0.000008, epsilon = 0.000420
 h37bf                                  1      0.0000       0.00000       A     2.62564e-01     6.70137e-02    ;  uncertainty sigma = 0.000010, epsilon = 0.000418
 h38bf                                  1      0.0000       0.00000       A     2.62562e-01     6.70409e-02    ;  uncertainty sigma = 0.000012, epsilon = 0.000507
 h39bf                                  1      0.0000       0.00000       A     2.62562e-01     6.70409e-02    ;  uncertainty sigma = 0.000012, epsilon = 0.000507
 h40bf                                  1      0.0000       0.00000       A     2.62559e-01     6.70249e-02    ;  uncertainty sigma = 0.000010, epsilon = 0.000440
 h41bf                                  1      0.0000       0.00000       A     2.62552e-01     6.70647e-02    ;  uncertainty sigma = 0.000011, epsilon = 0.000453
 h42bf                                  1      0.0000       0.00000       A     2.62559e-01     6.70249e-02    ;  uncertainty sigma = 0.000010, epsilon = 0.000440
 h43bf                                  1      0.0000       0.00000       A     2.62562e-01     6.70409e-02    ;  uncertainty sigma = 0.000012, epsilon = 0.000507
 h44bf                                  1      0.0000       0.00000       A     2.62550e-01     6.72375e-02    ;  uncertainty sigma = 0.000014, epsilon = 0.000655
 h45bf                                  1      0.0000       0.00000       A     1.10696e-01     4.12786e-02    ;  uncertainty sigma = 0.000128, epsilon = 0.001560

[ moleculetype ]
;name             nrexcl
 MOL                   3

[ atoms ]
;       nr            type      resi   res      atom      cgnr      charge          mass ; qtot
         1            c0bf         1   UNL        c0         1     0.07531       12.0110 ; qtot    0.075
         2            n1bf         1   UNL        n1         2    -0.41674       14.0070 ; qtot   -0.341
         3            c2bf         1   UNL        c2         3     0.46212       12.0110 ; qtot    0.121
         4            n3bf         1   UNL        n3         4    -0.47751       14.0070 ; qtot   -0.357
         5            n4bf         1   UNL        n4         5    -0.38173       14.0070 ; qtot   -0.739
         6            c5bf         1   UNL        c5         6     0.09098       12.0110 ; qtot   -0.648
         7            c6bf         1   UNL        c6         7    -0.15384       12.0110 ; qtot   -0.801
         8            c7bf         1   UNL        c7         8    -0.09654       12.0110 ; qtot   -0.898
         9            c8bf         1   UNL        c8         9    -0.11798       12.0110 ; qtot   -1.016
        10            c9bf         1   UNL        c9        10    -0.09151       12.0110 ; qtot   -1.107
        11           c10bf         1   UNL       c10        11    -0.11798       12.0110 ; qtot   -1.225
        12           c11bf         1   UNL       c11        12    -0.09654       12.0110 ; qtot   -1.322
        13           c12bf         1   UNL       c12        13    -0.14026       12.0110 ; qtot   -1.462
        14           c13bf         1   UNL       c13        14    -0.09262       12.0110 ; qtot   -1.555
        15           c14bf         1   UNL       c14        15    -0.11062       12.0110 ; qtot   -1.665
        16           c15bf         1   UNL       c15        16    -0.09500       12.0110 ; qtot   -1.760
        17           c16bf         1   UNL       c16        17    -0.01111       12.0110 ; qtot   -1.772
        18           c17bf         1   UNL       c17        18    -0.04944       12.0110 ; qtot   -1.821
        19           c18bf         1   UNL       c18        19    -0.11955       12.0110 ; qtot   -1.941
        20           c19bf         1   UNL       c19        20    -0.13196       12.0110 ; qtot   -2.073
        21           c20bf         1   UNL       c20        21    -0.12215       12.0110 ; qtot   -2.195
        22           c21bf         1   UNL       c21        22    -0.13196       12.0110 ; qtot   -2.327
        23           c22bf         1   UNL       c22        23    -0.11955       12.0110 ; qtot   -2.446
        24           c23bf         1   UNL       c23        24    -0.08200       12.0110 ; qtot   -2.528
        25           c24bf         1   UNL       c24        25     0.70308       12.0110 ; qtot   -1.825
        26           o25bf         1   UNL       o25        26    -0.44106       15.9990 ; qtot   -2.266
        27           h26bf         1   UNL       h26        27     0.09057        1.0080 ; qtot   -2.176
        28           h27bf         1   UNL       h27        28     0.09057        1.0080 ; qtot   -2.085
        29           h28bf         1   UNL       h28        29     0.09057        1.0080 ; qtot   -1.994
        30           h29bf         1   UNL       h29        30     0.33582        1.0080 ; qtot   -1.659
        31           h30bf         1   UNL       h30        31     0.35440        1.0080 ; qtot   -1.304
        32           h31bf         1   UNL       h31        32     0.14519        1.0080 ; qtot   -1.159
        33           h32bf         1   UNL       h32        33     0.14717        1.0080 ; qtot   -1.012
        34           h33bf         1   UNL       h33        34     0.13386        1.0080 ; qtot   -0.878
        35           h34bf         1   UNL       h34        35     0.14717        1.0080 ; qtot   -0.731
        36           h35bf         1   UNL       h35        36     0.14519        1.0080 ; qtot   -0.586
        37           h36bf         1   UNL       h36        37     0.14740        1.0080 ; qtot   -0.438
        38           h37bf         1   UNL       h37        38     0.14845        1.0080 ; qtot   -0.290
        39           h38bf         1   UNL       h38        39     0.13653        1.0080 ; qtot   -0.153
        40           h39bf         1   UNL       h39        40     0.13422        1.0080 ; qtot   -0.019
        41           h40bf         1   UNL       h40        41     0.13308        1.0080 ; qtot    0.114
        42           h41bf         1   UNL       h41        42     0.13373        1.0080 ; qtot    0.248
        43           h42bf         1   UNL       h42        43     0.13308        1.0080 ; qtot    0.381
        44           h43bf         1   UNL       h43        44     0.13422        1.0080 ; qtot    0.515
        45           h44bf         1   UNL       h44        45     0.14913        1.0080 ; qtot    0.664
        46           h45bf         1   UNL       h45        46     0.33581        1.0080 ; qtot    1.000

[ bonds ]
;       ai        aj funct               r               k
         1         2     1        0.146681   260602.881348    ;  uncertainty r = 0.000143, k = 13.029281
         1        27     1        0.109174   309405.420996    ;  uncertainty r = 0.000045, k = 3.044469
         1        28     1        0.109174   309405.420996    ;  uncertainty r = 0.000045, k = 3.044469
         1        29     1        0.109174   309405.420996    ;  uncertainty r = 0.000045, k = 3.044469
         2         3     1        0.135483   280628.393018    ;  uncertainty r = 0.000172, k = 43.937728
         2        25     1        0.142617   296977.429199    ;  uncertainty r = 0.000342, k = 74.592793
         3         4     1        0.132957   308233.676270    ;  uncertainty r = 0.000232, k = 39.227304
         3         5     1        0.133641   523376.876660    ;  uncertainty r = 0.000100, k = 44.741034
         4        30     1        0.101396   420869.489551    ;  uncertainty r = 0.000073, k = 12.258235
         4        46     1        0.101396   420869.489551    ;  uncertainty r = 0.000073, k = 12.258266
         5         6     1        0.150101   230544.707666    ;  uncertainty r = 0.000269, k = 76.803605
         5        31     1        0.101501   429624.734277    ;  uncertainty r = 0.000023, k = 4.106225
         6         7     1        0.150975   204394.043701    ;  uncertainty r = 0.000149, k = 20.066170
         6        13     1        0.150929   204061.282397    ;  uncertainty r = 0.000155, k = 19.693896
         6        25     1        0.153936   175864.087256    ;  uncertainty r = 0.000150, k = 17.945406
         7         8     1        0.139869   349456.955078    ;  uncertainty r = 0.000058, k = 6.929880
         7        12     1        0.139869   349456.955078    ;  uncertainty r = 0.000058, k = 6.929880
         8         9     1        0.139524   365940.393066    ;  uncertainty r = 0.000032, k = 1.462855
         8        32     1        0.108797   332693.323926    ;  uncertainty r = 0.000026, k = 2.526496
         9        10     1        0.139549   373468.937207    ;  uncertainty r = 0.000012, k = 2.413507
         9        33     1        0.108791   333723.950586    ;  uncertainty r = 0.000024, k = 1.087677
        10        11     1        0.139549   373468.937207    ;  uncertainty r = 0.000012, k = 2.413507
        10        34     1        0.108841   334503.981592    ;  uncertainty r = 0.000012, k = 0.652803
        11        12     1        0.139524   365940.393066    ;  uncertainty r = 0.000032, k = 1.462855
        11        35     1        0.108791   333723.950586    ;  uncertainty r = 0.000024, k = 1.087677
        12        36     1        0.108797   332693.323926    ;  uncertainty r = 0.000026, k = 2.526499
        13        14     1        0.139695   350457.524561    ;  uncertainty r = 0.000039, k = 5.364877
        13        24     1        0.139500   344072.225732    ;  uncertainty r = 0.000079, k = 6.005868
        14        15     1        0.139488   369019.351270    ;  uncertainty r = 0.000030, k = 1.373547
        14        37     1        0.108776   332840.519824    ;  uncertainty r = 0.000030, k = 2.465001
        15        16     1        0.139322   371310.132129    ;  uncertainty r = 0.000027, k = 2.710980
        15        38     1        0.108768   333105.390723    ;  uncertainty r = 0.000026, k = 1.115190
        16        17     1        0.140130   347360.179639    ;  uncertainty r = 0.000009, k = 0.676307
        16        39     1        0.108820   334865.306152    ;  uncertainty r = 0.000023, k = 0.943369
        17        18     1        0.147933   271891.764844    ;  uncertainty r = 0.000055, k = 3.989075
        17        24     1        0.139859   338921.927051    ;  uncertainty r = 0.000048, k = 2.810651
        18        19     1        0.140282   345211.870313    ;  uncertainty r = 0.000011, k = 1.982354
        18        23     1        0.140282   345211.921387    ;  uncertainty r = 0.000011, k = 1.982369
        19        20     1        0.139484   366058.068066    ;  uncertainty r = 0.000024, k = 1.586505
        19        40     1        0.108840   334972.868457    ;  uncertainty r = 0.000018, k = 0.816618
        20        21     1        0.139635   371417.719971    ;  uncertainty r = 0.000019, k = 0.651006
        20        41     1        0.108846   333796.322754    ;  uncertainty r = 0.000013, k = 0.671763
        21        22     1        0.139635   371417.719971    ;  uncertainty r = 0.000019, k = 0.651006
        21        42     1        0.108841   334518.895264    ;  uncertainty r = 0.000012, k = 0.635595
        22        23     1        0.139484   366058.068066    ;  uncertainty r = 0.000024, k = 1.586505
        22        43     1        0.108846   333796.322754    ;  uncertainty r = 0.000013, k = 0.671763
        23        44     1        0.108840   334972.868457    ;  uncertainty r = 0.000018, k = 0.816618
        24        45     1        0.108815   333309.968506    ;  uncertainty r = 0.000020, k = 2.085880
        25        26     1        0.119980   628990.138086    ;  uncertainty r = 0.000232, k = 12.942179

[ angles ]
;       ai        aj        ak funct           theta             cth
         1         2         3     1      118.639038      373.068630    ;  uncertainty theta = 0.007053, k = 0.430287
         1         2        25     1      119.076622      400.263928    ;  uncertainty theta = 0.008080, k = 0.316068
         2         1        27     1      107.362183      470.622814    ;  uncertainty theta = 0.002476, k = 0.220753
         2         1        28     1      107.362183      470.622814    ;  uncertainty theta = 0.002476, k = 0.220753
         2         1        29     1      107.362183      470.622814    ;  uncertainty theta = 0.002476, k = 0.220753
         2         3         4     1      125.899826      536.269337    ;  uncertainty theta = 0.010551, k = 0.299625
         2         3         5     1      113.193924      702.703362    ;  uncertainty theta = 0.009502, k = 0.274174
         2        25         6     1      109.961769      476.265047    ;  uncertainty theta = 0.006613, k = 0.652506
         2        25        26     1      125.508827      649.701794    ;  uncertainty theta = 0.010573, k = 0.151492
         3         2        25     1      110.408546      711.107880    ;  uncertainty theta = 0.009881, k = 0.266784
         3         4        30     1      114.821800      368.001174    ;  uncertainty theta = 0.004224, k = 0.186891
         3         4        46     1      114.821800      368.001142    ;  uncertainty theta = 0.004224, k = 0.186891
         3         5         6     1      111.750687      594.280584    ;  uncertainty theta = 0.019275, k = 0.459975
         3         5        31     1      119.382553      353.668439    ;  uncertainty theta = 0.010145, k = 0.152610
         4         3         5     1      128.556000      642.790750    ;  uncertainty theta = 0.009936, k = 0.330368
         5         6         7     1      110.460434      632.624809    ;  uncertainty theta = 0.005178, k = 0.185747
         5         6        13     1      110.363304      633.704774    ;  uncertainty theta = 0.005332, k = 0.196341
         5         6        25     1      102.870018      925.017242    ;  uncertainty theta = 0.007229, k = 0.531227
         6         5        31     1      117.291641      301.371185    ;  uncertainty theta = 0.006714, k = 0.480634
         6         7         8     1      117.074219      374.316405    ;  uncertainty theta = 0.007313, k = 0.169097
         6         7        12     1      117.074219      374.316405    ;  uncertainty theta = 0.007313, k = 0.169097
         6        13        14     1      117.188919      371.073703    ;  uncertainty theta = 0.007117, k = 0.190096
         6        13        24     1      116.625099      373.129792    ;  uncertainty theta = 0.006544, k = 0.114482
         6        25        26     1      125.519859      411.082661    ;  uncertainty theta = 0.008567, k = 0.131742
         7         6        13     1      113.186264      513.960725    ;  uncertainty theta = 0.011306, k = 0.359026
         7         6        25     1      109.141335      488.728114    ;  uncertainty theta = 0.009732, k = 0.152365
         7         8         9     1      121.038895      513.256252    ;  uncertainty theta = 0.003562, k = 0.078827
         7         8        32     1      118.396080      273.185271    ;  uncertainty theta = 0.004089, k = 0.068593
         7        12        11     1      121.038895      513.256252    ;  uncertainty theta = 0.003562, k = 0.078827
         7        12        36     1      118.396095      273.185271    ;  uncertainty theta = 0.004089, k = 0.068593
         8         7        12     1      123.006119      449.964984    ;  uncertainty theta = 0.007050, k = 0.147704
         8         9        10     1      119.486618      517.107663    ;  uncertainty theta = 0.001936, k = 0.033500
         8         9        33     1      119.692894      282.691587    ;  uncertainty theta = 0.002820, k = 0.049810
         9         8        32     1      120.085548      298.145592    ;  uncertainty theta = 0.002287, k = 0.040415
         9        10        11     1      118.018600      533.452020    ;  uncertainty theta = 0.001323, k = 0.059913
         9        10        34     1      120.465477      288.877473    ;  uncertainty theta = 0.001797, k = 0.017289
        10         9        33     1      120.779457      288.986293    ;  uncertainty theta = 0.001247, k = 0.025032
        10        11        12     1      119.486618      517.107663    ;  uncertainty theta = 0.001936, k = 0.033500
        10        11        35     1      120.779457      288.986293    ;  uncertainty theta = 0.001247, k = 0.025032
        11        10        34     1      120.465477      288.877473    ;  uncertainty theta = 0.001797, k = 0.017289
        11        12        36     1      120.085548      298.145624    ;  uncertainty theta = 0.002287, k = 0.040414
        12        11        35     1      119.692894      282.691587    ;  uncertainty theta = 0.002820, k = 0.049810
        13         6        25     1      109.087914      489.507411    ;  uncertainty theta = 0.008967, k = 0.155642
        13        14        15     1      120.116592      513.097922    ;  uncertainty theta = 0.003985, k = 0.048111
        13        14        37     1      118.579468      273.249943    ;  uncertainty theta = 0.004177, k = 0.069830
        13        24        17     1      122.229980      513.019427    ;  uncertainty theta = 0.002734, k = 0.166584
        13        24        45     1      118.206032      273.517061    ;  uncertainty theta = 0.004015, k = 0.065303
        14        13        24     1      123.441666      432.172770    ;  uncertainty theta = 0.006615, k = 0.179243
        14        15        16     1      120.296432      509.064846    ;  uncertainty theta = 0.002468, k = 0.077953
        14        15        38     1      119.788002      281.762579    ;  uncertainty theta = 0.002427, k = 0.048474
        15        14        37     1      120.331825      300.364767    ;  uncertainty theta = 0.002789, k = 0.028913
        15        16        17     1      119.842484      535.129425    ;  uncertainty theta = 0.002449, k = 0.066519
        15        16        39     1      120.219772      294.473835    ;  uncertainty theta = 0.001120, k = 0.016578
        16        15        38     1      120.395386      284.232911    ;  uncertainty theta = 0.000987, k = 0.052321
        16        17        18     1      121.384842      409.163291    ;  uncertainty theta = 0.001615, k = 0.135018
        16        17        24     1      119.854660      404.412591    ;  uncertainty theta = 0.004526, k = 0.220072
        17        16        39     1      119.042076      278.400906    ;  uncertainty theta = 0.000706, k = 0.097337
        17        18        19     1      120.280563      411.172328    ;  uncertainty theta = 0.002519, k = 0.033531
        17        18        23     1      120.280563      411.172328    ;  uncertainty theta = 0.002519, k = 0.033531
        17        24        45     1      118.950821      283.055427    ;  uncertainty theta = 0.002324, k = 0.095789
        18        17        24     1      120.181351      415.073121    ;  uncertainty theta = 0.002774, k = 0.148870
        18        19        20     1      120.962708      524.373641    ;  uncertainty theta = 0.001693, k = 0.050939
        18        19        40     1      119.141640      278.752424    ;  uncertainty theta = 0.001779, k = 0.050726
        18        23        22     1      120.962708      524.373641    ;  uncertainty theta = 0.001693, k = 0.050939
        18        23        44     1      119.141624      278.752424    ;  uncertainty theta = 0.001779, k = 0.050726
        19        18        23     1      119.956444      421.662366    ;  uncertainty theta = 0.003157, k = 0.093645
        19        20        21     1      119.768982      515.440664    ;  uncertainty theta = 0.001388, k = 0.012871
        19        20        41     1      120.156349      284.617532    ;  uncertainty theta = 0.001311, k = 0.012512
        20        19        40     1      120.285904      293.081041    ;  uncertainty theta = 0.001071, k = 0.018800
        20        21        22     1      118.290138      528.095260    ;  uncertainty theta = 0.001610, k = 0.009475
        20        21        42     1      120.636986      288.903585    ;  uncertainty theta = 0.001584, k = 0.007453
        21        20        41     1      120.625977      288.164254    ;  uncertainty theta = 0.001231, k = 0.016573
        21        22        23     1      119.768982      515.440664    ;  uncertainty theta = 0.001388, k = 0.012871
        21        22        43     1      120.625977      288.164254    ;  uncertainty theta = 0.001231, k = 0.016573
        22        21        42     1      120.636986      288.903585    ;  uncertainty theta = 0.001584, k = 0.007453
        22        23        44     1      120.285904      293.081041    ;  uncertainty theta = 0.001071, k = 0.018800
        23        22        43     1      120.156349      284.617532    ;  uncertainty theta = 0.001311, k = 0.012512
        27         1        28     1      107.627052      325.730906    ;  uncertainty theta = 0.003369, k = 0.100967
        27         1        29     1      107.627052      325.730906    ;  uncertainty theta = 0.003369, k = 0.100967
        28         1        29     1      107.627052      325.730906    ;  uncertainty theta = 0.003369, k = 0.100967
        30         4        46     1      112.418320      264.652971    ;  uncertainty theta = 0.015777, k = 0.354183

[ dihedrals ] ; propers for gromacs 4.5 or higher, use funct 9
;       ai        aj        ak        al funct           phase               k        pn
         1         2         3         4     9        0.000000        0.020220         1    ;  uncertainty k = 0.657937
         1         2         3         4     9      180.000000        6.877463         2    ;  uncertainty k = 0.678113
         1         2         3         4     9        0.000000        0.933687         3    ;  uncertainty k = 0.728898
         1         2         3         4     9      180.000000        0.009158         4    ;  uncertainty k = 0.300485
         1         2         3         5     9        0.000000       -0.356115         1    ;  uncertainty k = 2.518191
         1         2         3         5     9      180.000000        8.283854         2    ;  uncertainty k = 0.415941
         1         2         3         5     9        0.000000        0.272445         3    ;  uncertainty k = 0.120757
         1         2         3         5     9      180.000000       -0.125980         4    ;  uncertainty k = 0.245883
         1         2        25         6     9        0.000000        5.315178         1    ;  uncertainty k = 1.998701
         1         2        25         6     9      180.000000        4.608340         2    ;  uncertainty k = 1.496939
         1         2        25         6     9        0.000000        1.271077         3    ;  uncertainty k = 0.828356
         1         2        25         6     9      180.000000        0.033156         4    ;  uncertainty k = 0.568101
         1         2        25        26     9        0.000000       -0.515841         1    ;  uncertainty k = 3.156148
         1         2        25        26     9      180.000000        8.416191         2    ;  uncertainty k = 0.470256
         1         2        25        26     9        0.000000        0.571768         3    ;  uncertainty k = 0.526356
         1         2        25        26     9      180.000000        0.206425         4    ;  uncertainty k = 0.242867
         2         3         4        30     9        0.000000        7.495475         1    ;  uncertainty k = 2.018544
         2         3         4        30     9      180.000000        9.518865         2    ;  uncertainty k = 0.609488
         2         3         4        30     9        0.000000        1.009625         3    ;  uncertainty k = 0.533193
         2         3         4        30     9      180.000000       -0.962191         4    ;  uncertainty k = 0.242201
         2         3         4        46     9        0.000000        7.495473         1    ;  uncertainty k = 2.018546
         2         3         4        46     9      180.000000        9.518867         2    ;  uncertainty k = 0.609488
         2         3         4        46     9        0.000000        1.009626         3    ;  uncertainty k = 0.533193
         2         3         4        46     9      180.000000       -0.962190         4    ;  uncertainty k = 0.242200
         2         3         5         6     9        0.000000        1.216637         1    ;  uncertainty k = 1.851010
         2         3         5         6     9      180.000000       14.836933         2    ;  uncertainty k = 0.431548
         2         3         5         6     9        0.000000       -0.181362         3    ;  uncertainty k = 0.984649
         2         3         5         6     9      180.000000       -0.541452         4    ;  uncertainty k = 0.214128
         2         3         5        31     9        0.000000        4.192861         1    ;  uncertainty k = 3.453401
         2         3         5        31     9      180.000000       10.610634         2    ;  uncertainty k = 0.634114
         2         3         5        31     9        0.000000        0.940964         3    ;  uncertainty k = 0.791708
         2         3         5        31     9      180.000000       -0.427268         4    ;  uncertainty k = 0.191048
         2        25         6         5     9        0.000000        0.026898         1    ;  uncertainty k = 2.722767
         2        25         6         5     9      180.000000        6.600280         2    ;  uncertainty k = 0.954493
         2        25         6         5     9        0.000000        0.270507         3    ;  uncertainty k = 0.664803
         2        25         6         5     9      180.000000        0.250183         4    ;  uncertainty k = 0.591147
         2        25         6         7     9        0.000000       -2.102597         1    ;  uncertainty k = 3.102238
         2        25         6         7     9      180.000000        1.474984         2    ;  uncertainty k = 1.103387
         2        25         6         7     9        0.000000        1.021732         3    ;  uncertainty k = 0.532805
         2        25         6         7     9      180.000000        0.737330         4    ;  uncertainty k = 0.291002
         2        25         6        13     9        0.000000       -2.037879         1    ;  uncertainty k = 3.177866
         2        25         6        13     9      180.000000        1.481072         2    ;  uncertainty k = 1.062157
         2        25         6        13     9        0.000000        1.051229         3    ;  uncertainty k = 0.548384
         2        25         6        13     9      180.000000        0.739318         4    ;  uncertainty k = 0.281152
         3         2         1        27     9        0.000000       -0.396418         1    ;  uncertainty k = 0.524313
         3         2         1        27     9      180.000000       -1.104407         2    ;  uncertainty k = 0.426496
         3         2         1        27     9        0.000000        0.442754         3    ;  uncertainty k = 0.213660
         3         2         1        27     9      180.000000        0.194733         4    ;  uncertainty k = 0.049391
         3         2         1        28     9        0.000000       -0.396418         1    ;  uncertainty k = 0.524313
         3         2         1        28     9      180.000000       -1.104407         2    ;  uncertainty k = 0.426496
         3         2         1        28     9        0.000000        0.442754         3    ;  uncertainty k = 0.213660
         3         2         1        28     9      180.000000        0.194733         4    ;  uncertainty k = 0.049391
         3         2         1        29     9        0.000000       -0.396418         1    ;  uncertainty k = 0.524313
         3         2         1        29     9      180.000000       -1.104407         2    ;  uncertainty k = 0.426496
         3         2         1        29     9        0.000000        0.442754         3    ;  uncertainty k = 0.213660
         3         2         1        29     9      180.000000        0.194733         4    ;  uncertainty k = 0.049391
         3         2        25         6     9        0.000000        3.107150         1    ;  uncertainty k = 1.849250
         3         2        25         6     9      180.000000        3.066216         2    ;  uncertainty k = 0.882201
         3         2        25         6     9        0.000000       -0.285893         3    ;  uncertainty k = 0.712736
         3         2        25         6     9      180.000000        0.753329         4    ;  uncertainty k = 0.259714
         3         2        25        26     9        0.000000        0.406781         1    ;  uncertainty k = 2.598331
         3         2        25        26     9      180.000000        7.636295         2    ;  uncertainty k = 0.797349
         3         2        25        26     9        0.000000        0.506697         3    ;  uncertainty k = 0.484035
         3         2        25        26     9      180.000000        0.070886         4    ;  uncertainty k = 0.264122
         3         5         6         7     9        0.000000        0.091811         1    ;  uncertainty k = 0.741142
         3         5         6         7     9      180.000000        1.014766         2    ;  uncertainty k = 0.553248
         3         5         6         7     9        0.000000        0.643088         3    ;  uncertainty k = 0.282748
         3         5         6         7     9      180.000000        0.484815         4    ;  uncertainty k = 0.293264
         3         5         6        13     9        0.000000        0.066200         1    ;  uncertainty k = 0.766273
         3         5         6        13     9      180.000000        1.001081         2    ;  uncertainty k = 0.551928
         3         5         6        13     9        0.000000        0.663411         3    ;  uncertainty k = 0.261481
         3         5         6        13     9      180.000000        0.495633         4    ;  uncertainty k = 0.301240
         3         5         6        25     9        0.000000        2.020599         1    ;  uncertainty k = 0.690692
         3         5         6        25     9      180.000000        2.318166         2    ;  uncertainty k = 1.059665
         3         5         6        25     9        0.000000        0.199857         3    ;  uncertainty k = 0.699828
         3         5         6        25     9      180.000000        0.438068         4    ;  uncertainty k = 0.468952
         4         3         2        25     9        0.000000       -0.586686         1    ;  uncertainty k = 0.774775
         4         3         2        25     9      180.000000        6.636751         2    ;  uncertainty k = 1.298463
         4         3         2        25     9        0.000000        0.201670         3    ;  uncertainty k = 0.743074
         4         3         2        25     9      180.000000       -0.088174         4    ;  uncertainty k = 0.478529
         4         3         5         6     9        0.000000        2.188014         1    ;  uncertainty k = 1.893592
         4         3         5         6     9      180.000000       10.144535         2    ;  uncertainty k = 0.979797
         4         3         5         6     9        0.000000        0.434811         3    ;  uncertainty k = 0.470363
         4         3         5         6     9      180.000000       -0.420942         4    ;  uncertainty k = 0.555914
         4         3         5        31     9        0.000000        2.256416         1    ;  uncertainty k = 2.728265
         4         3         5        31     9      180.000000        7.437433         2    ;  uncertainty k = 1.129202
         4         3         5        31     9        0.000000        0.944499         3    ;  uncertainty k = 0.181481
         4         3         5        31     9      180.000000       -0.270289         4    ;  uncertainty k = 0.314795
         5         3         2        25     9        0.000000       -0.153039         1    ;  uncertainty k = 1.721869
         5         3         2        25     9      180.000000        8.631896         2    ;  uncertainty k = 0.890565
         5         3         2        25     9        0.000000       -1.128578         3    ;  uncertainty k = 1.132200
         5         3         2        25     9      180.000000        0.000351         4    ;  uncertainty k = 0.465973
         5         3         4        30     9        0.000000        5.761295         1    ;  uncertainty k = 1.326850
         5         3         4        30     9      180.000000       10.436708         2    ;  uncertainty k = 0.346046
         5         3         4        30     9        0.000000        1.485194         3    ;  uncertainty k = 0.455012
         5         3         4        30     9      180.000000       -0.773238         4    ;  uncertainty k = 0.306951
         5         3         4        46     9        0.000000        5.761296         1    ;  uncertainty k = 1.326851
         5         3         4        46     9      180.000000       10.436706         2    ;  uncertainty k = 0.346045
         5         3         4        46     9        0.000000        1.485193         3    ;  uncertainty k = 0.455012
         5         3         4        46     9      180.000000       -0.773239         4    ;  uncertainty k = 0.306951
         5         6         7         8     9        0.000000       -1.006359         1    ;  uncertainty k = 1.282049
         5         6         7         8     9      180.000000        2.605369         2    ;  uncertainty k = 0.522487
         5         6         7         8     9        0.000000        0.536044         3    ;  uncertainty k = 0.227425
         5         6         7         8     9      180.000000        0.333205         4    ;  uncertainty k = 0.173230
         5         6         7        12     9        0.000000       -1.006359         1    ;  uncertainty k = 1.282049
         5         6         7        12     9      180.000000        2.605369         2    ;  uncertainty k = 0.522487
         5         6         7        12     9        0.000000        0.536044         3    ;  uncertainty k = 0.227425
         5         6         7        12     9      180.000000        0.333205         4    ;  uncertainty k = 0.173230
         5         6        13        14     9        0.000000       -1.025905         1    ;  uncertainty k = 1.201610
         5         6        13        14     9      180.000000        2.621036         2    ;  uncertainty k = 0.558884
         5         6        13        14     9        0.000000        0.532331         3    ;  uncertainty k = 0.211924
         5         6        13        14     9      180.000000        0.331473         4    ;  uncertainty k = 0.181779
         5         6        13        24     9        0.000000       -0.812417         1    ;  uncertainty k = 1.190585
         5         6        13        24     9      180.000000        2.614923         2    ;  uncertainty k = 0.651823
         5         6        13        24     9        0.000000        0.487180         3    ;  uncertainty k = 0.181039
         5         6        13        24     9      180.000000        0.338572         4    ;  uncertainty k = 0.181115
         5         6        25        26     9        0.000000       -1.351475         1    ;  uncertainty k = 2.878365
         5         6        25        26     9      180.000000        2.586288         2    ;  uncertainty k = 1.299806
         5         6        25        26     9        0.000000        0.299897         3    ;  uncertainty k = 0.631686
         5         6        25        26     9      180.000000        0.356820         4    ;  uncertainty k = 0.111975
         6         7         8         9     9        0.000000        0.032929         1    ;  uncertainty k = 0.381328
         6         7         8         9     9      180.000000        8.668432         2    ;  uncertainty k = 0.351930
         6         7         8         9     9        0.000000        1.456047         3    ;  uncertainty k = 0.364144
         6         7         8         9     9      180.000000        1.853281         4    ;  uncertainty k = 0.176603
         6         7         8        32     9        0.000000       -0.276887         1    ;  uncertainty k = 0.183727
         6         7         8        32     9      180.000000        6.938092         2    ;  uncertainty k = 0.459858
         6         7         8        32     9        0.000000        0.623177         3    ;  uncertainty k = 0.398127
         6         7         8        32     9      180.000000        1.065176         4    ;  uncertainty k = 0.272844
         6         7        12        11     9        0.000000        0.032929         1    ;  uncertainty k = 0.381328
         6         7        12        11     9      180.000000        8.668432         2    ;  uncertainty k = 0.351930
         6         7        12        11     9        0.000000        1.456047         3    ;  uncertainty k = 0.364144
         6         7        12        11     9      180.000000        1.853281         4    ;  uncertainty k = 0.176603
         6         7        12        36     9        0.000000       -0.276887         1    ;  uncertainty k = 0.183726
         6         7        12        36     9      180.000000        6.938093         2    ;  uncertainty k = 0.459858
         6         7        12        36     9        0.000000        0.623177         3    ;  uncertainty k = 0.398126
         6         7        12        36     9      180.000000        1.065175         4    ;  uncertainty k = 0.272845
         6        13        14        15     9        0.000000        0.040986         1    ;  uncertainty k = 0.352622
         6        13        14        15     9      180.000000        8.805889         2    ;  uncertainty k = 0.399520
         6        13        14        15     9        0.000000        1.443688         3    ;  uncertainty k = 0.363117
         6        13        14        15     9      180.000000        1.863794         4    ;  uncertainty k = 0.164462
         6        13        14        37     9        0.000000       -0.295494         1    ;  uncertainty k = 0.178811
         6        13        14        37     9      180.000000        6.909227         2    ;  uncertainty k = 0.444428
         6        13        14        37     9        0.000000        0.631066         3    ;  uncertainty k = 0.378603
         6        13        14        37     9      180.000000        1.058610         4    ;  uncertainty k = 0.260535
         6        13        24        17     9        0.000000        0.034842         1    ;  uncertainty k = 0.231376
         6        13        24        17     9      180.000000        8.478749         2    ;  uncertainty k = 0.384626
         6        13        24        17     9        0.000000        1.322532         3    ;  uncertainty k = 0.283596
         6        13        24        17     9      180.000000        1.855534         4    ;  uncertainty k = 0.128691
         6        13        24        45     9        0.000000       -0.235104         1    ;  uncertainty k = 0.114281
         6        13        24        45     9      180.000000        7.081287         2    ;  uncertainty k = 0.492982
         6        13        24        45     9        0.000000        0.600191         3    ;  uncertainty k = 0.412357
         6        13        24        45     9      180.000000        1.109087         4    ;  uncertainty k = 0.295872
         7         6         5        31     9        0.000000        2.192743         1    ;  uncertainty k = 1.168889
         7         6         5        31     9      180.000000        0.278657         2    ;  uncertainty k = 1.126461
         7         6         5        31     9        0.000000        0.581789         3    ;  uncertainty k = 0.409016
         7         6         5        31     9      180.000000        0.050893         4    ;  uncertainty k = 0.133681
         7         6        13        14     9        0.000000        0.693923         1    ;  uncertainty k = 0.318570
         7         6        13        14     9      180.000000        1.270418         2    ;  uncertainty k = 0.479803
         7         6        13        14     9        0.000000        0.262143         3    ;  uncertainty k = 0.314566
         7         6        13        14     9      180.000000        0.217016         4    ;  uncertainty k = 0.019052
         7         6        13        24     9        0.000000        0.688748         1    ;  uncertainty k = 0.417311
         7         6        13        24     9      180.000000        1.199513         2    ;  uncertainty k = 0.535194
         7         6        13        24     9        0.000000        0.208028         3    ;  uncertainty k = 0.342174
         7         6        13        24     9      180.000000        0.228344         4    ;  uncertainty k = 0.029728
         7         6        25        26     9        0.000000       -0.742446         1    ;  uncertainty k = 1.309835
         7         6        25        26     9      180.000000        3.252605         2    ;  uncertainty k = 0.704089
         7         6        25        26     9        0.000000        0.415226         3    ;  uncertainty k = 0.232107
         7         6        25        26     9      180.000000        0.072409         4    ;  uncertainty k = 0.180997
         7         8         9        10     9        0.000000        0.005132         1    ;  uncertainty k = 0.242164
         7         8         9        10     9      180.000000       13.352664         2    ;  uncertainty k = 0.284060
         7         8         9        10     9        0.000000       -0.876868         3    ;  uncertainty k = 0.537707
         7         8         9        10     9      180.000000        0.737381         4    ;  uncertainty k = 0.245374
         7         8         9        33     9        0.000000        0.129489         1    ;  uncertainty k = 0.312671
         7         8         9        33     9      180.000000        7.427846         2    ;  uncertainty k = 0.328692
         7         8         9        33     9        0.000000        1.481585         3    ;  uncertainty k = 0.152720
         7         8         9        33     9      180.000000        1.803538         4    ;  uncertainty k = 0.149501
         7        12        11        10     9        0.000000        0.005132         1    ;  uncertainty k = 0.242164
         7        12        11        10     9      180.000000       13.352664         2    ;  uncertainty k = 0.284060
         7        12        11        10     9        0.000000       -0.876868         3    ;  uncertainty k = 0.537707
         7        12        11        10     9      180.000000        0.737381         4    ;  uncertainty k = 0.245374
         7        12        11        35     9        0.000000        0.129489         1    ;  uncertainty k = 0.312671
         7        12        11        35     9      180.000000        7.427846         2    ;  uncertainty k = 0.328692
         7        12        11        35     9        0.000000        1.481585         3    ;  uncertainty k = 0.152720
         7        12        11        35     9      180.000000        1.803538         4    ;  uncertainty k = 0.149501
         8         7         6        13     9        0.000000        0.604432         1    ;  uncertainty k = 0.306259
         8         7         6        13     9      180.000000        1.338868         2    ;  uncertainty k = 0.482783
         8         7         6        13     9        0.000000        0.282089         3    ;  uncertainty k = 0.315113
         8         7         6        13     9      180.000000        0.240277         4    ;  uncertainty k = 0.026854
         8         7         6        25     9        0.000000        0.270089         1    ;  uncertainty k = 1.215594
         8         7         6        25     9      180.000000        0.970682         2    ;  uncertainty k = 0.379853
         8         7         6        25     9        0.000000        0.486667         3    ;  uncertainty k = 0.110642
         8         7         6        25     9      180.000000        0.249509         4    ;  uncertainty k = 0.167504
         8         7        12        11     9        0.000000       -0.240734         1    ;  uncertainty k = 0.377669
         8         7        12        11     9      180.000000       12.023573         2    ;  uncertainty k = 0.322594
         8         7        12        11     9        0.000000       -0.630710         3    ;  uncertainty k = 0.226694
         8         7        12        11     9      180.000000        0.783826         4    ;  uncertainty k = 0.301902
         8         7        12        36     9        0.000000        0.252148         1    ;  uncertainty k = 0.138567
         8         7        12        36     9      180.000000        7.620992         2    ;  uncertainty k = 0.536106
         8         7        12        36     9        0.000000        1.293074         3    ;  uncertainty k = 0.300641
         8         7        12        36     9      180.000000        1.649204         4    ;  uncertainty k = 0.194464
         8         9        10        11     9        0.000000       -0.006370         1    ;  uncertainty k = 0.040989
         8         9        10        11     9      180.000000       14.797851         2    ;  uncertainty k = 0.237722
         8         9        10        11     9        0.000000       -1.169438         3    ;  uncertainty k = 0.405008
         8         9        10        11     9      180.000000        0.534938         4    ;  uncertainty k = 0.272125
         8         9        10        34     9        0.000000        0.023622         1    ;  uncertainty k = 0.110077
         8         9        10        34     9      180.000000        7.495127         2    ;  uncertainty k = 0.205716
         8         9        10        34     9        0.000000        1.458527         3    ;  uncertainty k = 0.253935
         8         9        10        34     9      180.000000        1.798437         4    ;  uncertainty k = 0.212079
         9         8         7        12     9        0.000000       -0.240734         1    ;  uncertainty k = 0.377669
         9         8         7        12     9      180.000000       12.023573         2    ;  uncertainty k = 0.322594
         9         8         7        12     9        0.000000       -0.630710         3    ;  uncertainty k = 0.226694
         9         8         7        12     9      180.000000        0.783826         4    ;  uncertainty k = 0.301902
         9        10        11        12     9        0.000000       -0.006370         1    ;  uncertainty k = 0.040989
         9        10        11        12     9      180.000000       14.797851         2    ;  uncertainty k = 0.237722
         9        10        11        12     9        0.000000       -1.169438         3    ;  uncertainty k = 0.405008
         9        10        11        12     9      180.000000        0.534938         4    ;  uncertainty k = 0.272125
         9        10        11        35     9        0.000000       -0.019978         1    ;  uncertainty k = 0.134330
         9        10        11        35     9      180.000000        7.715563         2    ;  uncertainty k = 0.305081
         9        10        11        35     9        0.000000        1.421883         3    ;  uncertainty k = 0.287490
         9        10        11        35     9      180.000000        1.773059         4    ;  uncertainty k = 0.137712
        10         9         8        32     9        0.000000       -0.004880         1    ;  uncertainty k = 0.143286
        10         9         8        32     9      180.000000        8.039949         2    ;  uncertainty k = 0.374443
        10         9         8        32     9        0.000000        1.349892         3    ;  uncertainty k = 0.280047
        10         9         8        32     9      180.000000        1.833069         4    ;  uncertainty k = 0.108033
        10        11        12        36     9        0.000000       -0.004879         1    ;  uncertainty k = 0.143286
        10        11        12        36     9      180.000000        8.039949         2    ;  uncertainty k = 0.374443
        10        11        12        36     9        0.000000        1.349892         3    ;  uncertainty k = 0.280046
        10        11        12        36     9      180.000000        1.833069         4    ;  uncertainty k = 0.108033
        11        10         9        33     9        0.000000       -0.019978         1    ;  uncertainty k = 0.134330
        11        10         9        33     9      180.000000        7.715563         2    ;  uncertainty k = 0.305081
        11        10         9        33     9        0.000000        1.421883         3    ;  uncertainty k = 0.287490
        11        10         9        33     9      180.000000        1.773059         4    ;  uncertainty k = 0.137712
        12         7         6        13     9        0.000000        0.604432         1    ;  uncertainty k = 0.306259
        12         7         6        13     9      180.000000        1.338868         2    ;  uncertainty k = 0.482783
        12         7         6        13     9        0.000000        0.282089         3    ;  uncertainty k = 0.315113
        12         7         6        13     9      180.000000        0.240277         4    ;  uncertainty k = 0.026854
        12         7         6        25     9        0.000000        0.270089         1    ;  uncertainty k = 1.215594
        12         7         6        25     9      180.000000        0.970682         2    ;  uncertainty k = 0.379853
        12         7         6        25     9        0.000000        0.486667         3    ;  uncertainty k = 0.110642
        12         7         6        25     9      180.000000        0.249509         4    ;  uncertainty k = 0.167504
        12         7         8        32     9        0.000000        0.252150         1    ;  uncertainty k = 0.138569
        12         7         8        32     9      180.000000        7.620993         2    ;  uncertainty k = 0.536108
        12         7         8        32     9        0.000000        1.293074         3    ;  uncertainty k = 0.300641
        12         7         8        32     9      180.000000        1.649203         4    ;  uncertainty k = 0.194464
        12        11        10        34     9        0.000000        0.023622         1    ;  uncertainty k = 0.110077
        12        11        10        34     9      180.000000        7.495127         2    ;  uncertainty k = 0.205716
        12        11        10        34     9        0.000000        1.458527         3    ;  uncertainty k = 0.253935
        12        11        10        34     9      180.000000        1.798437         4    ;  uncertainty k = 0.212079
        13         6         5        31     9        0.000000        2.215360         1    ;  uncertainty k = 1.158417
        13         6         5        31     9      180.000000        0.335800         2    ;  uncertainty k = 1.110182
        13         6         5        31     9        0.000000        0.587312         3    ;  uncertainty k = 0.400245
        13         6         5        31     9      180.000000        0.046799         4    ;  uncertainty k = 0.131012
        13         6        25        26     9        0.000000       -0.497888         1    ;  uncertainty k = 1.456440
        13         6        25        26     9      180.000000        3.282056         2    ;  uncertainty k = 0.680877
        13         6        25        26     9        0.000000        0.447933         3    ;  uncertainty k = 0.239946
        13         6        25        26     9      180.000000        0.073709         4    ;  uncertainty k = 0.185546
        13        14        15        16     9        0.000000       -0.029527         1    ;  uncertainty k = 0.250141
        13        14        15        16     9      180.000000       13.134303         2    ;  uncertainty k = 0.324249
        13        14        15        16     9        0.000000       -0.888437         3    ;  uncertainty k = 0.557313
        13        14        15        16     9      180.000000        0.769131         4    ;  uncertainty k = 0.220930
        13        14        15        38     9        0.000000        0.130307         1    ;  uncertainty k = 0.335969
        13        14        15        38     9      180.000000        7.387018         2    ;  uncertainty k = 0.314936
        13        14        15        38     9        0.000000        1.444593         3    ;  uncertainty k = 0.134927
        13        14        15        38     9      180.000000        1.815730         4    ;  uncertainty k = 0.167712
        13        24        17        16     9        0.000000        0.155448         1    ;  uncertainty k = 0.376443
        13        24        17        16     9      180.000000        9.756861         2    ;  uncertainty k = 0.523028
        13        24        17        16     9        0.000000       -0.097378         3    ;  uncertainty k = 0.300917
        13        24        17        16     9      180.000000        1.117566         4    ;  uncertainty k = 0.313052
        13        24        17        18     9        0.000000        0.323138         1    ;  uncertainty k = 0.103966
        13        24        17        18     9      180.000000        8.430361         2    ;  uncertainty k = 0.420602
        13        24        17        18     9        0.000000        1.270652         3    ;  uncertainty k = 0.411357
        13        24        17        18     9      180.000000        1.728889         4    ;  uncertainty k = 0.098473
        14        13         6        25     9        0.000000        0.342002         1    ;  uncertainty k = 1.184395
        14        13         6        25     9      180.000000        0.986087         2    ;  uncertainty k = 0.376612
        14        13         6        25     9        0.000000        0.469383         3    ;  uncertainty k = 0.110008
        14        13         6        25     9      180.000000        0.252516         4    ;  uncertainty k = 0.170004
        14        13        24        17     9        0.000000       -0.344306         1    ;  uncertainty k = 0.439889
        14        13        24        17     9      180.000000       11.673470         2    ;  uncertainty k = 0.155366
        14        13        24        17     9        0.000000       -0.280271         3    ;  uncertainty k = 0.237835
        14        13        24        17     9      180.000000        0.946305         4    ;  uncertainty k = 0.209909
        14        13        24        45     9        0.000000        0.269813         1    ;  uncertainty k = 0.112714
        14        13        24        45     9      180.000000        7.801475         2    ;  uncertainty k = 0.501148
        14        13        24        45     9        0.000000        1.306346         3    ;  uncertainty k = 0.364415
        14        13        24        45     9      180.000000        1.639873         4    ;  uncertainty k = 0.191191
        14        15        16        17     9        0.000000       -0.067871         1    ;  uncertainty k = 0.265567
        14        15        16        17     9      180.000000       14.025539         2    ;  uncertainty k = 0.251711
        14        15        16        17     9        0.000000       -0.847870         3    ;  uncertainty k = 0.454124
        14        15        16        17     9      180.000000        0.711002         4    ;  uncertainty k = 0.211362
        14        15        16        39     9        0.000000        0.032972         1    ;  uncertainty k = 0.105437
        14        15        16        39     9      180.000000        7.678409         2    ;  uncertainty k = 0.219449
        14        15        16        39     9        0.000000        1.433723         3    ;  uncertainty k = 0.221970
        14        15        16        39     9      180.000000        1.813465         4    ;  uncertainty k = 0.226876
        15        14        13        24     9        0.000000       -0.274328         1    ;  uncertainty k = 0.291999
        15        14        13        24     9      180.000000       11.987496         2    ;  uncertainty k = 0.351789
        15        14        13        24     9        0.000000       -0.626496         3    ;  uncertainty k = 0.182581
        15        14        13        24     9      180.000000        0.822245         4    ;  uncertainty k = 0.279200
        15        16        17        18     9        0.000000        0.052784         1    ;  uncertainty k = 0.251556
        15        16        17        18     9      180.000000        8.979965         2    ;  uncertainty k = 0.557773
        15        16        17        18     9        0.000000        1.163455         3    ;  uncertainty k = 0.443001
        15        16        17        18     9      180.000000        1.729328         4    ;  uncertainty k = 0.166809
        15        16        17        24     9        0.000000        0.149593         1    ;  uncertainty k = 0.235588
        15        16        17        24     9      180.000000       10.962272         2    ;  uncertainty k = 0.224909
        15        16        17        24     9        0.000000       -0.415612         3    ;  uncertainty k = 0.359889
        15        16        17        24     9      180.000000        0.969304         4    ;  uncertainty k = 0.292483
        16        15        14        37     9        0.000000        0.042126         1    ;  uncertainty k = 0.086624
        16        15        14        37     9      180.000000        7.775276         2    ;  uncertainty k = 0.386823
        16        15        14        37     9        0.000000        1.362283         3    ;  uncertainty k = 0.234681
        16        15        14        37     9      180.000000        1.811590         4    ;  uncertainty k = 0.098598
        16        17        18        19     9        0.000000       -0.421125         1    ;  uncertainty k = 0.467010
        16        17        18        19     9      180.000000        3.948788         2    ;  uncertainty k = 0.060066
        16        17        18        19     9        0.000000        0.297658         3    ;  uncertainty k = 0.153140
        16        17        18        19     9      180.000000       -0.078314         4    ;  uncertainty k = 0.052466
        16        17        18        23     9        0.000000       -0.421125         1    ;  uncertainty k = 0.467010
        16        17        18        23     9      180.000000        3.948788         2    ;  uncertainty k = 0.060066
        16        17        18        23     9        0.000000        0.297658         3    ;  uncertainty k = 0.153140
        16        17        18        23     9      180.000000       -0.078314         4    ;  uncertainty k = 0.052466
        16        17        24        45     9        0.000000        0.112952         1    ;  uncertainty k = 0.165132
        16        17        24        45     9      180.000000        7.211352         2    ;  uncertainty k = 0.678233
        16        17        24        45     9        0.000000        1.430738         3    ;  uncertainty k = 0.121255
        16        17        24        45     9      180.000000        1.634377         4    ;  uncertainty k = 0.236206
        17        16        15        38     9        0.000000        0.009586         1    ;  uncertainty k = 0.161996
        17        16        15        38     9      180.000000        7.699149         2    ;  uncertainty k = 0.355616
        17        16        15        38     9        0.000000        1.336813         3    ;  uncertainty k = 0.221411
        17        16        15        38     9      180.000000        1.834007         4    ;  uncertainty k = 0.192637
        17        18        19        20     9        0.000000       -0.012364         1    ;  uncertainty k = 0.227408
        17        18        19        20     9      180.000000        8.767574         2    ;  uncertainty k = 0.573978
        17        18        19        20     9        0.000000        1.232850         3    ;  uncertainty k = 0.403285
        17        18        19        20     9      180.000000        1.785832         4    ;  uncertainty k = 0.159355
        17        18        19        40     9        0.000000       -0.267740         1    ;  uncertainty k = 0.321669
        17        18        19        40     9      180.000000        7.098115         2    ;  uncertainty k = 0.480074
        17        18        19        40     9        0.000000        0.822513         3    ;  uncertainty k = 0.152826
        17        18        19        40     9      180.000000        1.173729         4    ;  uncertainty k = 0.213119
        17        18        23        22     9        0.000000       -0.012364         1    ;  uncertainty k = 0.227408
        17        18        23        22     9      180.000000        8.767574         2    ;  uncertainty k = 0.573978
        17        18        23        22     9        0.000000        1.232850         3    ;  uncertainty k = 0.403285
        17        18        23        22     9      180.000000        1.785832         4    ;  uncertainty k = 0.159355
        17        18        23        44     9        0.000000       -0.267740         1    ;  uncertainty k = 0.321669
        17        18        23        44     9      180.000000        7.098115         2    ;  uncertainty k = 0.480074
        17        18        23        44     9        0.000000        0.822513         3    ;  uncertainty k = 0.152826
        17        18        23        44     9      180.000000        1.173729         4    ;  uncertainty k = 0.213119
        18        17        16        39     9        0.000000       -0.118740         1    ;  uncertainty k = 0.297762
        18        17        16        39     9      180.000000        7.177222         2    ;  uncertainty k = 0.494323
        18        17        16        39     9        0.000000        0.828421         3    ;  uncertainty k = 0.107060
        18        17        16        39     9      180.000000        1.191242         4    ;  uncertainty k = 0.181125
        18        17        24        45     9        0.000000       -0.056943         1    ;  uncertainty k = 0.199515
        18        17        24        45     9      180.000000        7.363404         2    ;  uncertainty k = 0.282494
        18        17        24        45     9        0.000000        0.867479         3    ;  uncertainty k = 0.173151
        18        17        24        45     9      180.000000        1.296364         4    ;  uncertainty k = 0.180245
        18        19        20        21     9        0.000000       -0.009537         1    ;  uncertainty k = 0.167743
        18        19        20        21     9      180.000000       14.286094         2    ;  uncertainty k = 0.190517
        18        19        20        21     9        0.000000       -0.885653         3    ;  uncertainty k = 0.449279
        18        19        20        21     9      180.000000        0.675860         4    ;  uncertainty k = 0.257016
        18        19        20        41     9        0.000000        0.015229         1    ;  uncertainty k = 0.247770
        18        19        20        41     9      180.000000        7.808738         2    ;  uncertainty k = 0.331363
        18        19        20        41     9        0.000000        1.367135         3    ;  uncertainty k = 0.261338
        18        19        20        41     9      180.000000        1.842889         4    ;  uncertainty k = 0.173469
        18        23        22        21     9        0.000000       -0.009537         1    ;  uncertainty k = 0.167743
        18        23        22        21     9      180.000000       14.286094         2    ;  uncertainty k = 0.190517
        18        23        22        21     9        0.000000       -0.885653         3    ;  uncertainty k = 0.449279
        18        23        22        21     9      180.000000        0.675860         4    ;  uncertainty k = 0.257016
        18        23        22        43     9        0.000000        0.015229         1    ;  uncertainty k = 0.247770
        18        23        22        43     9      180.000000        7.808738         2    ;  uncertainty k = 0.331363
        18        23        22        43     9        0.000000        1.367135         3    ;  uncertainty k = 0.261338
        18        23        22        43     9      180.000000        1.842889         4    ;  uncertainty k = 0.173469
        19        18        17        24     9        0.000000       -0.203338         1    ;  uncertainty k = 0.472558
        19        18        17        24     9      180.000000        4.210466         2    ;  uncertainty k = 0.125853
        19        18        17        24     9        0.000000        0.270794         3    ;  uncertainty k = 0.165877
        19        18        17        24     9      180.000000        0.005861         4    ;  uncertainty k = 0.063539
        19        18        23        22     9        0.000000        0.054182         1    ;  uncertainty k = 0.062617
        19        18        23        22     9      180.000000       11.371015         2    ;  uncertainty k = 0.260948
        19        18        23        22     9        0.000000       -0.408589         3    ;  uncertainty k = 0.299906
        19        18        23        22     9      180.000000        0.847308         4    ;  uncertainty k = 0.278274
        19        18        23        44     9        0.000000        0.146818         1    ;  uncertainty k = 0.143878
        19        18        23        44     9      180.000000        6.924091         2    ;  uncertainty k = 0.540798
        19        18        23        44     9        0.000000        1.444624         3    ;  uncertainty k = 0.237364
        19        18        23        44     9      180.000000        1.628750         4    ;  uncertainty k = 0.235895
        19        20        21        22     9        0.000000       -0.005913         1    ;  uncertainty k = 0.081664
        19        20        21        22     9      180.000000       14.937442         2    ;  uncertainty k = 0.274385
        19        20        21        22     9        0.000000       -1.174650         3    ;  uncertainty k = 0.514660
        19        20        21        22     9      180.000000        0.534623         4    ;  uncertainty k = 0.278895
        19        20        21        42     9        0.000000        0.090795         1    ;  uncertainty k = 0.050550
        19        20        21        42     9      180.000000        7.485182         2    ;  uncertainty k = 0.324123
        19        20        21        42     9        0.000000        1.472308         3    ;  uncertainty k = 0.284918
        19        20        21        42     9      180.000000        1.797931         4    ;  uncertainty k = 0.141422
        20        19        18        23     9        0.000000        0.054182         1    ;  uncertainty k = 0.062617
        20        19        18        23     9      180.000000       11.371015         2    ;  uncertainty k = 0.260948
        20        19        18        23     9        0.000000       -0.408589         3    ;  uncertainty k = 0.299906
        20        19        18        23     9      180.000000        0.847308         4    ;  uncertainty k = 0.278274
        20        21        22        23     9        0.000000       -0.005913         1    ;  uncertainty k = 0.081664
        20        21        22        23     9      180.000000       14.937442         2    ;  uncertainty k = 0.274385
        20        21        22        23     9        0.000000       -1.174650         3    ;  uncertainty k = 0.514660
        20        21        22        23     9      180.000000        0.534623         4    ;  uncertainty k = 0.278895
        20        21        22        43     9        0.000000        0.072465         1    ;  uncertainty k = 0.048534
        20        21        22        43     9      180.000000        7.567594         2    ;  uncertainty k = 0.302859
        20        21        22        43     9        0.000000        1.437008         3    ;  uncertainty k = 0.328857
        20        21        22        43     9      180.000000        1.801943         4    ;  uncertainty k = 0.135711
        21        20        19        40     9        0.000000        0.070257         1    ;  uncertainty k = 0.104111
        21        20        19        40     9      180.000000        7.941235         2    ;  uncertainty k = 0.249051
        21        20        19        40     9        0.000000        1.423809         3    ;  uncertainty k = 0.295934
        21        20        19        40     9      180.000000        1.855020         4    ;  uncertainty k = 0.191857
        21        22        23        44     9        0.000000        0.070257         1    ;  uncertainty k = 0.104111
        21        22        23        44     9      180.000000        7.941235         2    ;  uncertainty k = 0.249051
        21        22        23        44     9        0.000000        1.423809         3    ;  uncertainty k = 0.295934
        21        22        23        44     9      180.000000        1.855020         4    ;  uncertainty k = 0.191857
        22        21        20        41     9        0.000000        0.072465         1    ;  uncertainty k = 0.048534
        22        21        20        41     9      180.000000        7.567594         2    ;  uncertainty k = 0.302859
        22        21        20        41     9        0.000000        1.437008         3    ;  uncertainty k = 0.328857
        22        21        20        41     9      180.000000        1.801943         4    ;  uncertainty k = 0.135711
        23        18        17        24     9        0.000000       -0.203338         1    ;  uncertainty k = 0.472558
        23        18        17        24     9      180.000000        4.210466         2    ;  uncertainty k = 0.125853
        23        18        17        24     9        0.000000        0.270794         3    ;  uncertainty k = 0.165877
        23        18        17        24     9      180.000000        0.005861         4    ;  uncertainty k = 0.063539
        23        18        19        40     9        0.000000        0.146818         1    ;  uncertainty k = 0.143878
        23        18        19        40     9      180.000000        6.924091         2    ;  uncertainty k = 0.540798
        23        18        19        40     9        0.000000        1.444624         3    ;  uncertainty k = 0.237364
        23        18        19        40     9      180.000000        1.628750         4    ;  uncertainty k = 0.235895
        23        22        21        42     9        0.000000        0.090795         1    ;  uncertainty k = 0.050550
        23        22        21        42     9      180.000000        7.485182         2    ;  uncertainty k = 0.324123
        23        22        21        42     9        0.000000        1.472308         3    ;  uncertainty k = 0.284918
        23        22        21        42     9      180.000000        1.797931         4    ;  uncertainty k = 0.141422
        24        13         6        25     9        0.000000        0.320605         1    ;  uncertainty k = 1.213905
        24        13         6        25     9      180.000000        0.986934         2    ;  uncertainty k = 0.365423
        24        13         6        25     9        0.000000        0.423506         3    ;  uncertainty k = 0.099843
        24        13         6        25     9      180.000000        0.257888         4    ;  uncertainty k = 0.166690
        24        13        14        37     9        0.000000        0.312629         1    ;  uncertainty k = 0.190292
        24        13        14        37     9      180.000000        7.595633         2    ;  uncertainty k = 0.551732
        24        13        14        37     9        0.000000        1.287661         3    ;  uncertainty k = 0.350845
        24        13        14        37     9      180.000000        1.645475         4    ;  uncertainty k = 0.209409
        24        17        16        39     9        0.000000        0.172207         1    ;  uncertainty k = 0.164331
        24        17        16        39     9      180.000000        7.068693         2    ;  uncertainty k = 0.445569
        24        17        16        39     9        0.000000        1.403844         3    ;  uncertainty k = 0.253333
        24        17        16        39     9      180.000000        1.591628         4    ;  uncertainty k = 0.257420
        25         2         1        27     9        0.000000        0.248591         1    ;  uncertainty k = 0.444249
        25         2         1        27     9      180.000000        0.083806         2    ;  uncertainty k = 0.256009
        25         2         1        27     9        0.000000        0.361519         3    ;  uncertainty k = 0.229559
        25         2         1        27     9      180.000000        0.309824         4    ;  uncertainty k = 0.070542
        25         2         1        28     9        0.000000        0.248591         1    ;  uncertainty k = 0.444249
        25         2         1        28     9      180.000000        0.083806         2    ;  uncertainty k = 0.256009
        25         2         1        28     9        0.000000        0.361519         3    ;  uncertainty k = 0.229559
        25         2         1        28     9      180.000000        0.309824         4    ;  uncertainty k = 0.070542
        25         2         1        29     9        0.000000        0.248591         1    ;  uncertainty k = 0.444249
        25         2         1        29     9      180.000000        0.083806         2    ;  uncertainty k = 0.256009
        25         2         1        29     9        0.000000        0.361519         3    ;  uncertainty k = 0.229559
        25         2         1        29     9      180.000000        0.309824         4    ;  uncertainty k = 0.070542
        25         6         5        31     9        0.000000       -0.290074         1    ;  uncertainty k = 2.574717
        25         6         5        31     9      180.000000        0.241721         2    ;  uncertainty k = 1.828814
        25         6         5        31     9        0.000000        0.369689         3    ;  uncertainty k = 0.455815
        25         6         5        31     9      180.000000       -0.040549         4    ;  uncertainty k = 0.160948
        32         8         9        33     9        0.000000       -0.156460         1    ;  uncertainty k = 0.354103
        32         8         9        33     9      180.000000        7.863235         2    ;  uncertainty k = 0.315073
        32         8         9        33     9        0.000000       -0.450842         3    ;  uncertainty k = 0.303952
        32         8         9        33     9      180.000000        0.185726         4    ;  uncertainty k = 0.168830
        33         9        10        34     9        0.000000       -0.049616         1    ;  uncertainty k = 0.148337
        33         9        10        34     9      180.000000        7.798625         2    ;  uncertainty k = 0.386263
        33         9        10        34     9        0.000000       -0.413767         3    ;  uncertainty k = 0.291378
        33         9        10        34     9      180.000000        0.047027         4    ;  uncertainty k = 0.170118
        34        10        11        35     9        0.000000       -0.049616         1    ;  uncertainty k = 0.148337
        34        10        11        35     9      180.000000        7.798625         2    ;  uncertainty k = 0.386263
        34        10        11        35     9        0.000000       -0.413767         3    ;  uncertainty k = 0.291378
        34        10        11        35     9      180.000000        0.047027         4    ;  uncertainty k = 0.170118
        35        11        12        36     9        0.000000       -0.156460         1    ;  uncertainty k = 0.354102
        35        11        12        36     9      180.000000        7.863235         2    ;  uncertainty k = 0.315070
        35        11        12        36     9        0.000000       -0.450842         3    ;  uncertainty k = 0.303952
        35        11        12        36     9      180.000000        0.185726         4    ;  uncertainty k = 0.168829
        37        14        15        38     9        0.000000       -0.162735         1    ;  uncertainty k = 0.342358
        37        14        15        38     9      180.000000        7.812446         2    ;  uncertainty k = 0.315878
        37        14        15        38     9        0.000000       -0.476482         3    ;  uncertainty k = 0.316090
        37        14        15        38     9      180.000000        0.149754         4    ;  uncertainty k = 0.190255
        38        15        16        39     9        0.000000       -0.091339         1    ;  uncertainty k = 0.201671
        38        15        16        39     9      180.000000        7.955101         2    ;  uncertainty k = 0.286440
        38        15        16        39     9        0.000000       -0.501360         3    ;  uncertainty k = 0.277132
        38        15        16        39     9      180.000000        0.117607         4    ;  uncertainty k = 0.149001
        40        19        20        41     9        0.000000       -0.084536         1    ;  uncertainty k = 0.118205
        40        19        20        41     9      180.000000        7.802509         2    ;  uncertainty k = 0.311318
        40        19        20        41     9        0.000000       -0.481914         3    ;  uncertainty k = 0.277163
        40        19        20        41     9      180.000000        0.132435         4    ;  uncertainty k = 0.122309
        41        20        21        42     9        0.000000       -0.054064         1    ;  uncertainty k = 0.098598
        41        20        21        42     9      180.000000        7.627309         2    ;  uncertainty k = 0.408952
        41        20        21        42     9        0.000000       -0.419010         3    ;  uncertainty k = 0.294816
        41        20        21        42     9      180.000000        0.038054         4    ;  uncertainty k = 0.143388
        42        21        22        43     9        0.000000       -0.054064         1    ;  uncertainty k = 0.098598
        42        21        22        43     9      180.000000        7.627309         2    ;  uncertainty k = 0.408952
        42        21        22        43     9        0.000000       -0.419010         3    ;  uncertainty k = 0.294816
        42        21        22        43     9      180.000000        0.038054         4    ;  uncertainty k = 0.143388
        43        22        23        44     9        0.000000       -0.084536         1    ;  uncertainty k = 0.118205
        43        22        23        44     9      180.000000        7.802508         2    ;  uncertainty k = 0.311318
        43        22        23        44     9        0.000000       -0.481914         3    ;  uncertainty k = 0.277163
        43        22        23        44     9      180.000000        0.132435         4    ;  uncertainty k = 0.122309

[ dihedrals ] ; impropers
;       ai        aj        ak        al funct           phase               k        pn
         2         1         3        25     4      180.000000        1.980029         2    ;  uncertainty k = 0.475019
         2         3        25         1     4      180.000000        1.980029         2    ;  uncertainty k = 0.475019
         2        25         1         3     4      180.000000        1.980029         2    ;  uncertainty k = 0.475019
         3         2         4         5     4      180.000000       30.576100         2    ;  uncertainty k = 0.126950
         3         4         5         2     4      180.000000       30.576100         2    ;  uncertainty k = 0.126950
         3         5         2         4     4      180.000000       30.576100         2    ;  uncertainty k = 0.126950
         4         3        30        46     4      180.000000        0.162942         2    ;  uncertainty k = 0.364350
         4        30        46         3     4      180.000000        0.162942         2    ;  uncertainty k = 0.364350
         4        46         3        30     4      180.000000        0.162942         2    ;  uncertainty k = 0.364350
         7         6         8        12     4      180.000000        9.903187         2    ;  uncertainty k = 0.263109
         7         8        12         6     4      180.000000        9.903187         2    ;  uncertainty k = 0.263109
         7        12         6         8     4      180.000000        9.903187         2    ;  uncertainty k = 0.263109
         8         7         9        32     4      180.000000        4.262961         2    ;  uncertainty k = 0.194702
         8         9        32         7     4      180.000000        4.262961         2    ;  uncertainty k = 0.194702
         8        32         7         9     4      180.000000        4.262961         2    ;  uncertainty k = 0.194702
         9         8        10        33     4      180.000000        4.374957         2    ;  uncertainty k = 0.132607
         9        10        33         8     4      180.000000        4.374957         2    ;  uncertainty k = 0.132607
         9        33         8        10     4      180.000000        4.374957         2    ;  uncertainty k = 0.132607
        10         9        11        34     4      180.000000        4.945480         2    ;  uncertainty k = 0.161841
        10        11        34         9     4      180.000000        4.945480         2    ;  uncertainty k = 0.161841
        10        34         9        11     4      180.000000        4.945480         2    ;  uncertainty k = 0.161841
        11        10        12        35     4      180.000000        4.374957         2    ;  uncertainty k = 0.132607
        11        12        35        10     4      180.000000        4.374957         2    ;  uncertainty k = 0.132607
        11        35        10        12     4      180.000000        4.374957         2    ;  uncertainty k = 0.132607
        12         7        11        36     4      180.000000        4.262962         2    ;  uncertainty k = 0.194702
        12        11        36         7     4      180.000000        4.262962         2    ;  uncertainty k = 0.194702
        12        36         7        11     4      180.000000        4.262962         2    ;  uncertainty k = 0.194702
        13         6        14        24     4      180.000000       10.165199         2    ;  uncertainty k = 0.227302
        13        14        24         6     4      180.000000       10.165199         2    ;  uncertainty k = 0.227302
        13        24         6        14     4      180.000000       10.165199         2    ;  uncertainty k = 0.227302
        14        13        15        37     4      180.000000        4.099001         2    ;  uncertainty k = 0.199477
        14        15        37        13     4      180.000000        4.099001         2    ;  uncertainty k = 0.199477
        14        37        13        15     4      180.000000        4.099001         2    ;  uncertainty k = 0.199477
        15        14        16        38     4      180.000000        4.097219         2    ;  uncertainty k = 0.151129
        15        16        38        14     4      180.000000        4.097219         2    ;  uncertainty k = 0.151129
        15        38        14        16     4      180.000000        4.097219         2    ;  uncertainty k = 0.151129
        16        15        17        39     4      180.000000        4.524272         2    ;  uncertainty k = 0.116368
        16        17        39        15     4      180.000000        4.524272         2    ;  uncertainty k = 0.116368
        16        39        15        17     4      180.000000        4.524272         2    ;  uncertainty k = 0.116368
        17        16        18        24     4      180.000000       15.687827         2    ;  uncertainty k = 0.063501
        17        18        24        16     4      180.000000       15.687827         2    ;  uncertainty k = 0.063501
        17        24        16        18     4      180.000000       15.687827         2    ;  uncertainty k = 0.063501
        18        17        19        23     4      180.000000       14.337645         2    ;  uncertainty k = 0.067113
        18        19        23        17     4      180.000000       14.337645         2    ;  uncertainty k = 0.067113
        18        23        17        19     4      180.000000       14.337645         2    ;  uncertainty k = 0.067113
        19        18        20        40     4      180.000000        3.838821         2    ;  uncertainty k = 0.081395
        19        20        40        18     4      180.000000        3.838821         2    ;  uncertainty k = 0.081395
        19        40        18        20     4      180.000000        3.838821         2    ;  uncertainty k = 0.081395
        20        19        21        41     4      180.000000        4.126561         2    ;  uncertainty k = 0.085646
        20        21        41        19     4      180.000000        4.126561         2    ;  uncertainty k = 0.085646
        20        41        19        21     4      180.000000        4.126561         2    ;  uncertainty k = 0.085646
        21        20        22        42     4      180.000000        4.364182         2    ;  uncertainty k = 0.168222
        21        22        42        20     4      180.000000        4.364182         2    ;  uncertainty k = 0.168222
        21        42        20        22     4      180.000000        4.364182         2    ;  uncertainty k = 0.168222
        22        21        23        43     4      180.000000        4.126558         2    ;  uncertainty k = 0.085646
        22        23        43        21     4      180.000000        4.126558         2    ;  uncertainty k = 0.085646
        22        43        21        23     4      180.000000        4.126558         2    ;  uncertainty k = 0.085646
        23        18        22        44     4      180.000000        3.838817         2    ;  uncertainty k = 0.081396
        23        22        44        18     4      180.000000        3.838817         2    ;  uncertainty k = 0.081396
        23        44        18        22     4      180.000000        3.838817         2    ;  uncertainty k = 0.081396
        24        13        17        45     4      180.000000        4.441349         2    ;  uncertainty k = 0.299463
        24        17        45        13     4      180.000000        4.441349         2    ;  uncertainty k = 0.299463
        24        45        13        17     4      180.000000        4.441349         2    ;  uncertainty k = 0.299463
        25         2         6        26     4      180.000000       49.868697         2    ;  uncertainty k = 0.032116
        25         6        26         2     4      180.000000       49.868697         2    ;  uncertainty k = 0.032116
        25        26         2         6     4      180.000000       49.868697         2    ;  uncertainty k = 0.032116

[ pairs ]
;       ai        aj funct
         1         4     1
         1         5     1
         1         6     1
         1        26     1
         2         7     1
         2        13     1
         2        30     1
         2        31     1
         2        46     1
         3         7     1
         3        13     1
         3        26     1
         3        27     1
         3        28     1
         3        29     1
         4         6     1
         4        25     1
         4        31     1
         5         8     1
         5        12     1
         5        14     1
         5        24     1
         5        26     1
         5        30     1
         5        46     1
         6         9     1
         6        11     1
         6        15     1
         6        17     1
         6        32     1
         6        36     1
         6        37     1
         6        45     1
         7        10     1
         7        14     1
         7        24     1
         7        26     1
         7        31     1
         7        33     1
         7        35     1
         8        11     1
         8        13     1
         8        25     1
         8        34     1
         8        36     1
         9        12     1
         9        35     1
        10        32     1
        10        36     1
        11        33     1
        12        13     1
        12        25     1
        12        32     1
        12        34     1
        13        16     1
        13        18     1
        13        26     1
        13        31     1
        13        38     1
        14        17     1
        14        25     1
        14        39     1
        14        45     1
        15        18     1
        15        24     1
        16        19     1
        16        23     1
        16        37     1
        16        45     1
        17        20     1
        17        22     1
        17        38     1
        17        40     1
        17        44     1
        18        21     1
        18        39     1
        18        41     1
        18        43     1
        18        45     1
        19        22     1
        19        24     1
        19        42     1
        19        44     1
        20        23     1
        20        43     1
        21        40     1
        21        44     1
        22        41     1
        23        24     1
        23        40     1
        23        42     1
        24        25     1
        24        37     1
        24        39     1
        25        27     1
        25        28     1
        25        29     1
        25        31     1
        32        33     1
        33        34     1
        34        35     1
        35        36     1
        37        38     1
        38        39     1
        40        41     1
        41        42     1
        42        43     1
        43        44     1
