; ITP file created by ByteFF-joint-25, 2026-02-18 03:16:00.953629

[ atomtypes ]
;name           bonded.type        at.num        mass        charge   ptype           sigma         epsilon
 c0bf                                   6      0.0000       0.00000       A     3.39732e-01     4.51240e-01    ;  uncertainty sigma = 0.000013, epsilon = 0.001269
 n1bf                                   7      0.0000       0.00000       A     3.18094e-01     6.83547e-01    ;  uncertainty sigma = 0.000070, epsilon = 0.006726
 c2bf                                   6      0.0000       0.00000       A     3.31517e-01     4.12136e-01    ;  uncertainty sigma = 0.000056, epsilon = 0.001526
 n3bf                                   7      0.0000       0.00000       A     3.36545e-01     4.71525e-01    ;  uncertainty sigma = 0.000086, epsilon = 0.005555
 n4bf                                   7      0.0000       0.00000       A     3.27521e-01     6.56876e-01    ;  uncertainty sigma = 0.000122, epsilon = 0.011166
 c5bf                                   6      0.0000       0.00000       A     3.39780e-01     4.53571e-01    ;  uncertainty sigma = 0.000052, epsilon = 0.002049
 c6bf                                   6      0.0000       0.00000       A     3.39830e-01     4.51070e-01    ;  uncertainty sigma = 0.000020, epsilon = 0.002016
 c7bf                                   6      0.0000       0.00000       A     3.39740e-01     4.51175e-01    ;  uncertainty sigma = 0.000025, epsilon = 0.000323
 c8bf                                   6      0.0000       0.00000       A     3.39774e-01     4.50893e-01    ;  uncertainty sigma = 0.000009, epsilon = 0.000832
 c9bf                                   6      0.0000       0.00000       A     3.39774e-01     4.50893e-01    ;  uncertainty sigma = 0.000009, epsilon = 0.000832
 c10bf                                  6      0.0000       0.00000       A     3.31513e-01     4.13747e-01    ;  uncertainty sigma = 0.000022, epsilon = 0.000635
 c11bf                                  6      0.0000       0.00000       A     3.31509e-01     4.13191e-01    ;  uncertainty sigma = 0.000004, epsilon = 0.000700
 c12bf                                  6      0.0000       0.00000       A     3.31522e-01     4.13319e-01    ;  uncertainty sigma = 0.000003, epsilon = 0.000647
 c13bf                                  6      0.0000       0.00000       A     3.31513e-01     4.13269e-01    ;  uncertainty sigma = 0.000005, epsilon = 0.000649
 c14bf                                  6      0.0000       0.00000       A     3.31498e-01     4.13502e-01    ;  uncertainty sigma = 0.000009, epsilon = 0.000554
 c15bf                                  6      0.0000       0.00000       A     3.31513e-01     4.13167e-01    ;  uncertainty sigma = 0.000009, epsilon = 0.000575
 c16bf                                  6      0.0000       0.00000       A     3.31511e-01     4.13320e-01    ;  uncertainty sigma = 0.000005, epsilon = 0.000665
 c17bf                                  6      0.0000       0.00000       A     3.31521e-01     4.13375e-01    ;  uncertainty sigma = 0.000003, epsilon = 0.000656
 c18bf                                  6      0.0000       0.00000       A     3.31522e-01     4.13446e-01    ;  uncertainty sigma = 0.000004, epsilon = 0.000552
 c19bf                                  6      0.0000       0.00000       A     3.31526e-01     4.13122e-01    ;  uncertainty sigma = 0.000006, epsilon = 0.000502
 cl20bf                                17      0.0000       0.00000       A     3.46610e-01     1.10414e+00    ;  uncertainty sigma = 0.000013, epsilon = 0.001445
 c21bf                                  6      0.0000       0.00000       A     3.31523e-01     4.13401e-01    ;  uncertainty sigma = 0.000007, epsilon = 0.000655
 c22bf                                  6      0.0000       0.00000       A     3.31518e-01     4.13276e-01    ;  uncertainty sigma = 0.000017, epsilon = 0.001088
 c23bf                                  6      0.0000       0.00000       A     3.31551e-01     4.13918e-01    ;  uncertainty sigma = 0.000008, epsilon = 0.000613
 o24bf                                  8      0.0000       0.00000       A     3.04816e-01     6.12066e-01    ;  uncertainty sigma = 0.000061, epsilon = 0.002154
 h25bf                                  1      0.0000       0.00000       A     2.42208e-01     8.66970e-02    ;  uncertainty sigma = 0.000028, epsilon = 0.000664
 h26bf                                  1      0.0000       0.00000       A     2.42208e-01     8.66970e-02    ;  uncertainty sigma = 0.000028, epsilon = 0.000664
 h27bf                                  1      0.0000       0.00000       A     2.42208e-01     8.66970e-02    ;  uncertainty sigma = 0.000028, epsilon = 0.000664
 h28bf                                  1      0.0000       0.00000       A     1.10696e-01     4.12787e-02    ;  uncertainty sigma = 0.000128, epsilon = 0.001559
 h29bf                                  1      0.0000       0.00000       A     1.10549e-01     4.03382e-02    ;  uncertainty sigma = 0.000098, epsilon = 0.001635
 h30bf                                  1      0.0000       0.00000       A     2.59949e-01     8.72392e-02    ;  uncertainty sigma = 0.000032, epsilon = 0.001202
 h31bf                                  1      0.0000       0.00000       A     2.59949e-01     8.72392e-02    ;  uncertainty sigma = 0.000032, epsilon = 0.001202
 h32bf                                  1      0.0000       0.00000       A     2.60160e-01     8.61229e-02    ;  uncertainty sigma = 0.000077, epsilon = 0.001725
 h33bf                                  1      0.0000       0.00000       A     2.60023e-01     8.68086e-02    ;  uncertainty sigma = 0.000009, epsilon = 0.000688
 h34bf                                  1      0.0000       0.00000       A     2.60023e-01     8.68086e-02    ;  uncertainty sigma = 0.000009, epsilon = 0.000688
 h35bf                                  1      0.0000       0.00000       A     2.60023e-01     8.68087e-02    ;  uncertainty sigma = 0.000009, epsilon = 0.000688
 h36bf                                  1      0.0000       0.00000       A     2.60023e-01     8.68087e-02    ;  uncertainty sigma = 0.000009, epsilon = 0.000688
 h37bf                                  1      0.0000       0.00000       A     2.62562e-01     6.71057e-02    ;  uncertainty sigma = 0.000007, epsilon = 0.000376
 h38bf                                  1      0.0000       0.00000       A     2.62564e-01     6.70137e-02    ;  uncertainty sigma = 0.000010, epsilon = 0.000418
 h39bf                                  1      0.0000       0.00000       A     2.62562e-01     6.70409e-02    ;  uncertainty sigma = 0.000012, epsilon = 0.000507
 h40bf                                  1      0.0000       0.00000       A     2.62562e-01     6.70409e-02    ;  uncertainty sigma = 0.000012, epsilon = 0.000507
 h41bf                                  1      0.0000       0.00000       A     2.62568e-01     6.69666e-02    ;  uncertainty sigma = 0.000007, epsilon = 0.000468
 h42bf                                  1      0.0000       0.00000       A     2.62560e-01     6.70939e-02    ;  uncertainty sigma = 0.000009, epsilon = 0.000590
 h43bf                                  1      0.0000       0.00000       A     2.62559e-01     6.71672e-02    ;  uncertainty sigma = 0.000013, epsilon = 0.000620
 h44bf                                  1      0.0000       0.00000       A     2.62552e-01     6.72602e-02    ;  uncertainty sigma = 0.000014, epsilon = 0.000631
 h45bf                                  1      0.0000       0.00000       A     1.10696e-01     4.12786e-02    ;  uncertainty sigma = 0.000128, epsilon = 0.001560

[ moleculetype ]
;name             nrexcl
 MOL                   3

[ atoms ]
;       nr            type      resi   res      atom      cgnr      charge          mass ; qtot
         1            c0bf         1   UNL        c0         1     0.07457       12.0110 ; qtot    0.075
         2            n1bf         1   UNL        n1         2    -0.42120       14.0070 ; qtot   -0.347
         3            c2bf         1   UNL        c2         3     0.46393       12.0110 ; qtot    0.117
         4            n3bf         1   UNL        n3         4    -0.47940       14.0070 ; qtot   -0.362
         5            n4bf         1   UNL        n4         5    -0.38237       14.0070 ; qtot   -0.744
         6            c5bf         1   UNL        c5         6     0.04257       12.0110 ; qtot   -0.702
         7            c6bf         1   UNL        c6         7    -0.03332       12.0110 ; qtot   -0.735
         8            c7bf         1   UNL        c7         8    -0.15253       12.0110 ; qtot   -0.888
         9            c8bf         1   UNL        c8         9    -0.12364       12.0110 ; qtot   -1.011
        10            c9bf         1   UNL        c9        10    -0.12364       12.0110 ; qtot   -1.135
        11           c10bf         1   UNL       c10        11    -0.13485       12.0110 ; qtot   -1.270
        12           c11bf         1   UNL       c11        12    -0.09680       12.0110 ; qtot   -1.367
        13           c12bf         1   UNL       c12        13    -0.11280       12.0110 ; qtot   -1.479
        14           c13bf         1   UNL       c13        14    -0.09209       12.0110 ; qtot   -1.572
        15           c14bf         1   UNL       c14        15    -0.01707       12.0110 ; qtot   -1.589
        16           c15bf         1   UNL       c15        16    -0.03558       12.0110 ; qtot   -1.624
        17           c16bf         1   UNL       c16        17    -0.11891       12.0110 ; qtot   -1.743
        18           c17bf         1   UNL       c17        18    -0.12274       12.0110 ; qtot   -1.866
        19           c18bf         1   UNL       c18        19    -0.11373       12.0110 ; qtot   -1.980
        20           c19bf         1   UNL       c19        20     0.03067       12.0110 ; qtot   -1.949
        21          cl20bf         1   UNL      cl20        21    -0.11712       35.4530 ; qtot   -2.066
        22           c21bf         1   UNL       c21        22    -0.11226       12.0110 ; qtot   -2.178
        23           c22bf         1   UNL       c22        23    -0.08236       12.0110 ; qtot   -2.261
        24           c23bf         1   UNL       c23        24     0.70359       12.0110 ; qtot   -1.557
        25           o24bf         1   UNL       o24        25    -0.44924       15.9990 ; qtot   -2.006
        26           h25bf         1   UNL       h25        26     0.09090        1.0080 ; qtot   -1.915
        27           h26bf         1   UNL       h26        27     0.09090        1.0080 ; qtot   -1.825
        28           h27bf         1   UNL       h27        28     0.09090        1.0080 ; qtot   -1.734
        29           h28bf         1   UNL       h28        29     0.33566        1.0080 ; qtot   -1.398
        30           h29bf         1   UNL       h29        30     0.35304        1.0080 ; qtot   -1.045
        31           h30bf         1   UNL       h30        31     0.07870        1.0080 ; qtot   -0.966
        32           h31bf         1   UNL       h31        32     0.07870        1.0080 ; qtot   -0.888
        33           h32bf         1   UNL       h32        33     0.09068        1.0080 ; qtot   -0.797
        34           h33bf         1   UNL       h33        34     0.07569        1.0080 ; qtot   -0.721
        35           h34bf         1   UNL       h34        35     0.07569        1.0080 ; qtot   -0.645
        36           h35bf         1   UNL       h35        36     0.07569        1.0080 ; qtot   -0.570
        37           h36bf         1   UNL       h36        37     0.07569        1.0080 ; qtot   -0.494
        38           h37bf         1   UNL       h37        38     0.14447        1.0080 ; qtot   -0.350
        39           h38bf         1   UNL       h38        39     0.14921        1.0080 ; qtot   -0.200
        40           h39bf         1   UNL       h39        40     0.13653        1.0080 ; qtot   -0.064
        41           h40bf         1   UNL       h40        41     0.13932        1.0080 ; qtot    0.075
        42           h41bf         1   UNL       h41        42     0.13920        1.0080 ; qtot    0.215
        43           h42bf         1   UNL       h42        43     0.15171        1.0080 ; qtot    0.366
        44           h43bf         1   UNL       h43        44     0.15143        1.0080 ; qtot    0.518
        45           h44bf         1   UNL       h44        45     0.14658        1.0080 ; qtot    0.664
        46           h45bf         1   UNL       h45        46     0.33563        1.0080 ; qtot    1.000

[ bonds ]
;       ai        aj funct               r               k
         1         2     1        0.146696   261013.390381    ;  uncertainty r = 0.000141, k = 11.912283
         1        26     1        0.109172   309349.341504    ;  uncertainty r = 0.000046, k = 3.240014
         1        27     1        0.109172   309349.341504    ;  uncertainty r = 0.000046, k = 3.240014
         1        28     1        0.109172   309349.341504    ;  uncertainty r = 0.000046, k = 3.240014
         2         3     1        0.135558   281819.724707    ;  uncertainty r = 0.000162, k = 43.946600
         2        24     1        0.142579   295672.048779    ;  uncertainty r = 0.000256, k = 73.762924
         3         4     1        0.133046   314739.305957    ;  uncertainty r = 0.000178, k = 41.696114
         3         5     1        0.133502   519324.801367    ;  uncertainty r = 0.000167, k = 45.832743
         4        29     1        0.101394   420987.496533    ;  uncertainty r = 0.000069, k = 12.104669
         4        46     1        0.101394   420987.547607    ;  uncertainty r = 0.000069, k = 12.104648
         5         6     1        0.149723   224719.718555    ;  uncertainty r = 0.000303, k = 61.520505
         5        30     1        0.101529   427980.553027    ;  uncertainty r = 0.000057, k = 3.665523
         6         7     1        0.153029   193206.389307    ;  uncertainty r = 0.000226, k = 9.683032
         6        11     1        0.150849   206668.314819    ;  uncertainty r = 0.000220, k = 9.391221
         6        24     1        0.153019   179105.359326    ;  uncertainty r = 0.000133, k = 17.692676
         7         8     1        0.151140   210532.360376    ;  uncertainty r = 0.000065, k = 14.949982
         7        31     1        0.109573   311011.832861    ;  uncertainty r = 0.000056, k = 4.267482
         7        32     1        0.109573   311011.832861    ;  uncertainty r = 0.000056, k = 4.267482
         8         9     1        0.151411   203973.230444    ;  uncertainty r = 0.000112, k = 7.098343
         8        10     1        0.151411   203973.230444    ;  uncertainty r = 0.000112, k = 7.098343
         8        33     1        0.108795   314169.138916    ;  uncertainty r = 0.000048, k = 1.242506
         9        10     1        0.151212   216405.295410    ;  uncertainty r = 0.000105, k = 3.613876
         9        34     1        0.108692   312279.060840    ;  uncertainty r = 0.000018, k = 2.660564
         9        35     1        0.108692   312279.060840    ;  uncertainty r = 0.000018, k = 2.660564
        10        36     1        0.108692   312279.060840    ;  uncertainty r = 0.000018, k = 2.660567
        10        37     1        0.108692   312279.060840    ;  uncertainty r = 0.000018, k = 2.660549
        11        12     1        0.139722   350780.441309    ;  uncertainty r = 0.000054, k = 7.524164
        11        23     1        0.139519   344671.785986    ;  uncertainty r = 0.000049, k = 8.908575
        12        13     1        0.139500   369873.031299    ;  uncertainty r = 0.000023, k = 1.093627
        12        38     1        0.108795   333136.239551    ;  uncertainty r = 0.000024, k = 2.666320
        13        14     1        0.139319   371497.038232    ;  uncertainty r = 0.000024, k = 2.498415
        13        39     1        0.108763   333115.784326    ;  uncertainty r = 0.000025, k = 1.049778
        14        15     1        0.140096   347410.385596    ;  uncertainty r = 0.000016, k = 0.841799
        14        40     1        0.108820   334865.306152    ;  uncertainty r = 0.000023, k = 0.943369
        15        16     1        0.147947   271569.971729    ;  uncertainty r = 0.000036, k = 4.467608
        15        23     1        0.139848   339030.817285    ;  uncertainty r = 0.000077, k = 3.063413
        16        17     1        0.140235   345940.954785    ;  uncertainty r = 0.000017, k = 2.209472
        16        22     1        0.140145   349973.902783    ;  uncertainty r = 0.000025, k = 1.038803
        17        18     1        0.139452   367068.239502    ;  uncertainty r = 0.000025, k = 1.779917
        17        41     1        0.108805   334917.401855    ;  uncertainty r = 0.000025, k = 0.881860
        18        19     1        0.139500   374338.220410    ;  uncertainty r = 0.000020, k = 1.415145
        18        42     1        0.108776   333408.771582    ;  uncertainty r = 0.000008, k = 1.051683
        19        20     1        0.139473   361470.709424    ;  uncertainty r = 0.000016, k = 2.291906
        19        43     1        0.108715   335671.742529    ;  uncertainty r = 0.000009, k = 0.604891
        20        21     1        0.175805   197124.254321    ;  uncertainty r = 0.000030, k = 2.861109
        20        22     1        0.139310   357391.896777    ;  uncertainty r = 0.000022, k = 1.821628
        22        44     1        0.108730   336354.375000    ;  uncertainty r = 0.000018, k = 1.108084
        23        45     1        0.108840   333442.889160    ;  uncertainty r = 0.000024, k = 1.872820
        24        25     1        0.120157   627591.572754    ;  uncertainty r = 0.000159, k = 11.715832

[ angles ]
;       ai        aj        ak funct           theta             cth
         1         2         3     1      118.631729      372.533915    ;  uncertainty theta = 0.007032, k = 0.449414
         1         2        24     1      119.123390      399.561689    ;  uncertainty theta = 0.009231, k = 0.246867
         2         1        26     1      107.394691      471.118457    ;  uncertainty theta = 0.002432, k = 0.223363
         2         1        27     1      107.394691      471.118457    ;  uncertainty theta = 0.002432, k = 0.223363
         2         1        28     1      107.394691      471.118457    ;  uncertainty theta = 0.002432, k = 0.223363
         2         3         4     1      125.867676      535.008475    ;  uncertainty theta = 0.010901, k = 0.294361
         2         3         5     1      113.231567      707.779309    ;  uncertainty theta = 0.008462, k = 0.270761
         2        24         6     1      109.866333      475.692601    ;  uncertainty theta = 0.004354, k = 0.499018
         2        24        25     1      125.372658      648.019345    ;  uncertainty theta = 0.010743, k = 0.095588
         3         2        24     1      110.325783      714.714741    ;  uncertainty theta = 0.010127, k = 0.246707
         3         4        29     1      114.787643      367.744175    ;  uncertainty theta = 0.004004, k = 0.188741
         3         4        46     1      114.787643      367.744175    ;  uncertainty theta = 0.004004, k = 0.188741
         3         5         6     1      112.000145      603.628443    ;  uncertainty theta = 0.017534, k = 0.399652
         3         5        30     1      119.349083      354.502833    ;  uncertainty theta = 0.009436, k = 0.093808
         4         3         5     1      128.584320      642.987513    ;  uncertainty theta = 0.008298, k = 0.321718
         5         6         7     1      109.945030      603.538425    ;  uncertainty theta = 0.007454, k = 0.192645
         5         6        11     1      110.397232      634.070912    ;  uncertainty theta = 0.005407, k = 0.193199
         5         6        24     1      102.962830      931.542548    ;  uncertainty theta = 0.006736, k = 0.513992
         6         5        30     1      117.293320      302.422356    ;  uncertainty theta = 0.008003, k = 0.432620
         6         7         8     1      109.150551      487.643170    ;  uncertainty theta = 0.004636, k = 0.042867
         6         7        31     1      105.434128      386.705862    ;  uncertainty theta = 0.004134, k = 0.172606
         6         7        32     1      105.434128      386.705862    ;  uncertainty theta = 0.004134, k = 0.172606
         6        11        12     1      117.061607      373.197720    ;  uncertainty theta = 0.008464, k = 0.238630
         6        11        23     1      116.505051      373.725317    ;  uncertainty theta = 0.008072, k = 0.161256
         6        24        25     1      125.957375      413.740052    ;  uncertainty theta = 0.009010, k = 0.257441
         7         6        11     1      112.329994      531.678595    ;  uncertainty theta = 0.007069, k = 0.268433
         7         6        24     1      107.786339      454.474678    ;  uncertainty theta = 0.006510, k = 0.138942
         7         8         9     1      113.472878      313.560877    ;  uncertainty theta = 0.002882, k = 0.244080
         7         8        10     1      113.472878      313.560877    ;  uncertainty theta = 0.002882, k = 0.244080
         7         8        33     1      116.310959      273.847256    ;  uncertainty theta = 0.004391, k = 0.175596
         8         7        31     1      108.331924      409.371547    ;  uncertainty theta = 0.003192, k = 0.067099
         8         7        32     1      108.331924      409.371547    ;  uncertainty theta = 0.003192, k = 0.067099
         8         9        10     1       59.545403      167.360000    ;  uncertainty theta = 0.036665, k = 0.000000
         8         9        34     1      109.480698      217.637509    ;  uncertainty theta = 0.002866, k = 0.153318
         8         9        35     1      109.480698      217.637509    ;  uncertainty theta = 0.002866, k = 0.153318
         8        10         9     1       59.545403      167.360000    ;  uncertainty theta = 0.036665, k = 0.000000
         8        10        36     1      109.480698      217.637509    ;  uncertainty theta = 0.002866, k = 0.153318
         8        10        37     1      109.480698      217.637509    ;  uncertainty theta = 0.002866, k = 0.153318
         9         8        10     1       59.239014      167.360000    ;  uncertainty theta = 0.030523, k = 0.000000
         9         8        33     1      107.952538      189.678205    ;  uncertainty theta = 0.005276, k = 0.368299
         9        10        36     1      109.650597      222.595906    ;  uncertainty theta = 0.003696, k = 0.127432
         9        10        37     1      109.650597      222.595906    ;  uncertainty theta = 0.003696, k = 0.127432
        10         8        33     1      107.952538      189.678205    ;  uncertainty theta = 0.005276, k = 0.368299
        10         9        34     1      109.650597      222.595906    ;  uncertainty theta = 0.003696, k = 0.127432
        10         9        35     1      109.650597      222.595906    ;  uncertainty theta = 0.003696, k = 0.127432
        11         6        24     1      109.077858      491.588845    ;  uncertainty theta = 0.007013, k = 0.131969
        11        12        13     1      120.321373      513.242590    ;  uncertainty theta = 0.003923, k = 0.053430
        11        12        38     1      118.503494      271.304462    ;  uncertainty theta = 0.002962, k = 0.035477
        11        23        15     1      122.421371      511.327307    ;  uncertainty theta = 0.002859, k = 0.195304
        11        23        45     1      118.135109      273.371436    ;  uncertainty theta = 0.002182, k = 0.088714
        12        11        23     1      123.256203      436.818066    ;  uncertainty theta = 0.005845, k = 0.117680
        12        13        14     1      120.362083      511.424699    ;  uncertainty theta = 0.002704, k = 0.082963
        12        13        39     1      119.845810      281.855343    ;  uncertainty theta = 0.002005, k = 0.043478
        13        12        38     1      120.268898      299.949821    ;  uncertainty theta = 0.003010, k = 0.039465
        13        14        15     1      119.835899      534.582611    ;  uncertainty theta = 0.002583, k = 0.069043
        13        14        40     1      120.223473      294.279944    ;  uncertainty theta = 0.000909, k = 0.020015
        14        13        39     1      120.400124      284.448732    ;  uncertainty theta = 0.000730, k = 0.051588
        14        15        16     1      121.136307      405.832327    ;  uncertainty theta = 0.001763, k = 0.152559
        14        15        23     1      120.140427      406.629436    ;  uncertainty theta = 0.004626, k = 0.215074
        15        14        40     1      118.947998      277.803306    ;  uncertainty theta = 0.000462, k = 0.096136
        15        16        17     1      120.552269      411.585997    ;  uncertainty theta = 0.002088, k = 0.049199
        15        16        22     1      119.775406      410.577090    ;  uncertainty theta = 0.001557, k = 0.055464
        15        23        45     1      118.810753      282.790735    ;  uncertainty theta = 0.002209, k = 0.085379
        16        15        23     1      120.049400      413.885326    ;  uncertainty theta = 0.002423, k = 0.156699
        16        17        18     1      120.504349      532.913314    ;  uncertainty theta = 0.001618, k = 0.068709
        16        17        41     1      119.203636      278.269901    ;  uncertainty theta = 0.001744, k = 0.040876
        16        22        20     1      119.741173      510.605660    ;  uncertainty theta = 0.001091, k = 0.073584
        16        22        44     1      120.095398      273.299613    ;  uncertainty theta = 0.001008, k = 0.066605
        17        16        22     1      120.374191      415.451390    ;  uncertainty theta = 0.002120, k = 0.132953
        17        18        19     1      120.717369      509.837057    ;  uncertainty theta = 0.001401, k = 0.048240
        17        18        42     1      120.238693      282.499740    ;  uncertainty theta = 0.001326, k = 0.011496
        18        17        41     1      120.338760      294.190309    ;  uncertainty theta = 0.001360, k = 0.032086
        18        19        20     1      117.430496      514.054606    ;  uncertainty theta = 0.001033, k = 0.048095
        18        19        43     1      121.325417      283.555061    ;  uncertainty theta = 0.001286, k = 0.023037
        19        18        42     1      119.863380      284.707455    ;  uncertainty theta = 0.000778, k = 0.019642
        19        20        21     1      120.461792      447.827880    ;  uncertainty theta = 0.001141, k = 0.053761
        19        20        22     1      121.555298      359.688909    ;  uncertainty theta = 0.001133, k = 0.149052
        20        19        43     1      121.035461      285.494859    ;  uncertainty theta = 0.001567, k = 0.028924
        20        22        44     1      120.760788      292.340656    ;  uncertainty theta = 0.001328, k = 0.049697
        21        20        22     1      120.006104      442.243297    ;  uncertainty theta = 0.000762, k = 0.110065
        26         1        27     1      107.633835      325.689216    ;  uncertainty theta = 0.003363, k = 0.104763
        26         1        28     1      107.633835      325.689216    ;  uncertainty theta = 0.003363, k = 0.104763
        27         1        28     1      107.633835      325.689216    ;  uncertainty theta = 0.003363, k = 0.104763
        29         4        46     1      112.416344      264.752582    ;  uncertainty theta = 0.015901, k = 0.355235
        31         7        32     1      105.854164      320.653969    ;  uncertainty theta = 0.006626, k = 0.082651
        34         9        35     1      113.543335      205.917715    ;  uncertainty theta = 0.004433, k = 0.041809
        36        10        37     1      113.543335      205.917699    ;  uncertainty theta = 0.004433, k = 0.041809

[ dihedrals ] ; propers for gromacs 4.5 or higher, use funct 9
;       ai        aj        ak        al funct           phase               k        pn
         1         2         3         4     9        0.000000        0.065403         1    ;  uncertainty k = 0.659257
         1         2         3         4     9      180.000000        6.806586         2    ;  uncertainty k = 0.696415
         1         2         3         4     9        0.000000        0.930642         3    ;  uncertainty k = 0.698647
         1         2         3         4     9      180.000000        0.010547         4    ;  uncertainty k = 0.293182
         1         2         3         5     9        0.000000       -0.371140         1    ;  uncertainty k = 2.636667
         1         2         3         5     9      180.000000        8.142426         2    ;  uncertainty k = 0.463328
         1         2         3         5     9        0.000000        0.232977         3    ;  uncertainty k = 0.249438
         1         2         3         5     9      180.000000       -0.116795         4    ;  uncertainty k = 0.230421
         1         2        24         6     9        0.000000        4.764975         1    ;  uncertainty k = 3.029592
         1         2        24         6     9      180.000000        4.839449         2    ;  uncertainty k = 1.195357
         1         2        24         6     9        0.000000        1.271240         3    ;  uncertainty k = 0.768515
         1         2        24         6     9      180.000000        0.133744         4    ;  uncertainty k = 0.454514
         1         2        24        25     9        0.000000       -0.607448         1    ;  uncertainty k = 3.054804
         1         2        24        25     9      180.000000        8.225660         2    ;  uncertainty k = 0.403010
         1         2        24        25     9        0.000000        0.582561         3    ;  uncertainty k = 0.532680
         1         2        24        25     9      180.000000        0.207157         4    ;  uncertainty k = 0.236780
         2         3         4        29     9        0.000000        7.557862         1    ;  uncertainty k = 2.020880
         2         3         4        29     9      180.000000        9.395483         2    ;  uncertainty k = 0.596848
         2         3         4        29     9        0.000000        1.003384         3    ;  uncertainty k = 0.503823
         2         3         4        29     9      180.000000       -0.952002         4    ;  uncertainty k = 0.222192
         2         3         4        46     9        0.000000        7.557863         1    ;  uncertainty k = 2.020879
         2         3         4        46     9      180.000000        9.395481         2    ;  uncertainty k = 0.596848
         2         3         4        46     9        0.000000        1.003385         3    ;  uncertainty k = 0.503824
         2         3         4        46     9      180.000000       -0.952002         4    ;  uncertainty k = 0.222192
         2         3         5         6     9        0.000000        1.455286         1    ;  uncertainty k = 1.803628
         2         3         5         6     9      180.000000       15.415058         2    ;  uncertainty k = 0.325205
         2         3         5         6     9        0.000000       -0.072736         3    ;  uncertainty k = 0.988144
         2         3         5         6     9      180.000000       -0.511583         4    ;  uncertainty k = 0.171105
         2         3         5        30     9        0.000000        4.114366         1    ;  uncertainty k = 3.470010
         2         3         5        30     9      180.000000       10.717285         2    ;  uncertainty k = 0.585839
         2         3         5        30     9        0.000000        1.036428         3    ;  uncertainty k = 0.733301
         2         3         5        30     9      180.000000       -0.436310         4    ;  uncertainty k = 0.174295
         2        24         6         5     9        0.000000        0.205564         1    ;  uncertainty k = 2.456569
         2        24         6         5     9      180.000000        6.746322         2    ;  uncertainty k = 0.743202
         2        24         6         5     9        0.000000        0.311970         3    ;  uncertainty k = 0.460171
         2        24         6         5     9      180.000000        0.277767         4    ;  uncertainty k = 0.665744
         2        24         6         7     9        0.000000       -5.511648         1    ;  uncertainty k = 2.078857
         2        24         6         7     9      180.000000        2.369387         2    ;  uncertainty k = 0.797189
         2        24         6         7     9        0.000000        1.043608         3    ;  uncertainty k = 0.225983
         2        24         6         7     9      180.000000        0.390371         4    ;  uncertainty k = 0.380697
         2        24         6        11     9        0.000000       -2.699033         1    ;  uncertainty k = 3.112135
         2        24         6        11     9      180.000000        1.909746         2    ;  uncertainty k = 0.973771
         2        24         6        11     9        0.000000        1.130933         3    ;  uncertainty k = 0.503273
         2        24         6        11     9      180.000000        0.779344         4    ;  uncertainty k = 0.292706
         3         2         1        26     9        0.000000       -0.381205         1    ;  uncertainty k = 0.526421
         3         2         1        26     9      180.000000       -1.094489         2    ;  uncertainty k = 0.438288
         3         2         1        26     9        0.000000        0.448982         3    ;  uncertainty k = 0.201345
         3         2         1        26     9      180.000000        0.192126         4    ;  uncertainty k = 0.052339
         3         2         1        27     9        0.000000       -0.381205         1    ;  uncertainty k = 0.526421
         3         2         1        27     9      180.000000       -1.094489         2    ;  uncertainty k = 0.438288
         3         2         1        27     9        0.000000        0.448982         3    ;  uncertainty k = 0.201345
         3         2         1        27     9      180.000000        0.192126         4    ;  uncertainty k = 0.052339
         3         2         1        28     9        0.000000       -0.381205         1    ;  uncertainty k = 0.526421
         3         2         1        28     9      180.000000       -1.094489         2    ;  uncertainty k = 0.438288
         3         2         1        28     9        0.000000        0.448982         3    ;  uncertainty k = 0.201345
         3         2         1        28     9      180.000000        0.192126         4    ;  uncertainty k = 0.052339
         3         2        24         6     9        0.000000        2.772949         1    ;  uncertainty k = 2.038124
         3         2        24         6     9      180.000000        3.498328         2    ;  uncertainty k = 1.131248
         3         2        24         6     9        0.000000       -0.245024         3    ;  uncertainty k = 0.926207
         3         2        24         6     9      180.000000        0.702250         4    ;  uncertainty k = 0.262864
         3         2        24        25     9        0.000000        0.282596         1    ;  uncertainty k = 2.625757
         3         2        24        25     9      180.000000        7.722712         2    ;  uncertainty k = 0.745041
         3         2        24        25     9        0.000000        0.478522         3    ;  uncertainty k = 0.504867
         3         2        24        25     9      180.000000        0.028139         4    ;  uncertainty k = 0.244599
         3         5         6         7     9        0.000000       -1.624040         1    ;  uncertainty k = 0.841369
         3         5         6         7     9      180.000000        0.926442         2    ;  uncertainty k = 0.328791
         3         5         6         7     9        0.000000        0.797527         3    ;  uncertainty k = 0.473689
         3         5         6         7     9      180.000000        0.364058         4    ;  uncertainty k = 0.114539
         3         5         6        11     9        0.000000       -0.089050         1    ;  uncertainty k = 0.508251
         3         5         6        11     9      180.000000        1.001227         2    ;  uncertainty k = 0.477714
         3         5         6        11     9        0.000000        0.757952         3    ;  uncertainty k = 0.307102
         3         5         6        11     9      180.000000        0.504978         4    ;  uncertainty k = 0.260921
         3         5         6        24     9        0.000000        1.551503         1    ;  uncertainty k = 1.177439
         3         5         6        24     9      180.000000        2.567737         2    ;  uncertainty k = 1.204326
         3         5         6        24     9        0.000000        0.171964         3    ;  uncertainty k = 0.688006
         3         5         6        24     9      180.000000        0.457757         4    ;  uncertainty k = 0.541657
         4         3         2        24     9        0.000000       -0.531146         1    ;  uncertainty k = 0.752579
         4         3         2        24     9      180.000000        6.659697         2    ;  uncertainty k = 1.282894
         4         3         2        24     9        0.000000        0.181503         3    ;  uncertainty k = 0.690541
         4         3         2        24     9      180.000000       -0.059240         4    ;  uncertainty k = 0.471205
         4         3         5         6     9        0.000000        2.378000         1    ;  uncertainty k = 1.813386
         4         3         5         6     9      180.000000       10.653063         2    ;  uncertainty k = 0.746848
         4         3         5         6     9        0.000000        0.537641         3    ;  uncertainty k = 0.422729
         4         3         5         6     9      180.000000       -0.461058         4    ;  uncertainty k = 0.584041
         4         3         5        30     9        0.000000        2.394342         1    ;  uncertainty k = 2.367875
         4         3         5        30     9      180.000000        7.729042         2    ;  uncertainty k = 1.094789
         4         3         5        30     9        0.000000        0.958858         3    ;  uncertainty k = 0.159477
         4         3         5        30     9      180.000000       -0.283936         4    ;  uncertainty k = 0.268185
         5         3         2        24     9        0.000000       -0.112166         1    ;  uncertainty k = 1.763602
         5         3         2        24     9      180.000000        8.469060         2    ;  uncertainty k = 0.773103
         5         3         2        24     9        0.000000       -1.168592         3    ;  uncertainty k = 1.167950
         5         3         2        24     9      180.000000        0.041310         4    ;  uncertainty k = 0.455332
         5         3         4        29     9        0.000000        5.859991         1    ;  uncertainty k = 1.285195
         5         3         4        29     9      180.000000       10.374743         2    ;  uncertainty k = 0.346934
         5         3         4        29     9        0.000000        1.436501         3    ;  uncertainty k = 0.468025
         5         3         4        29     9      180.000000       -0.759638         4    ;  uncertainty k = 0.304749
         5         3         4        46     9        0.000000        5.859992         1    ;  uncertainty k = 1.285195
         5         3         4        46     9      180.000000       10.374744         2    ;  uncertainty k = 0.346933
         5         3         4        46     9        0.000000        1.436501         3    ;  uncertainty k = 0.468025
         5         3         4        46     9      180.000000       -0.759638         4    ;  uncertainty k = 0.304748
         5         6         7         8     9        0.000000       -2.293817         1    ;  uncertainty k = 1.133502
         5         6         7         8     9      180.000000        0.042731         2    ;  uncertainty k = 0.400425
         5         6         7         8     9        0.000000        1.381575         3    ;  uncertainty k = 0.323691
         5         6         7         8     9      180.000000       -0.354564         4    ;  uncertainty k = 0.180566
         5         6         7        31     9        0.000000       -1.199370         1    ;  uncertainty k = 0.496227
         5         6         7        31     9      180.000000       -0.338655         2    ;  uncertainty k = 0.351835
         5         6         7        31     9        0.000000        0.456014         3    ;  uncertainty k = 0.286316
         5         6         7        31     9      180.000000       -0.156269         4    ;  uncertainty k = 0.158114
         5         6         7        32     9        0.000000       -1.199370         1    ;  uncertainty k = 0.496227
         5         6         7        32     9      180.000000       -0.338655         2    ;  uncertainty k = 0.351835
         5         6         7        32     9        0.000000        0.456014         3    ;  uncertainty k = 0.286316
         5         6         7        32     9      180.000000       -0.156269         4    ;  uncertainty k = 0.158114
         5         6        11        12     9        0.000000       -0.906657         1    ;  uncertainty k = 1.170667
         5         6        11        12     9      180.000000        2.788315         2    ;  uncertainty k = 0.446115
         5         6        11        12     9        0.000000        0.607970         3    ;  uncertainty k = 0.220504
         5         6        11        12     9      180.000000        0.360438         4    ;  uncertainty k = 0.153919
         5         6        11        23     9        0.000000       -0.653003         1    ;  uncertainty k = 1.093683
         5         6        11        23     9      180.000000        2.763967         2    ;  uncertainty k = 0.524779
         5         6        11        23     9        0.000000        0.561709         3    ;  uncertainty k = 0.213608
         5         6        11        23     9      180.000000        0.366261         4    ;  uncertainty k = 0.159003
         5         6        24        25     9        0.000000       -1.030940         1    ;  uncertainty k = 2.284691
         5         6        24        25     9      180.000000        2.747760         2    ;  uncertainty k = 1.372109
         5         6        24        25     9        0.000000        0.311126         3    ;  uncertainty k = 0.505784
         5         6        24        25     9      180.000000        0.438401         4    ;  uncertainty k = 0.121718
         6         7         8         9     9        0.000000       -0.701932         1    ;  uncertainty k = 0.658251
         6         7         8         9     9      180.000000        0.104305         2    ;  uncertainty k = 0.274611
         6         7         8         9     9        0.000000        0.896769         3    ;  uncertainty k = 0.169029
         6         7         8         9     9      180.000000        0.117672         4    ;  uncertainty k = 0.188256
         6         7         8        10     9        0.000000       -0.701932         1    ;  uncertainty k = 0.658251
         6         7         8        10     9      180.000000        0.104305         2    ;  uncertainty k = 0.274611
         6         7         8        10     9        0.000000        0.896769         3    ;  uncertainty k = 0.169029
         6         7         8        10     9      180.000000        0.117672         4    ;  uncertainty k = 0.188256
         6         7         8        33     9        0.000000       -0.115366         1    ;  uncertainty k = 1.030537
         6         7         8        33     9      180.000000       -1.549351         2    ;  uncertainty k = 0.677679
         6         7         8        33     9        0.000000        1.380255         3    ;  uncertainty k = 0.185768
         6         7         8        33     9      180.000000       -0.188260         4    ;  uncertainty k = 0.145424
         6        11        12        13     9        0.000000        0.099549         1    ;  uncertainty k = 0.379943
         6        11        12        13     9      180.000000        9.007777         2    ;  uncertainty k = 0.398724
         6        11        12        13     9        0.000000        1.419476         3    ;  uncertainty k = 0.393340
         6        11        12        13     9      180.000000        1.848421         4    ;  uncertainty k = 0.157633
         6        11        12        38     9        0.000000       -0.430031         1    ;  uncertainty k = 0.297729
         6        11        12        38     9      180.000000        7.020514         2    ;  uncertainty k = 0.450595
         6        11        12        38     9        0.000000        0.653121         3    ;  uncertainty k = 0.273968
         6        11        12        38     9      180.000000        1.028993         4    ;  uncertainty k = 0.217632
         6        11        23        15     9        0.000000        0.128899         1    ;  uncertainty k = 0.188526
         6        11        23        15     9      180.000000        8.699291         2    ;  uncertainty k = 0.282523
         6        11        23        15     9        0.000000        1.356457         3    ;  uncertainty k = 0.260497
         6        11        23        15     9      180.000000        1.829886         4    ;  uncertainty k = 0.114768
         6        11        23        45     9        0.000000       -0.351408         1    ;  uncertainty k = 0.273622
         6        11        23        45     9      180.000000        7.113971         2    ;  uncertainty k = 0.489114
         6        11        23        45     9        0.000000        0.617372         3    ;  uncertainty k = 0.327115
         6        11        23        45     9      180.000000        1.087153         4    ;  uncertainty k = 0.251207
         7         6         5        30     9        0.000000        0.880238         1    ;  uncertainty k = 1.505087
         7         6         5        30     9      180.000000       -0.104269         2    ;  uncertainty k = 1.151353
         7         6         5        30     9        0.000000        0.666012         3    ;  uncertainty k = 0.292150
         7         6         5        30     9      180.000000        0.103808         4    ;  uncertainty k = 0.117297
         7         6        11        12     9        0.000000       -0.431031         1    ;  uncertainty k = 0.811568
         7         6        11        12     9      180.000000        2.149646         2    ;  uncertainty k = 0.376378
         7         6        11        12     9        0.000000        0.461181         3    ;  uncertainty k = 0.276297
         7         6        11        12     9      180.000000        0.237331         4    ;  uncertainty k = 0.034535
         7         6        11        23     9        0.000000       -0.407203         1    ;  uncertainty k = 0.768269
         7         6        11        23     9      180.000000        2.167261         2    ;  uncertainty k = 0.373784
         7         6        11        23     9        0.000000        0.394940         3    ;  uncertainty k = 0.296224
         7         6        11        23     9      180.000000        0.231171         4    ;  uncertainty k = 0.047140
         7         6        24        25     9        0.000000       -1.070244         1    ;  uncertainty k = 1.385776
         7         6        24        25     9      180.000000        4.387069         2    ;  uncertainty k = 0.733244
         7         6        24        25     9        0.000000        0.240796         3    ;  uncertainty k = 0.220993
         7         6        24        25     9      180.000000       -0.055018         4    ;  uncertainty k = 0.239813
         7         8         9        10     9        0.000000       62.448926         1    ;  uncertainty k = 0.334249
         7         8         9        10     9      180.000000       -2.459577         2    ;  uncertainty k = 2.596264
         7         8         9        10     9        0.000000      -10.713022         3    ;  uncertainty k = 0.452434
         7         8         9        10     9      180.000000        7.898673         4    ;  uncertainty k = 0.389151
         7         8         9        34     9        0.000000       -0.552892         1    ;  uncertainty k = 2.739377
         7         8         9        34     9      180.000000       -1.359860         2    ;  uncertainty k = 0.778225
         7         8         9        34     9        0.000000        0.541984         3    ;  uncertainty k = 0.382277
         7         8         9        34     9      180.000000       -0.825011         4    ;  uncertainty k = 0.119063
         7         8         9        35     9        0.000000       -0.552892         1    ;  uncertainty k = 2.739377
         7         8         9        35     9      180.000000       -1.359860         2    ;  uncertainty k = 0.778225
         7         8         9        35     9        0.000000        0.541984         3    ;  uncertainty k = 0.382277
         7         8         9        35     9      180.000000       -0.825011         4    ;  uncertainty k = 0.119063
         7         8        10         9     9        0.000000       62.448926         1    ;  uncertainty k = 0.334249
         7         8        10         9     9      180.000000       -2.459577         2    ;  uncertainty k = 2.596264
         7         8        10         9     9        0.000000      -10.713022         3    ;  uncertainty k = 0.452434
         7         8        10         9     9      180.000000        7.898673         4    ;  uncertainty k = 0.389151
         7         8        10        36     9        0.000000       -0.552892         1    ;  uncertainty k = 2.739375
         7         8        10        36     9      180.000000       -1.359860         2    ;  uncertainty k = 0.778225
         7         8        10        36     9        0.000000        0.541983         3    ;  uncertainty k = 0.382277
         7         8        10        36     9      180.000000       -0.825011         4    ;  uncertainty k = 0.119062
         7         8        10        37     9        0.000000       -0.552892         1    ;  uncertainty k = 2.739375
         7         8        10        37     9      180.000000       -1.359860         2    ;  uncertainty k = 0.778225
         7         8        10        37     9        0.000000        0.541983         3    ;  uncertainty k = 0.382277
         7         8        10        37     9      180.000000       -0.825011         4    ;  uncertainty k = 0.119062
         8         7         6        11     9        0.000000       -0.607361         1    ;  uncertainty k = 0.773199
         8         7         6        11     9      180.000000        0.860914         2    ;  uncertainty k = 0.428068
         8         7         6        11     9        0.000000        0.940628         3    ;  uncertainty k = 0.347362
         8         7         6        11     9      180.000000        0.044283         4    ;  uncertainty k = 0.117594
         8         7         6        24     9        0.000000       -1.693353         1    ;  uncertainty k = 0.405430
         8         7         6        24     9      180.000000       -0.296637         2    ;  uncertainty k = 0.257057
         8         7         6        24     9        0.000000        0.700108         3    ;  uncertainty k = 0.138046
         8         7         6        24     9      180.000000        0.006903         4    ;  uncertainty k = 0.087080
         8         9        10        36     9        0.000000       42.300071         1    ;  uncertainty k = 0.408728
         8         9        10        36     9      180.000000       -5.253092         2    ;  uncertainty k = 1.790399
         8         9        10        36     9        0.000000      -10.065198         3    ;  uncertainty k = 0.871828
         8         9        10        36     9      180.000000        4.585563         4    ;  uncertainty k = 0.351952
         8         9        10        37     9        0.000000       42.300071         1    ;  uncertainty k = 0.408728
         8         9        10        37     9      180.000000       -5.253092         2    ;  uncertainty k = 1.790399
         8         9        10        37     9        0.000000      -10.065198         3    ;  uncertainty k = 0.871828
         8         9        10        37     9      180.000000        4.585563         4    ;  uncertainty k = 0.351952
         8        10         9        34     9        0.000000       42.300071         1    ;  uncertainty k = 0.408728
         8        10         9        34     9      180.000000       -5.253093         2    ;  uncertainty k = 1.790402
         8        10         9        34     9        0.000000      -10.065199         3    ;  uncertainty k = 0.871829
         8        10         9        34     9      180.000000        4.585564         4    ;  uncertainty k = 0.351951
         8        10         9        35     9        0.000000       42.300071         1    ;  uncertainty k = 0.408728
         8        10         9        35     9      180.000000       -5.253093         2    ;  uncertainty k = 1.790402
         8        10         9        35     9        0.000000      -10.065199         3    ;  uncertainty k = 0.871829
         8        10         9        35     9      180.000000        4.585564         4    ;  uncertainty k = 0.351951
         9         8         7        31     9        0.000000       -0.157061         1    ;  uncertainty k = 0.531334
         9         8         7        31     9      180.000000        0.768643         2    ;  uncertainty k = 0.369410
         9         8         7        31     9        0.000000        0.925898         3    ;  uncertainty k = 0.122205
         9         8         7        31     9      180.000000       -0.002363         4    ;  uncertainty k = 0.103074
         9         8         7        32     9        0.000000       -0.157061         1    ;  uncertainty k = 0.531334
         9         8         7        32     9      180.000000        0.768643         2    ;  uncertainty k = 0.369410
         9         8         7        32     9        0.000000        0.925898         3    ;  uncertainty k = 0.122205
         9         8         7        32     9      180.000000       -0.002363         4    ;  uncertainty k = 0.103074
         9         8        10        36     9        0.000000       43.805236         1    ;  uncertainty k = 0.313656
         9         8        10        36     9      180.000000       -4.196543         2    ;  uncertainty k = 1.182032
         9         8        10        36     9        0.000000      -10.183863         3    ;  uncertainty k = 0.928905
         9         8        10        36     9      180.000000        4.898456         4    ;  uncertainty k = 0.209609
         9         8        10        37     9        0.000000       43.805236         1    ;  uncertainty k = 0.313656
         9         8        10        37     9      180.000000       -4.196543         2    ;  uncertainty k = 1.182032
         9         8        10        37     9        0.000000      -10.183863         3    ;  uncertainty k = 0.928905
         9         8        10        37     9      180.000000        4.898456         4    ;  uncertainty k = 0.209609
         9        10         8        33     9        0.000000       47.746965         1    ;  uncertainty k = 0.251078
         9        10         8        33     9      180.000000       -2.485272         2    ;  uncertainty k = 1.865506
         9        10         8        33     9        0.000000      -10.518630         3    ;  uncertainty k = 0.806026
         9        10         8        33     9      180.000000        5.701811         4    ;  uncertainty k = 0.118617
        10         8         7        31     9        0.000000       -0.157061         1    ;  uncertainty k = 0.531334
        10         8         7        31     9      180.000000        0.768643         2    ;  uncertainty k = 0.369410
        10         8         7        31     9        0.000000        0.925898         3    ;  uncertainty k = 0.122205
        10         8         7        31     9      180.000000       -0.002363         4    ;  uncertainty k = 0.103074
        10         8         7        32     9        0.000000       -0.157061         1    ;  uncertainty k = 0.531334
        10         8         7        32     9      180.000000        0.768643         2    ;  uncertainty k = 0.369410
        10         8         7        32     9        0.000000        0.925898         3    ;  uncertainty k = 0.122205
        10         8         7        32     9      180.000000       -0.002363         4    ;  uncertainty k = 0.103074
        10         8         9        34     9        0.000000       43.805236         1    ;  uncertainty k = 0.313657
        10         8         9        34     9      180.000000       -4.196544         2    ;  uncertainty k = 1.182034
        10         8         9        34     9        0.000000      -10.183862         3    ;  uncertainty k = 0.928903
        10         8         9        34     9      180.000000        4.898455         4    ;  uncertainty k = 0.209609
        10         8         9        35     9        0.000000       43.805236         1    ;  uncertainty k = 0.313657
        10         8         9        35     9      180.000000       -4.196544         2    ;  uncertainty k = 1.182034
        10         8         9        35     9        0.000000      -10.183862         3    ;  uncertainty k = 0.928903
        10         8         9        35     9      180.000000        4.898455         4    ;  uncertainty k = 0.209609
        10         9         8        33     9        0.000000       47.746965         1    ;  uncertainty k = 0.251078
        10         9         8        33     9      180.000000       -2.485272         2    ;  uncertainty k = 1.865506
        10         9         8        33     9        0.000000      -10.518630         3    ;  uncertainty k = 0.806026
        10         9         8        33     9      180.000000        5.701811         4    ;  uncertainty k = 0.118617
        11         6         5        30     9        0.000000        3.016053         1    ;  uncertainty k = 1.319492
        11         6         5        30     9      180.000000        0.285364         2    ;  uncertainty k = 0.916717
        11         6         5        30     9        0.000000        0.703534         3    ;  uncertainty k = 0.444031
        11         6         5        30     9      180.000000        0.047537         4    ;  uncertainty k = 0.141686
        11         6         7        31     9        0.000000        0.070337         1    ;  uncertainty k = 0.418293
        11         6         7        31     9      180.000000        0.001639         2    ;  uncertainty k = 0.375119
        11         6         7        31     9        0.000000        0.597547         3    ;  uncertainty k = 0.168088
        11         6         7        31     9      180.000000       -0.016834         4    ;  uncertainty k = 0.053568
        11         6         7        32     9        0.000000        0.070337         1    ;  uncertainty k = 0.418293
        11         6         7        32     9      180.000000        0.001639         2    ;  uncertainty k = 0.375119
        11         6         7        32     9        0.000000        0.597547         3    ;  uncertainty k = 0.168088
        11         6         7        32     9      180.000000       -0.016834         4    ;  uncertainty k = 0.053568
        11         6        24        25     9        0.000000       -0.138941         1    ;  uncertainty k = 1.387474
        11         6        24        25     9      180.000000        3.404232         2    ;  uncertainty k = 0.494667
        11         6        24        25     9        0.000000        0.475009         3    ;  uncertainty k = 0.187539
        11         6        24        25     9      180.000000        0.082754         4    ;  uncertainty k = 0.240959
        11        12        13        14     9        0.000000       -0.039870         1    ;  uncertainty k = 0.196992
        11        12        13        14     9      180.000000       13.065829         2    ;  uncertainty k = 0.298443
        11        12        13        14     9        0.000000       -0.920589         3    ;  uncertainty k = 0.518794
        11        12        13        14     9      180.000000        0.774009         4    ;  uncertainty k = 0.212848
        11        12        13        39     9        0.000000        0.138650         1    ;  uncertainty k = 0.329817
        11        12        13        39     9      180.000000        7.267526         2    ;  uncertainty k = 0.220294
        11        12        13        39     9        0.000000        1.471911         3    ;  uncertainty k = 0.144052
        11        12        13        39     9      180.000000        1.833720         4    ;  uncertainty k = 0.147676
        11        23        15        14     9        0.000000        0.152335         1    ;  uncertainty k = 0.346974
        11        23        15        14     9      180.000000        9.811810         2    ;  uncertainty k = 0.404856
        11        23        15        14     9        0.000000       -0.136358         3    ;  uncertainty k = 0.241333
        11        23        15        14     9      180.000000        1.102826         4    ;  uncertainty k = 0.273838
        11        23        15        16     9        0.000000        0.293172         1    ;  uncertainty k = 0.146864
        11        23        15        16     9      180.000000        8.351511         2    ;  uncertainty k = 0.431900
        11        23        15        16     9        0.000000        1.251205         3    ;  uncertainty k = 0.395234
        11        23        15        16     9      180.000000        1.733078         4    ;  uncertainty k = 0.088995
        12        11         6        24     9        0.000000        0.234242         1    ;  uncertainty k = 1.396588
        12        11         6        24     9      180.000000        1.135078         2    ;  uncertainty k = 0.253259
        12        11         6        24     9        0.000000        0.445987         3    ;  uncertainty k = 0.178306
        12        11         6        24     9      180.000000        0.275114         4    ;  uncertainty k = 0.157371
        12        11        23        15     9        0.000000       -0.280538         1    ;  uncertainty k = 0.385176
        12        11        23        15     9      180.000000       11.566319         2    ;  uncertainty k = 0.178395
        12        11        23        15     9        0.000000       -0.200333         3    ;  uncertainty k = 0.258570
        12        11        23        15     9      180.000000        0.954749         4    ;  uncertainty k = 0.233982
        12        11        23        45     9        0.000000        0.214195         1    ;  uncertainty k = 0.143689
        12        11        23        45     9      180.000000        7.708544         2    ;  uncertainty k = 0.454819
        12        11        23        45     9        0.000000        1.349625         3    ;  uncertainty k = 0.371405
        12        11        23        45     9      180.000000        1.677395         4    ;  uncertainty k = 0.194347
        12        13        14        15     9        0.000000       -0.055020         1    ;  uncertainty k = 0.251775
        12        13        14        15     9      180.000000       14.028721         2    ;  uncertainty k = 0.231408
        12        13        14        15     9        0.000000       -0.847978         3    ;  uncertainty k = 0.459377
        12        13        14        15     9      180.000000        0.706821         4    ;  uncertainty k = 0.226120
        12        13        14        40     9        0.000000        0.074253         1    ;  uncertainty k = 0.073971
        12        13        14        40     9      180.000000        7.698407         2    ;  uncertainty k = 0.217238
        12        13        14        40     9        0.000000        1.454812         3    ;  uncertainty k = 0.227283
        12        13        14        40     9      180.000000        1.829765         4    ;  uncertainty k = 0.221410
        13        12        11        23     9        0.000000       -0.254605         1    ;  uncertainty k = 0.216182
        13        12        11        23     9      180.000000       12.004021         2    ;  uncertainty k = 0.431782
        13        12        11        23     9        0.000000       -0.550941         3    ;  uncertainty k = 0.175657
        13        12        11        23     9      180.000000        0.833725         4    ;  uncertainty k = 0.277442
        13        14        15        16     9        0.000000        0.051444         1    ;  uncertainty k = 0.220030
        13        14        15        16     9      180.000000        8.978040         2    ;  uncertainty k = 0.548836
        13        14        15        16     9        0.000000        1.185213         3    ;  uncertainty k = 0.439163
        13        14        15        16     9      180.000000        1.740227         4    ;  uncertainty k = 0.176287
        13        14        15        23     9        0.000000        0.111210         1    ;  uncertainty k = 0.146317
        13        14        15        23     9      180.000000       11.226825         2    ;  uncertainty k = 0.235313
        13        14        15        23     9        0.000000       -0.448562         3    ;  uncertainty k = 0.339106
        13        14        15        23     9      180.000000        0.924816         4    ;  uncertainty k = 0.277988
        14        13        12        38     9        0.000000        0.034669         1    ;  uncertainty k = 0.113750
        14        13        12        38     9      180.000000        7.661126         2    ;  uncertainty k = 0.327674
        14        13        12        38     9        0.000000        1.377729         3    ;  uncertainty k = 0.239334
        14        13        12        38     9      180.000000        1.818832         4    ;  uncertainty k = 0.105097
        14        15        16        17     9        0.000000       -0.400133         1    ;  uncertainty k = 0.435124
        14        15        16        17     9      180.000000        3.916864         2    ;  uncertainty k = 0.074040
        14        15        16        17     9        0.000000        0.295848         3    ;  uncertainty k = 0.128843
        14        15        16        17     9      180.000000       -0.084277         4    ;  uncertainty k = 0.061339
        14        15        16        22     9        0.000000       -0.377777         1    ;  uncertainty k = 0.353240
        14        15        16        22     9      180.000000        3.944286         2    ;  uncertainty k = 0.075280
        14        15        16        22     9        0.000000        0.278895         3    ;  uncertainty k = 0.120310
        14        15        16        22     9      180.000000       -0.060375         4    ;  uncertainty k = 0.043118
        14        15        23        45     9        0.000000        0.080208         1    ;  uncertainty k = 0.140639
        14        15        23        45     9      180.000000        7.157730         2    ;  uncertainty k = 0.636145
        14        15        23        45     9        0.000000        1.427734         3    ;  uncertainty k = 0.122780
        14        15        23        45     9      180.000000        1.631685         4    ;  uncertainty k = 0.237717
        15        14        13        39     9        0.000000        0.003390         1    ;  uncertainty k = 0.188583
        15        14        13        39     9      180.000000        7.689113         2    ;  uncertainty k = 0.353011
        15        14        13        39     9        0.000000        1.344078         3    ;  uncertainty k = 0.219648
        15        14        13        39     9      180.000000        1.842130         4    ;  uncertainty k = 0.191282
        15        16        17        18     9        0.000000       -0.022459         1    ;  uncertainty k = 0.223706
        15        16        17        18     9      180.000000        8.765598         2    ;  uncertainty k = 0.607516
        15        16        17        18     9        0.000000        1.206317         3    ;  uncertainty k = 0.404755
        15        16        17        18     9      180.000000        1.770717         4    ;  uncertainty k = 0.158362
        15        16        17        41     9        0.000000       -0.230672         1    ;  uncertainty k = 0.315719
        15        16        17        41     9      180.000000        7.076120         2    ;  uncertainty k = 0.454994
        15        16        17        41     9        0.000000        0.824202         3    ;  uncertainty k = 0.162886
        15        16        17        41     9      180.000000        1.171979         4    ;  uncertainty k = 0.211933
        15        16        22        20     9        0.000000        0.071563         1    ;  uncertainty k = 0.169937
        15        16        22        20     9      180.000000        8.986358         2    ;  uncertainty k = 0.377506
        15        16        22        20     9        0.000000        1.285611         3    ;  uncertainty k = 0.282693
        15        16        22        20     9      180.000000        1.696801         4    ;  uncertainty k = 0.070595
        15        16        22        44     9        0.000000       -0.196999         1    ;  uncertainty k = 0.276462
        15        16        22        44     9      180.000000        7.094782         2    ;  uncertainty k = 0.418329
        15        16        22        44     9        0.000000        0.826994         3    ;  uncertainty k = 0.180880
        15        16        22        44     9      180.000000        1.171392         4    ;  uncertainty k = 0.202121
        16        15        14        40     9        0.000000       -0.139394         1    ;  uncertainty k = 0.276605
        16        15        14        40     9      180.000000        7.151255         2    ;  uncertainty k = 0.452736
        16        15        14        40     9        0.000000        0.828236         3    ;  uncertainty k = 0.119211
        16        15        14        40     9      180.000000        1.195925         4    ;  uncertainty k = 0.179674
        16        15        23        45     9        0.000000       -0.095383         1    ;  uncertainty k = 0.210376
        16        15        23        45     9      180.000000        7.318466         2    ;  uncertainty k = 0.300779
        16        15        23        45     9        0.000000        0.825498         3    ;  uncertainty k = 0.177461
        16        15        23        45     9      180.000000        1.269670         4    ;  uncertainty k = 0.199284
        16        17        18        19     9        0.000000       -0.042208         1    ;  uncertainty k = 0.231516
        16        17        18        19     9      180.000000       14.171992         2    ;  uncertainty k = 0.189515
        16        17        18        19     9        0.000000       -0.870742         3    ;  uncertainty k = 0.485056
        16        17        18        19     9      180.000000        0.699208         4    ;  uncertainty k = 0.253427
        16        17        18        42     9        0.000000        0.022680         1    ;  uncertainty k = 0.242894
        16        17        18        42     9      180.000000        7.703942         2    ;  uncertainty k = 0.339132
        16        17        18        42     9        0.000000        1.372427         3    ;  uncertainty k = 0.261098
        16        17        18        42     9      180.000000        1.835688         4    ;  uncertainty k = 0.149481
        16        22        20        19     9        0.000000       -0.010279         1    ;  uncertainty k = 0.315076
        16        22        20        19     9      180.000000        9.861218         2    ;  uncertainty k = 0.417908
        16        22        20        19     9        0.000000       -0.044172         3    ;  uncertainty k = 0.331365
        16        22        20        19     9      180.000000        1.160540         4    ;  uncertainty k = 0.311928
        16        22        20        21     9        0.000000        0.036466         1    ;  uncertainty k = 0.115484
        16        22        20        21     9      180.000000        9.485434         2    ;  uncertainty k = 0.578648
        16        22        20        21     9        0.000000        1.367643         3    ;  uncertainty k = 0.425703
        16        22        20        21     9      180.000000        1.685065         4    ;  uncertainty k = 0.101287
        17        16        15        23     9        0.000000       -0.194992         1    ;  uncertainty k = 0.470898
        17        16        15        23     9      180.000000        4.183522         2    ;  uncertainty k = 0.149936
        17        16        15        23     9        0.000000        0.275694         3    ;  uncertainty k = 0.155646
        17        16        15        23     9      180.000000       -0.002744         4    ;  uncertainty k = 0.039217
        17        16        22        20     9        0.000000        0.112971         1    ;  uncertainty k = 0.107592
        17        16        22        20     9      180.000000       11.459687         2    ;  uncertainty k = 0.265370
        17        16        22        20     9        0.000000       -0.359029         3    ;  uncertainty k = 0.399359
        17        16        22        20     9      180.000000        0.945001         4    ;  uncertainty k = 0.278886
        17        16        22        44     9        0.000000        0.189437         1    ;  uncertainty k = 0.134814
        17        16        22        44     9      180.000000        6.927558         2    ;  uncertainty k = 0.531255
        17        16        22        44     9        0.000000        1.476130         3    ;  uncertainty k = 0.227216
        17        16        22        44     9      180.000000        1.643456         4    ;  uncertainty k = 0.236170
        17        18        19        20     9        0.000000        0.034101         1    ;  uncertainty k = 0.181604
        17        18        19        20     9      180.000000       14.637857         2    ;  uncertainty k = 0.207905
        17        18        19        20     9        0.000000       -1.037223         3    ;  uncertainty k = 0.574419
        17        18        19        20     9      180.000000        0.689985         4    ;  uncertainty k = 0.252256
        17        18        19        43     9        0.000000        0.080157         1    ;  uncertainty k = 0.044174
        17        18        19        43     9      180.000000        7.631927         2    ;  uncertainty k = 0.319811
        17        18        19        43     9        0.000000        1.497161         3    ;  uncertainty k = 0.267179
        17        18        19        43     9      180.000000        1.800300         4    ;  uncertainty k = 0.165698
        18        17        16        22     9        0.000000       -0.014258         1    ;  uncertainty k = 0.046197
        18        17        16        22     9      180.000000       11.353969         2    ;  uncertainty k = 0.284679
        18        17        16        22     9        0.000000       -0.419125         3    ;  uncertainty k = 0.329524
        18        17        16        22     9      180.000000        0.851477         4    ;  uncertainty k = 0.284931
        18        19        20        21     9        0.000000        0.039415         1    ;  uncertainty k = 0.185710
        18        19        20        21     9      180.000000        9.400893         2    ;  uncertainty k = 0.673917
        18        19        20        21     9        0.000000        1.522713         3    ;  uncertainty k = 0.432767
        18        19        20        21     9      180.000000        1.637619         4    ;  uncertainty k = 0.162550
        18        19        20        22     9        0.000000       -0.035280         1    ;  uncertainty k = 0.114525
        18        19        20        22     9      180.000000       10.458549         2    ;  uncertainty k = 0.352853
        18        19        20        22     9        0.000000       -0.351603         3    ;  uncertainty k = 0.544621
        18        19        20        22     9      180.000000        0.999885         4    ;  uncertainty k = 0.326950
        19        18        17        41     9        0.000000        0.052492         1    ;  uncertainty k = 0.058932
        19        18        17        41     9      180.000000        7.952026         2    ;  uncertainty k = 0.267692
        19        18        17        41     9        0.000000        1.470677         3    ;  uncertainty k = 0.256858
        19        18        17        41     9      180.000000        1.851649         4    ;  uncertainty k = 0.164393
        19        20        22        44     9        0.000000       -0.045893         1    ;  uncertainty k = 0.245307
        19        20        22        44     9      180.000000        6.349827         2    ;  uncertainty k = 0.564330
        19        20        22        44     9        0.000000        1.416183         3    ;  uncertainty k = 0.310677
        19        20        22        44     9      180.000000        1.600595         4    ;  uncertainty k = 0.148712
        20        19        18        42     9        0.000000        0.013468         1    ;  uncertainty k = 0.140072
        20        19        18        42     9      180.000000        7.595964         2    ;  uncertainty k = 0.326736
        20        19        18        42     9        0.000000        1.451185         3    ;  uncertainty k = 0.275082
        20        19        18        42     9      180.000000        1.856285         4    ;  uncertainty k = 0.184737
        21        20        19        43     9        0.000000       -0.148142         1    ;  uncertainty k = 0.212406
        21        20        19        43     9      180.000000        7.328405         2    ;  uncertainty k = 0.291144
        21        20        19        43     9        0.000000        0.580550         3    ;  uncertainty k = 0.353024
        21        20        19        43     9      180.000000        0.942602         4    ;  uncertainty k = 0.155635
        21        20        22        44     9        0.000000       -0.243273         1    ;  uncertainty k = 0.262026
        21        20        22        44     9      180.000000        7.505922         2    ;  uncertainty k = 0.286010
        21        20        22        44     9        0.000000        0.606748         3    ;  uncertainty k = 0.290520
        21        20        22        44     9      180.000000        1.026416         4    ;  uncertainty k = 0.149534
        22        16        15        23     9        0.000000       -0.154644         1    ;  uncertainty k = 0.380349
        22        16        15        23     9      180.000000        4.193825         2    ;  uncertainty k = 0.135774
        22        16        15        23     9        0.000000        0.238039         3    ;  uncertainty k = 0.160571
        22        16        15        23     9      180.000000        0.020841         4    ;  uncertainty k = 0.038935
        22        16        17        41     9        0.000000        0.134272         1    ;  uncertainty k = 0.144927
        22        16        17        41     9      180.000000        6.905301         2    ;  uncertainty k = 0.558344
        22        16        17        41     9        0.000000        1.477109         3    ;  uncertainty k = 0.223699
        22        16        17        41     9      180.000000        1.638259         4    ;  uncertainty k = 0.236471
        22        20        19        43     9        0.000000        0.008768         1    ;  uncertainty k = 0.120181
        22        20        19        43     9      180.000000        6.217604         2    ;  uncertainty k = 0.626406
        22        20        19        43     9        0.000000        1.411019         3    ;  uncertainty k = 0.350782
        22        20        19        43     9      180.000000        1.518245         4    ;  uncertainty k = 0.154069
        23        11         6        24     9        0.000000        0.235136         1    ;  uncertainty k = 1.443597
        23        11         6        24     9      180.000000        1.135061         2    ;  uncertainty k = 0.217823
        23        11         6        24     9        0.000000        0.404079         3    ;  uncertainty k = 0.171380
        23        11         6        24     9      180.000000        0.285976         4    ;  uncertainty k = 0.162111
        23        11        12        38     9        0.000000        0.239570         1    ;  uncertainty k = 0.194556
        23        11        12        38     9      180.000000        7.561949         2    ;  uncertainty k = 0.517586
        23        11        12        38     9        0.000000        1.321395         3    ;  uncertainty k = 0.366961
        23        11        12        38     9      180.000000        1.651333         4    ;  uncertainty k = 0.209940
        23        15        14        40     9        0.000000        0.196864         1    ;  uncertainty k = 0.172394
        23        15        14        40     9      180.000000        7.048916         2    ;  uncertainty k = 0.449331
        23        15        14        40     9        0.000000        1.420739         3    ;  uncertainty k = 0.247719
        23        15        14        40     9      180.000000        1.610780         4    ;  uncertainty k = 0.249884
        24         2         1        26     9        0.000000        0.275587         1    ;  uncertainty k = 0.469618
        24         2         1        26     9      180.000000        0.048558         2    ;  uncertainty k = 0.251266
        24         2         1        26     9        0.000000        0.373746         3    ;  uncertainty k = 0.222534
        24         2         1        26     9      180.000000        0.305539         4    ;  uncertainty k = 0.070438
        24         2         1        27     9        0.000000        0.275587         1    ;  uncertainty k = 0.469618
        24         2         1        27     9      180.000000        0.048558         2    ;  uncertainty k = 0.251266
        24         2         1        27     9        0.000000        0.373746         3    ;  uncertainty k = 0.222534
        24         2         1        27     9      180.000000        0.305539         4    ;  uncertainty k = 0.070438
        24         2         1        28     9        0.000000        0.275587         1    ;  uncertainty k = 0.469618
        24         2         1        28     9      180.000000        0.048558         2    ;  uncertainty k = 0.251266
        24         2         1        28     9        0.000000        0.373746         3    ;  uncertainty k = 0.222534
        24         2         1        28     9      180.000000        0.305539         4    ;  uncertainty k = 0.070438
        24         6         5        30     9        0.000000       -0.045675         1    ;  uncertainty k = 2.610911
        24         6         5        30     9      180.000000       -0.026083         2    ;  uncertainty k = 1.784903
        24         6         5        30     9        0.000000        0.317726         3    ;  uncertainty k = 0.434356
        24         6         5        30     9      180.000000       -0.009762         4    ;  uncertainty k = 0.149512
        24         6         7        31     9        0.000000        0.122573         1    ;  uncertainty k = 0.662480
        24         6         7        31     9      180.000000       -0.784961         2    ;  uncertainty k = 0.213261
        24         6         7        31     9        0.000000        0.255590         3    ;  uncertainty k = 0.161319
        24         6         7        31     9      180.000000       -0.110522         4    ;  uncertainty k = 0.069989
        24         6         7        32     9        0.000000        0.122573         1    ;  uncertainty k = 0.662480
        24         6         7        32     9      180.000000       -0.784961         2    ;  uncertainty k = 0.213261
        24         6         7        32     9        0.000000        0.255590         3    ;  uncertainty k = 0.161319
        24         6         7        32     9      180.000000       -0.110522         4    ;  uncertainty k = 0.069989
        31         7         8        33     9        0.000000       -0.723716         1    ;  uncertainty k = 1.337283
        31         7         8        33     9      180.000000       -0.200827         2    ;  uncertainty k = 0.494404
        31         7         8        33     9        0.000000        0.818464         3    ;  uncertainty k = 0.154662
        31         7         8        33     9      180.000000        0.058673         4    ;  uncertainty k = 0.098908
        32         7         8        33     9        0.000000       -0.723716         1    ;  uncertainty k = 1.337283
        32         7         8        33     9      180.000000       -0.200827         2    ;  uncertainty k = 0.494404
        32         7         8        33     9        0.000000        0.818464         3    ;  uncertainty k = 0.154662
        32         7         8        33     9      180.000000        0.058673         4    ;  uncertainty k = 0.098908
        33         8         9        34     9        0.000000        0.354226         1    ;  uncertainty k = 0.953464
        33         8         9        34     9      180.000000       -1.582290         2    ;  uncertainty k = 1.123419
        33         8         9        34     9        0.000000        0.897250         3    ;  uncertainty k = 0.298469
        33         8         9        34     9      180.000000       -0.795257         4    ;  uncertainty k = 0.171983
        33         8         9        35     9        0.000000        0.354226         1    ;  uncertainty k = 0.953464
        33         8         9        35     9      180.000000       -1.582290         2    ;  uncertainty k = 1.123419
        33         8         9        35     9        0.000000        0.897250         3    ;  uncertainty k = 0.298469
        33         8         9        35     9      180.000000       -0.795257         4    ;  uncertainty k = 0.171983
        33         8        10        36     9        0.000000        0.354226         1    ;  uncertainty k = 0.953465
        33         8        10        36     9      180.000000       -1.582290         2    ;  uncertainty k = 1.123419
        33         8        10        36     9        0.000000        0.897251         3    ;  uncertainty k = 0.298468
        33         8        10        36     9      180.000000       -0.795257         4    ;  uncertainty k = 0.171982
        33         8        10        37     9        0.000000        0.354226         1    ;  uncertainty k = 0.953465
        33         8        10        37     9      180.000000       -1.582290         2    ;  uncertainty k = 1.123419
        33         8        10        37     9        0.000000        0.897251         3    ;  uncertainty k = 0.298468
        33         8        10        37     9      180.000000       -0.795257         4    ;  uncertainty k = 0.171982
        34         9        10        36     9        0.000000       -0.108805         1    ;  uncertainty k = 0.598875
        34         9        10        36     9      180.000000       -1.297576         2    ;  uncertainty k = 0.491371
        34         9        10        36     9        0.000000        0.981761         3    ;  uncertainty k = 0.346609
        34         9        10        36     9      180.000000       -0.696907         4    ;  uncertainty k = 0.111351
        34         9        10        37     9        0.000000       -0.108805         1    ;  uncertainty k = 0.598875
        34         9        10        37     9      180.000000       -1.297576         2    ;  uncertainty k = 0.491371
        34         9        10        37     9        0.000000        0.981761         3    ;  uncertainty k = 0.346609
        34         9        10        37     9      180.000000       -0.696907         4    ;  uncertainty k = 0.111351
        35         9        10        36     9        0.000000       -0.108805         1    ;  uncertainty k = 0.598875
        35         9        10        36     9      180.000000       -1.297576         2    ;  uncertainty k = 0.491371
        35         9        10        36     9        0.000000        0.981761         3    ;  uncertainty k = 0.346609
        35         9        10        36     9      180.000000       -0.696907         4    ;  uncertainty k = 0.111351
        35         9        10        37     9        0.000000       -0.108805         1    ;  uncertainty k = 0.598875
        35         9        10        37     9      180.000000       -1.297576         2    ;  uncertainty k = 0.491371
        35         9        10        37     9        0.000000        0.981761         3    ;  uncertainty k = 0.346609
        35         9        10        37     9      180.000000       -0.696907         4    ;  uncertainty k = 0.111351
        38        12        13        39     9        0.000000       -0.102529         1    ;  uncertainty k = 0.356452
        38        12        13        39     9      180.000000        7.849644         2    ;  uncertainty k = 0.297605
        38        12        13        39     9        0.000000       -0.493683         3    ;  uncertainty k = 0.306716
        38        12        13        39     9      180.000000        0.125063         4    ;  uncertainty k = 0.179633
        39        13        14        40     9        0.000000       -0.101718         1    ;  uncertainty k = 0.205650
        39        13        14        40     9      180.000000        7.991999         2    ;  uncertainty k = 0.294578
        39        13        14        40     9        0.000000       -0.495695         3    ;  uncertainty k = 0.273352
        39        13        14        40     9      180.000000        0.119605         4    ;  uncertainty k = 0.149366
        41        17        18        42     9        0.000000       -0.071837         1    ;  uncertainty k = 0.139578
        41        17        18        42     9      180.000000        7.837294         2    ;  uncertainty k = 0.341152
        41        17        18        42     9        0.000000       -0.474130         3    ;  uncertainty k = 0.274222
        41        17        18        42     9      180.000000        0.116282         4    ;  uncertainty k = 0.133076
        42        18        19        43     9        0.000000       -0.080242         1    ;  uncertainty k = 0.065182
        42        18        19        43     9      180.000000        7.728195         2    ;  uncertainty k = 0.460598
        42        18        19        43     9        0.000000       -0.435760         3    ;  uncertainty k = 0.241595
        42        18        19        43     9      180.000000        0.035511         4    ;  uncertainty k = 0.167623

[ dihedrals ] ; impropers
;       ai        aj        ak        al funct           phase               k        pn
         2         1         3        24     4      180.000000        1.988179         2    ;  uncertainty k = 0.614819
         2         3        24         1     4      180.000000        1.988179         2    ;  uncertainty k = 0.614819
         2        24         1         3     4      180.000000        1.988179         2    ;  uncertainty k = 0.614819
         3         2         4         5     4      180.000000       30.449550         2    ;  uncertainty k = 0.137236
         3         4         5         2     4      180.000000       30.449550         2    ;  uncertainty k = 0.137236
         3         5         2         4     4      180.000000       30.449550         2    ;  uncertainty k = 0.137236
         4         3        29        46     4      180.000000        0.121113         2    ;  uncertainty k = 0.270817
         4        29        46         3     4      180.000000        0.121113         2    ;  uncertainty k = 0.270817
         4        46         3        29     4      180.000000        0.121113         2    ;  uncertainty k = 0.270817
        11         6        12        23     4      180.000000       10.580531         2    ;  uncertainty k = 0.225813
        11        12        23         6     4      180.000000       10.580531         2    ;  uncertainty k = 0.225813
        11        23         6        12     4      180.000000       10.580531         2    ;  uncertainty k = 0.225813
        12        11        13        38     4      180.000000        3.719934         2    ;  uncertainty k = 0.256107
        12        13        38        11     4      180.000000        3.719934         2    ;  uncertainty k = 0.256107
        12        38        11        13     4      180.000000        3.719934         2    ;  uncertainty k = 0.256107
        13        12        14        39     4      180.000000        3.980489         2    ;  uncertainty k = 0.118236
        13        14        39        12     4      180.000000        3.980489         2    ;  uncertainty k = 0.118236
        13        39        12        14     4      180.000000        3.980489         2    ;  uncertainty k = 0.118236
        14        13        15        40     4      180.000000        4.536843         2    ;  uncertainty k = 0.126696
        14        15        40        13     4      180.000000        4.536843         2    ;  uncertainty k = 0.126696
        14        40        13        15     4      180.000000        4.536843         2    ;  uncertainty k = 0.126696
        15        14        16        23     4      180.000000       15.056247         2    ;  uncertainty k = 0.046382
        15        16        23        14     4      180.000000       15.056247         2    ;  uncertainty k = 0.046382
        15        23        14        16     4      180.000000       15.056247         2    ;  uncertainty k = 0.046382
        16        15        17        22     4      180.000000       14.799146         2    ;  uncertainty k = 0.052816
        16        17        22        15     4      180.000000       14.799146         2    ;  uncertainty k = 0.052816
        16        22        15        17     4      180.000000       14.799146         2    ;  uncertainty k = 0.052816
        17        16        18        41     4      180.000000        3.700191         2    ;  uncertainty k = 0.086940
        17        18        41        16     4      180.000000        3.700191         2    ;  uncertainty k = 0.086940
        17        41        16        18     4      180.000000        3.700191         2    ;  uncertainty k = 0.086940
        18        17        19        42     4      180.000000        4.249204         2    ;  uncertainty k = 0.103731
        18        19        42        17     4      180.000000        4.249204         2    ;  uncertainty k = 0.103731
        18        42        17        19     4      180.000000        4.249204         2    ;  uncertainty k = 0.103731
        19        18        20        43     4      180.000000        3.525381         2    ;  uncertainty k = 0.172936
        19        20        43        18     4      180.000000        3.525381         2    ;  uncertainty k = 0.172936
        19        43        18        20     4      180.000000        3.525381         2    ;  uncertainty k = 0.172936
        20        19        21        22     4      180.000000       13.371882         2    ;  uncertainty k = 0.047246
        20        21        22        19     4      180.000000       13.371882         2    ;  uncertainty k = 0.047246
        20        22        19        21     4      180.000000       13.371882         2    ;  uncertainty k = 0.047246
        22        16        20        44     4      180.000000        3.443516         2    ;  uncertainty k = 0.143384
        22        20        44        16     4      180.000000        3.443516         2    ;  uncertainty k = 0.143384
        22        44        16        20     4      180.000000        3.443516         2    ;  uncertainty k = 0.143384
        23        11        15        45     4      180.000000        4.168982         2    ;  uncertainty k = 0.264571
        23        15        45        11     4      180.000000        4.168982         2    ;  uncertainty k = 0.264571
        23        45        11        15     4      180.000000        4.168982         2    ;  uncertainty k = 0.264571
        24         2         6        25     4      180.000000       50.355918         2    ;  uncertainty k = 0.030914
        24         6        25         2     4      180.000000       50.355918         2    ;  uncertainty k = 0.030914
        24        25         2         6     4      180.000000       50.355918         2    ;  uncertainty k = 0.030914

[ pairs ]
;       ai        aj funct
         1         4     1
         1         5     1
         1         6     1
         1        25     1
         2         7     1
         2        11     1
         2        29     1
         2        30     1
         2        46     1
         3         7     1
         3        11     1
         3        25     1
         3        26     1
         3        27     1
         3        28     1
         4         6     1
         4        24     1
         4        30     1
         5         8     1
         5        12     1
         5        23     1
         5        25     1
         5        29     1
         5        31     1
         5        32     1
         5        46     1
         6         9     1
         6        10     1
         6        13     1
         6        15     1
         6        33     1
         6        38     1
         6        45     1
         7        12     1
         7        23     1
         7        25     1
         7        30     1
         7        34     1
         7        35     1
         7        36     1
         7        37     1
         8        11     1
         8        24     1
         9        31     1
         9        32     1
        10        31     1
        10        32     1
        11        14     1
        11        16     1
        11        25     1
        11        30     1
        11        31     1
        11        32     1
        11        39     1
        12        15     1
        12        24     1
        12        40     1
        12        45     1
        13        16     1
        13        23     1
        14        17     1
        14        22     1
        14        38     1
        14        45     1
        15        18     1
        15        20     1
        15        39     1
        15        41     1
        15        44     1
        16        19     1
        16        21     1
        16        40     1
        16        42     1
        16        45     1
        17        20     1
        17        23     1
        17        43     1
        17        44     1
        18        21     1
        18        22     1
        19        41     1
        19        44     1
        20        42     1
        21        43     1
        21        44     1
        22        23     1
        22        41     1
        22        43     1
        23        24     1
        23        38     1
        23        40     1
        24        26     1
        24        27     1
        24        28     1
        24        30     1
        24        31     1
        24        32     1
        31        33     1
        32        33     1
        33        34     1
        33        35     1
        33        36     1
        33        37     1
        34        36     1
        34        37     1
        35        36     1
        35        37     1
        38        39     1
        39        40     1
        41        42     1
        42        43     1
