; ITP file created by ByteFF-joint-25, 2026-02-18 03:15:30.054957

[ atomtypes ]
;name           bonded.type        at.num        mass        charge   ptype           sigma         epsilon
 c0bf                                   6      0.0000       0.00000       A     3.39791e-01     4.50885e-01    ;  uncertainty sigma = 0.000005, epsilon = 0.000764
 o1bf                                   8      0.0000       0.00000       A     3.15631e-01     3.03496e-01    ;  uncertainty sigma = 0.000024, epsilon = 0.001047
 c2bf                                   6      0.0000       0.00000       A     3.31535e-01     4.13200e-01    ;  uncertainty sigma = 0.000012, epsilon = 0.001660
 c3bf                                   6      0.0000       0.00000       A     3.31535e-01     4.12976e-01    ;  uncertainty sigma = 0.000009, epsilon = 0.000435
 n4bf                                   7      0.0000       0.00000       A     3.38401e-01     3.93622e-01    ;  uncertainty sigma = 0.000009, epsilon = 0.001080
 c5bf                                   6      0.0000       0.00000       A     3.31520e-01     4.13424e-01    ;  uncertainty sigma = 0.000004, epsilon = 0.000703
 c6bf                                   6      0.0000       0.00000       A     3.31492e-01     4.12837e-01    ;  uncertainty sigma = 0.000010, epsilon = 0.000736
 c7bf                                   6      0.0000       0.00000       A     3.31509e-01     4.13479e-01    ;  uncertainty sigma = 0.000011, epsilon = 0.000771
 c8bf                                   6      0.0000       0.00000       A     3.31511e-01     4.13225e-01    ;  uncertainty sigma = 0.000005, epsilon = 0.000664
 c9bf                                   6      0.0000       0.00000       A     3.31522e-01     4.13323e-01    ;  uncertainty sigma = 0.000003, epsilon = 0.000652
 c10bf                                  6      0.0000       0.00000       A     3.31507e-01     4.13144e-01    ;  uncertainty sigma = 0.000003, epsilon = 0.000558
 c11bf                                  6      0.0000       0.00000       A     3.31515e-01     4.13825e-01    ;  uncertainty sigma = 0.000024, epsilon = 0.000893
 c12bf                                  6      0.0000       0.00000       A     3.39803e-01     4.52408e-01    ;  uncertainty sigma = 0.000048, epsilon = 0.001848
 c13bf                                  6      0.0000       0.00000       A     3.39764e-01     4.49715e-01    ;  uncertainty sigma = 0.000040, epsilon = 0.002019
 c14bf                                  6      0.0000       0.00000       A     3.39735e-01     4.50626e-01    ;  uncertainty sigma = 0.000020, epsilon = 0.000685
 c15bf                                  6      0.0000       0.00000       A     3.39735e-01     4.50626e-01    ;  uncertainty sigma = 0.000020, epsilon = 0.000685
 n16bf                                  7      0.0000       0.00000       A     3.27439e-01     6.56945e-01    ;  uncertainty sigma = 0.000124, epsilon = 0.011786
 c17bf                                  6      0.0000       0.00000       A     3.31517e-01     4.12248e-01    ;  uncertainty sigma = 0.000058, epsilon = 0.001403
 n18bf                                  7      0.0000       0.00000       A     3.36546e-01     4.71601e-01    ;  uncertainty sigma = 0.000088, epsilon = 0.005519
 n19bf                                  7      0.0000       0.00000       A     3.18110e-01     6.83692e-01    ;  uncertainty sigma = 0.000074, epsilon = 0.006737
 c20bf                                  6      0.0000       0.00000       A     3.39733e-01     4.51254e-01    ;  uncertainty sigma = 0.000013, epsilon = 0.001262
 c21bf                                  6      0.0000       0.00000       A     3.31558e-01     4.13924e-01    ;  uncertainty sigma = 0.000016, epsilon = 0.000459
 o22bf                                  8      0.0000       0.00000       A     3.04808e-01     6.12161e-01    ;  uncertainty sigma = 0.000055, epsilon = 0.001789
 c23bf                                  6      0.0000       0.00000       A     3.31517e-01     4.13236e-01    ;  uncertainty sigma = 0.000017, epsilon = 0.000949
 c24bf                                  6      0.0000       0.00000       A     3.31517e-01     4.13100e-01    ;  uncertainty sigma = 0.000011, epsilon = 0.000845
 h25bf                                  1      0.0000       0.00000       A     2.42205e-01     8.67538e-02    ;  uncertainty sigma = 0.000015, epsilon = 0.000624
 h26bf                                  1      0.0000       0.00000       A     2.42205e-01     8.67538e-02    ;  uncertainty sigma = 0.000015, epsilon = 0.000624
 h27bf                                  1      0.0000       0.00000       A     2.42205e-01     8.67538e-02    ;  uncertainty sigma = 0.000015, epsilon = 0.000624
 h28bf                                  1      0.0000       0.00000       A     2.53667e-01     6.70761e-02    ;  uncertainty sigma = 0.000039, epsilon = 0.000750
 h29bf                                  1      0.0000       0.00000       A     2.53644e-01     6.67556e-02    ;  uncertainty sigma = 0.000027, epsilon = 0.000598
 h30bf                                  1      0.0000       0.00000       A     2.62562e-01     6.70409e-02    ;  uncertainty sigma = 0.000012, epsilon = 0.000506
 h31bf                                  1      0.0000       0.00000       A     2.62564e-01     6.70136e-02    ;  uncertainty sigma = 0.000010, epsilon = 0.000418
 h32bf                                  1      0.0000       0.00000       A     2.62559e-01     6.70864e-02    ;  uncertainty sigma = 0.000006, epsilon = 0.000392
 h33bf                                  1      0.0000       0.00000       A     2.59937e-01     8.72287e-02    ;  uncertainty sigma = 0.000071, epsilon = 0.001228
 h34bf                                  1      0.0000       0.00000       A     2.60065e-01     8.61959e-02    ;  uncertainty sigma = 0.000029, epsilon = 0.000649
 h35bf                                  1      0.0000       0.00000       A     2.60065e-01     8.61960e-02    ;  uncertainty sigma = 0.000029, epsilon = 0.000649
 h36bf                                  1      0.0000       0.00000       A     2.60065e-01     8.61960e-02    ;  uncertainty sigma = 0.000029, epsilon = 0.000649
 h37bf                                  1      0.0000       0.00000       A     2.60065e-01     8.61960e-02    ;  uncertainty sigma = 0.000029, epsilon = 0.000649
 h38bf                                  1      0.0000       0.00000       A     1.10560e-01     4.03483e-02    ;  uncertainty sigma = 0.000072, epsilon = 0.001763
 h39bf                                  1      0.0000       0.00000       A     1.10696e-01     4.12785e-02    ;  uncertainty sigma = 0.000128, epsilon = 0.001560
 h40bf                                  1      0.0000       0.00000       A     2.42208e-01     8.66970e-02    ;  uncertainty sigma = 0.000028, epsilon = 0.000664
 h41bf                                  1      0.0000       0.00000       A     2.42208e-01     8.66970e-02    ;  uncertainty sigma = 0.000028, epsilon = 0.000664
 h42bf                                  1      0.0000       0.00000       A     2.42208e-01     8.66970e-02    ;  uncertainty sigma = 0.000028, epsilon = 0.000664
 h43bf                                  1      0.0000       0.00000       A     2.62550e-01     6.72383e-02    ;  uncertainty sigma = 0.000015, epsilon = 0.000625
 h44bf                                  1      0.0000       0.00000       A     2.62555e-01     6.71833e-02    ;  uncertainty sigma = 0.000017, epsilon = 0.000855
 h45bf                                  1      0.0000       0.00000       A     1.10696e-01     4.12786e-02    ;  uncertainty sigma = 0.000128, epsilon = 0.001559

[ moleculetype ]
;name             nrexcl
 MOL                   3

[ atoms ]
;       nr            type      resi   res      atom      cgnr      charge          mass ; qtot
         1            c0bf         1   UNL        c0         1     0.11832       12.0110 ; qtot    0.118
         2            o1bf         1   UNL        o1         2    -0.31916       15.9990 ; qtot   -0.201
         3            c2bf         1   UNL        c2         3     0.01776       12.0110 ; qtot   -0.183
         4            c3bf         1   UNL        c3         4     0.34687       12.0110 ; qtot    0.164
         5            n4bf         1   UNL        n4         5    -0.63638       14.0070 ; qtot   -0.473
         6            c5bf         1   UNL        c5         6     0.38530       12.0110 ; qtot   -0.087
         7            c6bf         1   UNL        c6         7    -0.12516       12.0110 ; qtot   -0.212
         8            c7bf         1   UNL        c7         8    -0.01423       12.0110 ; qtot   -0.227
         9            c8bf         1   UNL        c8         9    -0.09533       12.0110 ; qtot   -0.322
        10            c9bf         1   UNL        c9        10    -0.11133       12.0110 ; qtot   -0.433
        11           c10bf         1   UNL       c10        11    -0.09631       12.0110 ; qtot   -0.530
        12           c11bf         1   UNL       c11        12    -0.12595       12.0110 ; qtot   -0.656
        13           c12bf         1   UNL       c12        13     0.08654       12.0110 ; qtot   -0.569
        14           c13bf         1   UNL       c13        14    -0.18780       12.0110 ; qtot   -0.757
        15           c14bf         1   UNL       c14        15    -0.09798       12.0110 ; qtot   -0.855
        16           c15bf         1   UNL       c15        16    -0.09798       12.0110 ; qtot   -0.953
        17           n16bf         1   UNL       n16        17    -0.37866       14.0070 ; qtot   -1.331
        18           c17bf         1   UNL       c17        18     0.46059       12.0110 ; qtot   -0.871
        19           n18bf         1   UNL       n18        19    -0.48161       14.0070 ; qtot   -1.352
        20           n19bf         1   UNL       n19        20    -0.42319       14.0070 ; qtot   -1.776
        21           c20bf         1   UNL       c20        21     0.07468       12.0110 ; qtot   -1.701
        22           c21bf         1   UNL       c21        22     0.71197       12.0110 ; qtot   -0.989
        23           o22bf         1   UNL       o22        23    -0.45487       15.9990 ; qtot   -1.444
        24           c23bf         1   UNL       c23        24    -0.08117       12.0110 ; qtot   -1.525
        25           c24bf         1   UNL       c24        25    -0.14529       12.0110 ; qtot   -1.670
        26           h25bf         1   UNL       h25        26     0.04493        1.0080 ; qtot   -1.625
        27           h26bf         1   UNL       h26        27     0.04493        1.0080 ; qtot   -1.581
        28           h27bf         1   UNL       h27        28     0.04493        1.0080 ; qtot   -1.536
        29           h28bf         1   UNL       h28        29     0.02990        1.0080 ; qtot   -1.506
        30           h29bf         1   UNL       h29        30     0.02653        1.0080 ; qtot   -1.479
        31           h30bf         1   UNL       h30        31     0.13705        1.0080 ; qtot   -1.342
        32           h31bf         1   UNL       h31        32     0.14635        1.0080 ; qtot   -1.196
        33           h32bf         1   UNL       h32        33     0.14428        1.0080 ; qtot   -1.051
        34           h33bf         1   UNL       h33        34     0.11275        1.0080 ; qtot   -0.939
        35           h34bf         1   UNL       h34        35     0.08766        1.0080 ; qtot   -0.851
        36           h35bf         1   UNL       h35        36     0.08766        1.0080 ; qtot   -0.763
        37           h36bf         1   UNL       h36        37     0.08766        1.0080 ; qtot   -0.676
        38           h37bf         1   UNL       h37        38     0.08766        1.0080 ; qtot   -0.588
        39           h38bf         1   UNL       h38        39     0.35109        1.0080 ; qtot   -0.237
        40           h39bf         1   UNL       h39        40     0.33562        1.0080 ; qtot    0.099
        41           h40bf         1   UNL       h40        41     0.09037        1.0080 ; qtot    0.189
        42           h41bf         1   UNL       h41        42     0.09037        1.0080 ; qtot    0.279
        43           h42bf         1   UNL       h42        43     0.09037        1.0080 ; qtot    0.370
        44           h43bf         1   UNL       h43        44     0.14653        1.0080 ; qtot    0.516
        45           h44bf         1   UNL       h44        45     0.14809        1.0080 ; qtot    0.664
        46           h45bf         1   UNL       h45        46     0.33564        1.0080 ; qtot    1.000

[ bonds ]
;       ai        aj funct               r               k
         1         2     1        0.142172   252306.308643    ;  uncertainty r = 0.000042, k = 3.642778
         1        26     1        0.109601   311317.716357    ;  uncertainty r = 0.000015, k = 2.051829
         1        27     1        0.109601   311317.716357    ;  uncertainty r = 0.000015, k = 2.051829
         1        28     1        0.109601   311317.716357    ;  uncertainty r = 0.000015, k = 2.051829
         2         3     1        0.136029   319607.470654    ;  uncertainty r = 0.000074, k = 9.856721
         3         4     1        0.139852   346704.539893    ;  uncertainty r = 0.000061, k = 2.272647
         3        25     1        0.139379   366748.438281    ;  uncertainty r = 0.000039, k = 5.172437
         4         5     1        0.133314   395311.337598    ;  uncertainty r = 0.000036, k = 2.776774
         4        29     1        0.109028   337996.794189    ;  uncertainty r = 0.000019, k = 2.815732
         5         6     1        0.133470   386162.770313    ;  uncertainty r = 0.000075, k = 3.455015
         6         7     1        0.140155   329293.747314    ;  uncertainty r = 0.000032, k = 7.922402
         6        30     1        0.109026   336566.154248    ;  uncertainty r = 0.000015, k = 2.931364
         7         8     1        0.147694   272012.351074    ;  uncertainty r = 0.000043, k = 2.035701
         7        25     1        0.139658   363139.993652    ;  uncertainty r = 0.000086, k = 2.655126
         8         9     1        0.140130   349273.854004    ;  uncertainty r = 0.000021, k = 2.733640
         8        24     1        0.139865   340187.597266    ;  uncertainty r = 0.000063, k = 2.013133
         9        10     1        0.139318   370848.753174    ;  uncertainty r = 0.000027, k = 2.020901
         9        31     1        0.108829   334964.696582    ;  uncertainty r = 0.000027, k = 0.785423
        10        11     1        0.139473   369549.476123    ;  uncertainty r = 0.000015, k = 1.353381
        10        32     1        0.108773   333044.305957    ;  uncertainty r = 0.000024, k = 1.073346
        11        12     1        0.139716   351668.009082    ;  uncertainty r = 0.000036, k = 6.008956
        11        33     1        0.108792   333228.173145    ;  uncertainty r = 0.000023, k = 2.570387
        12        13     1        0.150890   206477.092944    ;  uncertainty r = 0.000131, k = 15.740344
        12        24     1        0.139493   344820.309814    ;  uncertainty r = 0.000039, k = 8.051525
        13        14     1        0.151162   204155.948462    ;  uncertainty r = 0.000209, k = 15.151154
        13        17     1        0.149852   225534.965234    ;  uncertainty r = 0.000257, k = 72.040348
        13        22     1        0.153376   180115.607373    ;  uncertainty r = 0.000390, k = 26.443661
        14        15     1        0.151152   209331.439502    ;  uncertainty r = 0.000138, k = 6.033770
        14        16     1        0.151152   209331.439502    ;  uncertainty r = 0.000138, k = 6.033770
        14        34     1        0.108719   310203.430127    ;  uncertainty r = 0.000077, k = 4.479993
        15        16     1        0.150777   217596.218506    ;  uncertainty r = 0.000077, k = 4.692805
        15        35     1        0.108641   313244.057129    ;  uncertainty r = 0.000029, k = 3.058990
        15        36     1        0.108641   313244.057129    ;  uncertainty r = 0.000029, k = 3.059011
        16        37     1        0.108641   313244.057129    ;  uncertainty r = 0.000029, k = 3.059011
        16        38     1        0.108641   313244.057129    ;  uncertainty r = 0.000029, k = 3.059011
        17        18     1        0.133481   527501.324121    ;  uncertainty r = 0.000076, k = 54.235084
        17        39     1        0.101512   426891.242090    ;  uncertainty r = 0.000059, k = 5.031864
        18        19     1        0.133098   316435.455225    ;  uncertainty r = 0.000215, k = 41.951554
        18        20     1        0.135503   283548.050732    ;  uncertainty r = 0.000225, k = 42.568955
        19        40     1        0.101395   420938.439746    ;  uncertainty r = 0.000072, k = 12.186642
        19        46     1        0.101395   420938.439746    ;  uncertainty r = 0.000072, k = 12.186642
        20        21     1        0.146656   261100.676221    ;  uncertainty r = 0.000124, k = 11.833539
        20        22     1        0.142785   299314.151318    ;  uncertainty r = 0.000374, k = 69.452458
        21        41     1        0.109173   309392.626904    ;  uncertainty r = 0.000044, k = 3.074421
        21        42     1        0.109173   309392.626904    ;  uncertainty r = 0.000044, k = 3.074421
        21        43     1        0.109173   309392.626904    ;  uncertainty r = 0.000044, k = 3.074421
        22        23     1        0.120161   629558.083398    ;  uncertainty r = 0.000190, k = 11.702452
        24        44     1        0.108838   333785.469482    ;  uncertainty r = 0.000018, k = 2.036246
        25        45     1        0.108847   337053.249072    ;  uncertainty r = 0.000031, k = 2.528257

[ angles ]
;       ai        aj        ak funct           theta             cth
         1         2         3     1      109.689163      510.600648    ;  uncertainty theta = 0.001911, k = 0.043886
         2         1        26     1      108.795944      443.985438    ;  uncertainty theta = 0.002056, k = 0.025346
         2         1        27     1      108.795944      443.985438    ;  uncertainty theta = 0.002056, k = 0.025346
         2         1        28     1      108.795944      443.985438    ;  uncertainty theta = 0.002056, k = 0.025346
         2         3         4     1      118.667007      397.797203    ;  uncertainty theta = 0.003636, k = 0.098708
         2         3        25     1      120.508438      429.234438    ;  uncertainty theta = 0.003607, k = 0.020661
         3         4         5     1      122.742599      682.296722    ;  uncertainty theta = 0.003000, k = 0.076160
         3         4        29     1      120.220276      261.546318    ;  uncertainty theta = 0.001772, k = 0.149916
         3        25         7     1      118.950912      531.959280    ;  uncertainty theta = 0.003575, k = 0.162195
         3        25        45     1      119.913857      269.404821    ;  uncertainty theta = 0.002453, k = 0.069912
         4         3        25     1      119.757912      355.730912    ;  uncertainty theta = 0.007094, k = 0.177356
         4         5         6     1      119.753929      401.854060    ;  uncertainty theta = 0.002739, k = 0.175413
         5         4        29     1      116.437828      338.091792    ;  uncertainty theta = 0.001750, k = 0.064236
         5         6         7     1      124.029282      706.908430    ;  uncertainty theta = 0.002329, k = 0.080335
         5         6        30     1      116.441452      343.572024    ;  uncertainty theta = 0.001520, k = 0.067612
         6         7         8     1      120.975807      394.485934    ;  uncertainty theta = 0.003322, k = 0.096497
         6         7        25     1      118.572426      384.949707    ;  uncertainty theta = 0.003372, k = 0.189500
         7         6        30     1      119.260513      263.689584    ;  uncertainty theta = 0.001696, k = 0.113915
         7         8         9     1      121.052452      411.435935    ;  uncertainty theta = 0.002421, k = 0.106887
         7         8        24     1      120.092606      416.728373    ;  uncertainty theta = 0.002313, k = 0.162432
         7        25        45     1      120.087814      271.293418    ;  uncertainty theta = 0.002697, k = 0.112507
         8         7        25     1      121.515221      403.628793    ;  uncertainty theta = 0.003029, k = 0.057094
         8         9        10     1      119.810524      533.163674    ;  uncertainty theta = 0.002353, k = 0.079435
         8         9        31     1      118.880653      279.038089    ;  uncertainty theta = 0.000745, k = 0.085281
         8        24        12     1      122.392380      516.464607    ;  uncertainty theta = 0.002892, k = 0.178584
         8        24        44     1      118.743324      282.539450    ;  uncertainty theta = 0.001741, k = 0.062630
         9         8        24     1      120.264793      404.523486    ;  uncertainty theta = 0.004108, k = 0.234821
         9        10        11     1      120.327454      510.960594    ;  uncertainty theta = 0.002446, k = 0.080635
         9        10        32     1      120.348373      284.404074    ;  uncertainty theta = 0.000706, k = 0.050357
        10         9        31     1      120.250809      294.370346    ;  uncertainty theta = 0.001086, k = 0.018858
        10        11        12     1      120.327293      515.387068    ;  uncertainty theta = 0.004364, k = 0.037328
        10        11        33     1      120.276512      299.592748    ;  uncertainty theta = 0.003027, k = 0.031167
        11        10        32     1      119.840698      282.071674    ;  uncertainty theta = 0.001962, k = 0.039638
        11        12        13     1      117.054367      373.464998    ;  uncertainty theta = 0.006930, k = 0.229722
        11        12        24     1      123.165138      435.334168    ;  uncertainty theta = 0.006601, k = 0.143023
        12        11        33     1      118.569679      271.156124    ;  uncertainty theta = 0.003481, k = 0.042645
        12        13        14     1      112.572487      532.892725    ;  uncertainty theta = 0.006618, k = 0.274850
        12        13        17     1      110.559860      619.554278    ;  uncertainty theta = 0.004317, k = 0.200006
        12        13        22     1      109.418724      482.975497    ;  uncertainty theta = 0.008208, k = 0.137213
        12        24        44     1      118.203896      271.918215    ;  uncertainty theta = 0.003337, k = 0.070604
        13        12        24     1      116.524132      376.094522    ;  uncertainty theta = 0.006500, k = 0.184769
        13        14        15     1      112.597801      318.680333    ;  uncertainty theta = 0.010889, k = 0.113929
        13        14        16     1      112.597801      318.680333    ;  uncertainty theta = 0.010889, k = 0.113929
        13        14        34     1      112.493546      265.775375    ;  uncertainty theta = 0.006435, k = 0.172589
        13        17        18     1      111.925354      603.092866    ;  uncertainty theta = 0.017251, k = 0.409410
        13        17        39     1      117.676224      299.217736    ;  uncertainty theta = 0.008967, k = 0.364636
        13        22        20     1      109.881653      478.461334    ;  uncertainty theta = 0.004913, k = 0.638722
        13        22        23     1      125.898621      417.809039    ;  uncertainty theta = 0.008673, k = 0.151128
        14        13        17     1      110.212158      624.961187    ;  uncertainty theta = 0.003788, k = 0.136123
        14        13        22     1      107.883629      486.446341    ;  uncertainty theta = 0.005882, k = 0.311861
        14        15        16     1       59.234894      167.360000    ;  uncertainty theta = 0.035765, k = 0.000000
        14        15        35     1      109.220169      219.322320    ;  uncertainty theta = 0.004633, k = 0.103843
        14        15        36     1      109.220169      219.322320    ;  uncertainty theta = 0.004633, k = 0.103843
        14        16        15     1       59.234894      167.360000    ;  uncertainty theta = 0.035765, k = 0.000000
        14        16        37     1      109.220169      219.322320    ;  uncertainty theta = 0.004633, k = 0.103843
        14        16        38     1      109.220169      219.322320    ;  uncertainty theta = 0.004633, k = 0.103843
        15        14        16     1       60.483162      167.360000    ;  uncertainty theta = 0.027862, k = 0.000000
        15        14        34     1      109.113136      190.376309    ;  uncertainty theta = 0.005107, k = 0.517015
        15        16        37     1      109.860123      223.014140    ;  uncertainty theta = 0.003076, k = 0.167688
        15        16        38     1      109.860123      223.014140    ;  uncertainty theta = 0.003076, k = 0.167688
        16        14        34     1      109.113136      190.376309    ;  uncertainty theta = 0.005107, k = 0.517015
        16        15        35     1      109.860123      223.014140    ;  uncertainty theta = 0.003076, k = 0.167688
        16        15        36     1      109.860123      223.014140    ;  uncertainty theta = 0.003076, k = 0.167688
        17        13        22     1      102.739685      943.303728    ;  uncertainty theta = 0.008074, k = 0.565001
        17        18        19     1      128.705078      646.711270    ;  uncertainty theta = 0.008044, k = 0.328474
        17        18        20     1      113.162231      705.430278    ;  uncertainty theta = 0.009464, k = 0.270719
        18        17        39     1      119.250565      354.164657    ;  uncertainty theta = 0.008486, k = 0.158432
        18        19        40     1      114.818558      368.234583    ;  uncertainty theta = 0.004127, k = 0.182929
        18        19        46     1      114.818558      368.234583    ;  uncertainty theta = 0.004127, k = 0.182929
        18        20        21     1      118.614197      373.008810    ;  uncertainty theta = 0.007384, k = 0.436302
        18        20        22     1      110.403465      715.219291    ;  uncertainty theta = 0.010415, k = 0.265126
        19        18        20     1      125.894371      534.489050    ;  uncertainty theta = 0.010836, k = 0.297060
        20        21        41     1      107.393509      471.159859    ;  uncertainty theta = 0.002493, k = 0.223269
        20        21        42     1      107.393509      471.159859    ;  uncertainty theta = 0.002493, k = 0.223269
        20        21        43     1      107.393509      471.159859    ;  uncertainty theta = 0.002493, k = 0.223269
        20        22        23     1      125.231102      649.265684    ;  uncertainty theta = 0.010191, k = 0.111304
        21        20        22     1      119.198463      398.913845    ;  uncertainty theta = 0.009079, k = 0.285860
        26         1        27     1      109.091202      330.323052    ;  uncertainty theta = 0.001593, k = 0.012719
        26         1        28     1      109.091202      330.323052    ;  uncertainty theta = 0.001593, k = 0.012719
        27         1        28     1      109.091202      330.323052    ;  uncertainty theta = 0.001593, k = 0.012719
        35        15        36     1      113.833069      202.191516    ;  uncertainty theta = 0.004153, k = 0.109118
        37        16        38     1      113.833054      202.191500    ;  uncertainty theta = 0.004153, k = 0.109119
        40        19        46     1      112.405228      264.736110    ;  uncertainty theta = 0.015790, k = 0.355762
        41        21        42     1      107.626610      325.638397    ;  uncertainty theta = 0.003338, k = 0.102136
        41        21        43     1      107.626610      325.638397    ;  uncertainty theta = 0.003338, k = 0.102136
        42        21        43     1      107.626610      325.638397    ;  uncertainty theta = 0.003338, k = 0.102136

[ dihedrals ] ; propers for gromacs 4.5 or higher, use funct 9
;       ai        aj        ak        al funct           phase               k        pn
         1         2         3         4     9        0.000000        0.271676         1    ;  uncertainty k = 0.458770
         1         2         3         4     9      180.000000        6.991736         2    ;  uncertainty k = 0.193130
         1         2         3         4     9        0.000000        0.665473         3    ;  uncertainty k = 0.165220
         1         2         3         4     9      180.000000        0.345769         4    ;  uncertainty k = 0.060416
         1         2         3        25     9        0.000000        0.334161         1    ;  uncertainty k = 0.391177
         1         2         3        25     9      180.000000        7.210735         2    ;  uncertainty k = 0.164566
         1         2         3        25     9        0.000000        0.424201         3    ;  uncertainty k = 0.199547
         1         2         3        25     9      180.000000        0.321780         4    ;  uncertainty k = 0.048868
         2         3         4         5     9        0.000000        0.012773         1    ;  uncertainty k = 0.373050
         2         3         4         5     9      180.000000       10.977255         2    ;  uncertainty k = 0.650475
         2         3         4         5     9        0.000000        0.947556         3    ;  uncertainty k = 0.357917
         2         3         4         5     9      180.000000        1.376031         4    ;  uncertainty k = 0.256802
         2         3         4        29     9        0.000000        0.035636         1    ;  uncertainty k = 0.255635
         2         3         4        29     9      180.000000        7.015759         2    ;  uncertainty k = 0.252186
         2         3         4        29     9        0.000000        0.663531         3    ;  uncertainty k = 0.211384
         2         3         4        29     9      180.000000        0.950212         4    ;  uncertainty k = 0.226883
         2         3        25         7     9        0.000000        0.191506         1    ;  uncertainty k = 0.176319
         2         3        25         7     9      180.000000       11.391091         2    ;  uncertainty k = 0.626012
         2         3        25         7     9        0.000000        1.056644         3    ;  uncertainty k = 0.286042
         2         3        25         7     9      180.000000        1.509685         4    ;  uncertainty k = 0.236863
         2         3        25        45     9        0.000000       -0.069256         1    ;  uncertainty k = 0.360240
         2         3        25        45     9      180.000000        8.399772         2    ;  uncertainty k = 0.196317
         2         3        25        45     9        0.000000        0.726001         3    ;  uncertainty k = 0.142009
         2         3        25        45     9      180.000000        1.106671         4    ;  uncertainty k = 0.191099
         3         2         1        26     9        0.000000        0.714864         1    ;  uncertainty k = 0.418841
         3         2         1        26     9      180.000000       -1.493470         2    ;  uncertainty k = 0.242660
         3         2         1        26     9        0.000000        0.905204         3    ;  uncertainty k = 0.055093
         3         2         1        26     9      180.000000        0.280413         4    ;  uncertainty k = 0.080750
         3         2         1        27     9        0.000000        0.714864         1    ;  uncertainty k = 0.418841
         3         2         1        27     9      180.000000       -1.493470         2    ;  uncertainty k = 0.242660
         3         2         1        27     9        0.000000        0.905204         3    ;  uncertainty k = 0.055093
         3         2         1        27     9      180.000000        0.280413         4    ;  uncertainty k = 0.080750
         3         2         1        28     9        0.000000        0.714864         1    ;  uncertainty k = 0.418841
         3         2         1        28     9      180.000000       -1.493470         2    ;  uncertainty k = 0.242660
         3         2         1        28     9        0.000000        0.905204         3    ;  uncertainty k = 0.055093
         3         2         1        28     9      180.000000        0.280413         4    ;  uncertainty k = 0.080750
         3         4         5         6     9        0.000000       -0.166023         1    ;  uncertainty k = 0.553846
         3         4         5         6     9      180.000000       15.370895         2    ;  uncertainty k = 0.229930
         3         4         5         6     9        0.000000        0.933894         3    ;  uncertainty k = 0.641162
         3         4         5         6     9      180.000000        1.479135         4    ;  uncertainty k = 0.102838
         3        25         7         6     9        0.000000       -0.043562         1    ;  uncertainty k = 0.139772
         3        25         7         6     9      180.000000       10.774333         2    ;  uncertainty k = 0.362141
         3        25         7         6     9        0.000000       -0.281507         3    ;  uncertainty k = 0.303201
         3        25         7         6     9      180.000000        0.995432         4    ;  uncertainty k = 0.233277
         3        25         7         8     9        0.000000        0.159255         1    ;  uncertainty k = 0.079531
         3        25         7         8     9      180.000000        8.932743         2    ;  uncertainty k = 0.538160
         3        25         7         8     9        0.000000        1.280905         3    ;  uncertainty k = 0.359094
         3        25         7         8     9      180.000000        1.741542         4    ;  uncertainty k = 0.046589
         4         3        25         7     9        0.000000        0.171816         1    ;  uncertainty k = 0.550526
         4         3        25         7     9      180.000000        8.851348         2    ;  uncertainty k = 0.651022
         4         3        25         7     9        0.000000       -0.019712         3    ;  uncertainty k = 0.322109
         4         3        25         7     9      180.000000        1.167846         4    ;  uncertainty k = 0.376277
         4         3        25        45     9        0.000000       -0.078307         1    ;  uncertainty k = 0.342796
         4         3        25        45     9      180.000000        5.531540         2    ;  uncertainty k = 0.634974
         4         3        25        45     9        0.000000        1.334149         3    ;  uncertainty k = 0.217903
         4         3        25        45     9      180.000000        1.546920         4    ;  uncertainty k = 0.113568
         4         5         6         7     9        0.000000       -0.374006         1    ;  uncertainty k = 0.700037
         4         5         6         7     9      180.000000       14.977052         2    ;  uncertainty k = 0.330308
         4         5         6         7     9        0.000000        0.863628         3    ;  uncertainty k = 0.822480
         4         5         6         7     9      180.000000        1.421758         4    ;  uncertainty k = 0.174550
         4         5         6        30     9        0.000000        0.356044         1    ;  uncertainty k = 0.283391
         4         5         6        30     9      180.000000       15.755955         2    ;  uncertainty k = 0.512787
         4         5         6        30     9        0.000000        2.259978         3    ;  uncertainty k = 0.421917
         4         5         6        30     9      180.000000        1.572362         4    ;  uncertainty k = 0.371971
         5         4         3        25     9        0.000000       -0.236842         1    ;  uncertainty k = 0.242330
         5         4         3        25     9      180.000000        9.252525         2    ;  uncertainty k = 0.611495
         5         4         3        25     9        0.000000       -0.113985         3    ;  uncertainty k = 0.329436
         5         4         3        25     9      180.000000        1.249975         4    ;  uncertainty k = 0.309332
         5         6         7         8     9        0.000000        0.115699         1    ;  uncertainty k = 0.231963
         5         6         7         8     9      180.000000        9.682553         2    ;  uncertainty k = 0.267645
         5         6         7         8     9        0.000000        1.038495         3    ;  uncertainty k = 0.305971
         5         6         7         8     9      180.000000        1.692580         4    ;  uncertainty k = 0.152150
         5         6         7        25     9        0.000000       -0.212716         1    ;  uncertainty k = 0.322701
         5         6         7        25     9      180.000000       12.520928         2    ;  uncertainty k = 0.579458
         5         6         7        25     9        0.000000       -0.508756         3    ;  uncertainty k = 0.511342
         5         6         7        25     9      180.000000        1.079980         4    ;  uncertainty k = 0.248077
         6         5         4        29     9        0.000000        0.489469         1    ;  uncertainty k = 0.276098
         6         5         4        29     9      180.000000       15.202531         2    ;  uncertainty k = 0.487180
         6         5         4        29     9        0.000000        2.298023         3    ;  uncertainty k = 0.506654
         6         5         4        29     9      180.000000        1.586514         4    ;  uncertainty k = 0.379225
         6         7         8         9     9        0.000000       -0.243945         1    ;  uncertainty k = 0.783585
         6         7         8         9     9      180.000000        3.341601         2    ;  uncertainty k = 0.025242
         6         7         8         9     9        0.000000        0.325735         3    ;  uncertainty k = 0.206803
         6         7         8         9     9      180.000000       -0.181802         4    ;  uncertainty k = 0.061079
         6         7         8        24     9        0.000000       -0.169590         1    ;  uncertainty k = 0.673166
         6         7         8        24     9      180.000000        3.529798         2    ;  uncertainty k = 0.113592
         6         7         8        24     9        0.000000        0.356922         3    ;  uncertainty k = 0.215217
         6         7         8        24     9      180.000000       -0.138645         4    ;  uncertainty k = 0.051227
         6         7        25        45     9        0.000000        0.107314         1    ;  uncertainty k = 0.388738
         6         7        25        45     9      180.000000        6.729683         2    ;  uncertainty k = 0.520881
         6         7        25        45     9        0.000000        1.351545         3    ;  uncertainty k = 0.273389
         6         7        25        45     9      180.000000        1.499050         4    ;  uncertainty k = 0.222279
         7         8         9        10     9        0.000000       -0.077039         1    ;  uncertainty k = 0.198406
         7         8         9        10     9      180.000000        8.899376         2    ;  uncertainty k = 0.525074
         7         8         9        10     9        0.000000        1.165483         3    ;  uncertainty k = 0.408757
         7         8         9        10     9      180.000000        1.739047         4    ;  uncertainty k = 0.187447
         7         8         9        31     9        0.000000       -0.164229         1    ;  uncertainty k = 0.250893
         7         8         9        31     9      180.000000        7.071400         2    ;  uncertainty k = 0.419857
         7         8         9        31     9        0.000000        0.897311         3    ;  uncertainty k = 0.134717
         7         8         9        31     9      180.000000        1.212583         4    ;  uncertainty k = 0.198274
         7         8        24        12     9        0.000000        0.268918         1    ;  uncertainty k = 0.131776
         7         8        24        12     9      180.000000        8.534417         2    ;  uncertainty k = 0.372070
         7         8        24        12     9        0.000000        1.251865         3    ;  uncertainty k = 0.380037
         7         8        24        12     9      180.000000        1.727208         4    ;  uncertainty k = 0.065213
         7         8        24        44     9        0.000000       -0.144622         1    ;  uncertainty k = 0.207012
         7         8        24        44     9      180.000000        7.305500         2    ;  uncertainty k = 0.276553
         7         8        24        44     9        0.000000        0.878734         3    ;  uncertainty k = 0.171646
         7         8        24        44     9      180.000000        1.279175         4    ;  uncertainty k = 0.195739
         8         7         6        30     9        0.000000       -0.504225         1    ;  uncertainty k = 0.788418
         8         7         6        30     9      180.000000        6.095861         2    ;  uncertainty k = 0.830684
         8         7         6        30     9        0.000000        0.839778         3    ;  uncertainty k = 0.197304
         8         7         6        30     9      180.000000        1.102967         4    ;  uncertainty k = 0.205814
         8         7        25        45     9        0.000000       -0.227170         1    ;  uncertainty k = 0.452760
         8         7        25        45     9      180.000000        7.066543         2    ;  uncertainty k = 0.337257
         8         7        25        45     9        0.000000        0.817688         3    ;  uncertainty k = 0.209742
         8         7        25        45     9      180.000000        1.140562         4    ;  uncertainty k = 0.217142
         8         9        10        11     9        0.000000       -0.085166         1    ;  uncertainty k = 0.248868
         8         9        10        11     9      180.000000       14.008123         2    ;  uncertainty k = 0.218465
         8         9        10        11     9        0.000000       -0.848388         3    ;  uncertainty k = 0.503256
         8         9        10        11     9      180.000000        0.695655         4    ;  uncertainty k = 0.247110
         8         9        10        32     9        0.000000        0.014945         1    ;  uncertainty k = 0.188275
         8         9        10        32     9      180.000000        7.669583         2    ;  uncertainty k = 0.314227
         8         9        10        32     9        0.000000        1.362001         3    ;  uncertainty k = 0.240021
         8         9        10        32     9      180.000000        1.833139         4    ;  uncertainty k = 0.176213
         8        24        12        11     9        0.000000       -0.307146         1    ;  uncertainty k = 0.376428
         8        24        12        11     9      180.000000       11.540487         2    ;  uncertainty k = 0.138378
         8        24        12        11     9        0.000000       -0.219094         3    ;  uncertainty k = 0.289002
         8        24        12        11     9      180.000000        0.947539         4    ;  uncertainty k = 0.249021
         8        24        12        13     9        0.000000        0.083793         1    ;  uncertainty k = 0.202037
         8        24        12        13     9      180.000000        8.474755         2    ;  uncertainty k = 0.285451
         8        24        12        13     9        0.000000        1.343787         3    ;  uncertainty k = 0.276991
         8        24        12        13     9      180.000000        1.871361         4    ;  uncertainty k = 0.132103
         9         8         7        25     9        0.000000       -0.376052         1    ;  uncertainty k = 0.391615
         9         8         7        25     9      180.000000        3.659322         2    ;  uncertainty k = 0.116072
         9         8         7        25     9        0.000000        0.296050         3    ;  uncertainty k = 0.159912
         9         8         7        25     9      180.000000       -0.096283         4    ;  uncertainty k = 0.051043
         9         8        24        12     9        0.000000        0.121383         1    ;  uncertainty k = 0.282542
         9         8        24        12     9      180.000000        9.990588         2    ;  uncertainty k = 0.325818
         9         8        24        12     9        0.000000       -0.126840         3    ;  uncertainty k = 0.285692
         9         8        24        12     9      180.000000        1.097127         4    ;  uncertainty k = 0.285127
         9         8        24        44     9        0.000000        0.076851         1    ;  uncertainty k = 0.167315
         9         8        24        44     9      180.000000        7.209127         2    ;  uncertainty k = 0.660674
         9         8        24        44     9        0.000000        1.425585         3    ;  uncertainty k = 0.162932
         9         8        24        44     9      180.000000        1.638166         4    ;  uncertainty k = 0.239726
         9        10        11        12     9        0.000000       -0.023668         1    ;  uncertainty k = 0.193558
         9        10        11        12     9      180.000000       13.182196         2    ;  uncertainty k = 0.274289
         9        10        11        12     9        0.000000       -0.877258         3    ;  uncertainty k = 0.549227
         9        10        11        12     9      180.000000        0.785751         4    ;  uncertainty k = 0.209022
         9        10        11        33     9        0.000000        0.043717         1    ;  uncertainty k = 0.124640
         9        10        11        33     9      180.000000        7.717288         2    ;  uncertainty k = 0.341608
         9        10        11        33     9        0.000000        1.388023         3    ;  uncertainty k = 0.233632
         9        10        11        33     9      180.000000        1.825533         4    ;  uncertainty k = 0.105979
        10         9         8        24     9        0.000000        0.069552         1    ;  uncertainty k = 0.099559
        10         9         8        24     9      180.000000       11.186840         2    ;  uncertainty k = 0.254091
        10         9         8        24     9        0.000000       -0.467660         3    ;  uncertainty k = 0.328122
        10         9         8        24     9      180.000000        0.910209         4    ;  uncertainty k = 0.270351
        10        11        12        13     9        0.000000        0.053176         1    ;  uncertainty k = 0.363886
        10        11        12        13     9      180.000000        8.749177         2    ;  uncertainty k = 0.377210
        10        11        12        13     9        0.000000        1.391988         3    ;  uncertainty k = 0.437491
        10        11        12        13     9      180.000000        1.885877         4    ;  uncertainty k = 0.185664
        10        11        12        24     9        0.000000       -0.254151         1    ;  uncertainty k = 0.241611
        10        11        12        24     9      180.000000       11.999558         2    ;  uncertainty k = 0.363798
        10        11        12        24     9        0.000000       -0.565308         3    ;  uncertainty k = 0.162798
        10        11        12        24     9      180.000000        0.833725         4    ;  uncertainty k = 0.272522
        11        10         9        31     9        0.000000        0.070628         1    ;  uncertainty k = 0.076364
        11        10         9        31     9      180.000000        7.708402         2    ;  uncertainty k = 0.246031
        11        10         9        31     9        0.000000        1.456289         3    ;  uncertainty k = 0.228039
        11        10         9        31     9      180.000000        1.826304         4    ;  uncertainty k = 0.220310
        11        12        13        14     9        0.000000       -0.343212         1    ;  uncertainty k = 0.834010
        11        12        13        14     9      180.000000        2.474859         2    ;  uncertainty k = 0.084668
        11        12        13        14     9        0.000000        0.269819         3    ;  uncertainty k = 0.246953
        11        12        13        14     9      180.000000        0.270690         4    ;  uncertainty k = 0.042204
        11        12        13        17     9        0.000000       -0.699230         1    ;  uncertainty k = 1.279313
        11        12        13        17     9      180.000000        2.708192         2    ;  uncertainty k = 0.421289
        11        12        13        17     9        0.000000        0.567685         3    ;  uncertainty k = 0.157429
        11        12        13        17     9      180.000000        0.364861         4    ;  uncertainty k = 0.105794
        11        12        13        22     9        0.000000        0.361938         1    ;  uncertainty k = 1.306954
        11        12        13        22     9      180.000000        1.033461         2    ;  uncertainty k = 0.267264
        11        12        13        22     9        0.000000        0.431795         3    ;  uncertainty k = 0.174944
        11        12        13        22     9      180.000000        0.282854         4    ;  uncertainty k = 0.174149
        11        12        24        44     9        0.000000        0.212920         1    ;  uncertainty k = 0.067097
        11        12        24        44     9      180.000000        7.776098         2    ;  uncertainty k = 0.484697
        11        12        24        44     9        0.000000        1.354100         3    ;  uncertainty k = 0.380604
        11        12        24        44     9      180.000000        1.681009         4    ;  uncertainty k = 0.204532
        12        11        10        32     9        0.000000        0.117967         1    ;  uncertainty k = 0.337797
        12        11        10        32     9      180.000000        7.343877         2    ;  uncertainty k = 0.284805
        12        11        10        32     9        0.000000        1.465143         3    ;  uncertainty k = 0.153606
        12        11        10        32     9      180.000000        1.829819         4    ;  uncertainty k = 0.156327
        12        13        14        15     9        0.000000        0.124131         1    ;  uncertainty k = 0.346666
        12        13        14        15     9      180.000000        0.919915         2    ;  uncertainty k = 0.325647
        12        13        14        15     9        0.000000        0.930500         3    ;  uncertainty k = 0.096210
        12        13        14        15     9      180.000000        0.154807         4    ;  uncertainty k = 0.118047
        12        13        14        16     9        0.000000        0.124131         1    ;  uncertainty k = 0.346666
        12        13        14        16     9      180.000000        0.919915         2    ;  uncertainty k = 0.325647
        12        13        14        16     9        0.000000        0.930500         3    ;  uncertainty k = 0.096210
        12        13        14        16     9      180.000000        0.154807         4    ;  uncertainty k = 0.118047
        12        13        14        34     9        0.000000       -0.184080         1    ;  uncertainty k = 0.869603
        12        13        14        34     9      180.000000        0.980165         2    ;  uncertainty k = 0.351885
        12        13        14        34     9        0.000000        1.262443         3    ;  uncertainty k = 0.214708
        12        13        14        34     9      180.000000        0.093460         4    ;  uncertainty k = 0.104840
        12        13        17        18     9        0.000000       -0.314554         1    ;  uncertainty k = 0.899073
        12        13        17        18     9      180.000000        1.056101         2    ;  uncertainty k = 0.497724
        12        13        17        18     9        0.000000        0.714234         3    ;  uncertainty k = 0.291353
        12        13        17        18     9      180.000000        0.470012         4    ;  uncertainty k = 0.235436
        12        13        17        39     9        0.000000        2.855321         1    ;  uncertainty k = 1.115834
        12        13        17        39     9      180.000000        0.428241         2    ;  uncertainty k = 0.917920
        12        13        17        39     9        0.000000        0.644843         3    ;  uncertainty k = 0.382449
        12        13        17        39     9      180.000000        0.075470         4    ;  uncertainty k = 0.107681
        12        13        22        20     9        0.000000       -2.355931         1    ;  uncertainty k = 3.263350
        12        13        22        20     9      180.000000        1.763973         2    ;  uncertainty k = 1.188759
        12        13        22        20     9        0.000000        1.153714         3    ;  uncertainty k = 0.534681
        12        13        22        20     9      180.000000        0.793154         4    ;  uncertainty k = 0.307446
        12        13        22        23     9        0.000000       -0.220821         1    ;  uncertainty k = 1.403176
        12        13        22        23     9      180.000000        3.458790         2    ;  uncertainty k = 0.428270
        12        13        22        23     9        0.000000        0.458758         3    ;  uncertainty k = 0.238474
        12        13        22        23     9      180.000000        0.076056         4    ;  uncertainty k = 0.219098
        13        12        11        33     9        0.000000       -0.463183         1    ;  uncertainty k = 0.271773
        13        12        11        33     9      180.000000        7.054816         2    ;  uncertainty k = 0.400628
        13        12        11        33     9        0.000000        0.651904         3    ;  uncertainty k = 0.322985
        13        12        11        33     9      180.000000        1.061026         4    ;  uncertainty k = 0.224003
        13        12        24        44     9        0.000000       -0.394453         1    ;  uncertainty k = 0.247381
        13        12        24        44     9      180.000000        7.158007         2    ;  uncertainty k = 0.418518
        13        12        24        44     9        0.000000        0.595502         3    ;  uncertainty k = 0.398704
        13        12        24        44     9      180.000000        1.113651         4    ;  uncertainty k = 0.239197
        13        14        15        16     9        0.000000       55.691288         1    ;  uncertainty k = 0.394240
        13        14        15        16     9      180.000000       -5.882489         2    ;  uncertainty k = 1.567145
        13        14        15        16     9        0.000000       -9.247568         3    ;  uncertainty k = 0.879303
        13        14        15        16     9      180.000000        6.395578         4    ;  uncertainty k = 0.338960
        13        14        15        35     9        0.000000        0.527766         1    ;  uncertainty k = 2.763917
        13        14        15        35     9      180.000000       -2.372610         2    ;  uncertainty k = 0.936022
        13        14        15        35     9        0.000000        0.376113         3    ;  uncertainty k = 0.345731
        13        14        15        35     9      180.000000       -0.938628         4    ;  uncertainty k = 0.210436
        13        14        15        36     9        0.000000        0.527765         1    ;  uncertainty k = 2.763918
        13        14        15        36     9      180.000000       -2.372610         2    ;  uncertainty k = 0.936021
        13        14        15        36     9        0.000000        0.376113         3    ;  uncertainty k = 0.345731
        13        14        15        36     9      180.000000       -0.938628         4    ;  uncertainty k = 0.210436
        13        14        16        15     9        0.000000       55.691288         1    ;  uncertainty k = 0.394240
        13        14        16        15     9      180.000000       -5.882489         2    ;  uncertainty k = 1.567145
        13        14        16        15     9        0.000000       -9.247568         3    ;  uncertainty k = 0.879303
        13        14        16        15     9      180.000000        6.395578         4    ;  uncertainty k = 0.338960
        13        14        16        37     9        0.000000        0.527765         1    ;  uncertainty k = 2.763918
        13        14        16        37     9      180.000000       -2.372610         2    ;  uncertainty k = 0.936021
        13        14        16        37     9        0.000000        0.376113         3    ;  uncertainty k = 0.345731
        13        14        16        37     9      180.000000       -0.938628         4    ;  uncertainty k = 0.210436
        13        14        16        38     9        0.000000        0.527765         1    ;  uncertainty k = 2.763918
        13        14        16        38     9      180.000000       -2.372610         2    ;  uncertainty k = 0.936021
        13        14        16        38     9        0.000000        0.376113         3    ;  uncertainty k = 0.345731
        13        14        16        38     9      180.000000       -0.938628         4    ;  uncertainty k = 0.210436
        13        17        18        19     9        0.000000        2.305645         1    ;  uncertainty k = 1.493473
        13        17        18        19     9      180.000000       10.718591         2    ;  uncertainty k = 0.864633
        13        17        18        19     9        0.000000        0.411368         3    ;  uncertainty k = 0.519111
        13        17        18        19     9      180.000000       -0.407368         4    ;  uncertainty k = 0.569375
        13        17        18        20     9        0.000000        1.156213         1    ;  uncertainty k = 1.563052
        13        17        18        20     9      180.000000       15.550314         2    ;  uncertainty k = 0.323936
        13        17        18        20     9        0.000000       -0.236120         3    ;  uncertainty k = 1.036179
        13        17        18        20     9      180.000000       -0.543248         4    ;  uncertainty k = 0.194757
        13        22        20        18     9        0.000000        2.808968         1    ;  uncertainty k = 1.846764
        13        22        20        18     9      180.000000        3.300355         2    ;  uncertainty k = 1.050341
        13        22        20        18     9        0.000000       -0.308801         3    ;  uncertainty k = 0.814077
        13        22        20        18     9      180.000000        0.768890         4    ;  uncertainty k = 0.231649
        13        22        20        21     9        0.000000        4.631721         1    ;  uncertainty k = 2.736875
        13        22        20        21     9      180.000000        4.943812         2    ;  uncertainty k = 1.192433
        13        22        20        21     9        0.000000        1.375169         3    ;  uncertainty k = 0.809666
        13        22        20        21     9      180.000000        0.130252         4    ;  uncertainty k = 0.431012
        14        13        12        24     9        0.000000       -0.345533         1    ;  uncertainty k = 0.729811
        14        13        12        24     9      180.000000        2.470867         2    ;  uncertainty k = 0.101610
        14        13        12        24     9        0.000000        0.222581         3    ;  uncertainty k = 0.286923
        14        13        12        24     9      180.000000        0.266080         4    ;  uncertainty k = 0.064694
        14        13        17        18     9        0.000000       -1.509215         1    ;  uncertainty k = 1.634998
        14        13        17        18     9      180.000000        1.373881         2    ;  uncertainty k = 0.587008
        14        13        17        18     9        0.000000        0.711481         3    ;  uncertainty k = 0.293319
        14        13        17        18     9      180.000000        0.343775         4    ;  uncertainty k = 0.070193
        14        13        17        39     9        0.000000        1.374577         1    ;  uncertainty k = 0.505484
        14        13        17        39     9      180.000000        0.095266         2    ;  uncertainty k = 1.462890
        14        13        17        39     9        0.000000        0.636442         3    ;  uncertainty k = 0.171229
        14        13        17        39     9      180.000000        0.200692         4    ;  uncertainty k = 0.082495
        14        13        22        20     9        0.000000       -4.710270         1    ;  uncertainty k = 2.423676
        14        13        22        20     9      180.000000        2.533546         2    ;  uncertainty k = 1.083368
        14        13        22        20     9        0.000000        0.891935         3    ;  uncertainty k = 0.220453
        14        13        22        20     9      180.000000        0.485228         4    ;  uncertainty k = 0.244815
        14        13        22        23     9        0.000000       -1.254501         1    ;  uncertainty k = 1.170688
        14        13        22        23     9      180.000000        3.913986         2    ;  uncertainty k = 0.980992
        14        13        22        23     9        0.000000        0.126175         3    ;  uncertainty k = 0.285229
        14        13        22        23     9      180.000000        0.109299         4    ;  uncertainty k = 0.165375
        14        15        16        37     9        0.000000       41.997795         1    ;  uncertainty k = 0.538440
        14        15        16        37     9      180.000000       -5.283548         2    ;  uncertainty k = 0.594258
        14        15        16        37     9        0.000000       -9.661772         3    ;  uncertainty k = 1.020602
        14        15        16        37     9      180.000000        4.456143         4    ;  uncertainty k = 0.290760
        14        15        16        38     9        0.000000       41.997795         1    ;  uncertainty k = 0.538440
        14        15        16        38     9      180.000000       -5.283548         2    ;  uncertainty k = 0.594258
        14        15        16        38     9        0.000000       -9.661772         3    ;  uncertainty k = 1.020602
        14        15        16        38     9      180.000000        4.456143         4    ;  uncertainty k = 0.290760
        14        16        15        35     9        0.000000       41.997787         1    ;  uncertainty k = 0.538440
        14        16        15        35     9      180.000000       -5.283550         2    ;  uncertainty k = 0.594257
        14        16        15        35     9        0.000000       -9.661771         3    ;  uncertainty k = 1.020600
        14        16        15        35     9      180.000000        4.456143         4    ;  uncertainty k = 0.290761
        14        16        15        36     9        0.000000       41.997795         1    ;  uncertainty k = 0.538440
        14        16        15        36     9      180.000000       -5.283548         2    ;  uncertainty k = 0.594258
        14        16        15        36     9        0.000000       -9.661772         3    ;  uncertainty k = 1.020602
        14        16        15        36     9      180.000000        4.456143         4    ;  uncertainty k = 0.290760
        15        14        13        17     9        0.000000       -0.552906         1    ;  uncertainty k = 0.547483
        15        14        13        17     9      180.000000       -0.565669         2    ;  uncertainty k = 0.361204
        15        14        13        17     9        0.000000        1.437083         3    ;  uncertainty k = 0.356686
        15        14        13        17     9      180.000000        0.070806         4    ;  uncertainty k = 0.152706
        15        14        13        22     9        0.000000       -0.233084         1    ;  uncertainty k = 0.557743
        15        14        13        22     9      180.000000        0.228842         2    ;  uncertainty k = 0.476467
        15        14        13        22     9        0.000000        0.500882         3    ;  uncertainty k = 0.312867
        15        14        13        22     9      180.000000       -0.034480         4    ;  uncertainty k = 0.127418
        15        14        16        37     9        0.000000       43.224163         1    ;  uncertainty k = 0.407746
        15        14        16        37     9      180.000000       -4.588787         2    ;  uncertainty k = 1.542579
        15        14        16        37     9        0.000000      -10.120758         3    ;  uncertainty k = 0.969735
        15        14        16        37     9      180.000000        4.930648         4    ;  uncertainty k = 0.129617
        15        14        16        38     9        0.000000       43.224163         1    ;  uncertainty k = 0.407746
        15        14        16        38     9      180.000000       -4.588787         2    ;  uncertainty k = 1.542579
        15        14        16        38     9        0.000000      -10.120758         3    ;  uncertainty k = 0.969735
        15        14        16        38     9      180.000000        4.930648         4    ;  uncertainty k = 0.129617
        15        16        14        34     9        0.000000       44.612975         1    ;  uncertainty k = 0.353264
        15        16        14        34     9      180.000000       -1.996065         2    ;  uncertainty k = 1.950391
        15        16        14        34     9        0.000000      -10.253677         3    ;  uncertainty k = 1.215937
        15        16        14        34     9      180.000000        5.302241         4    ;  uncertainty k = 0.482222
        16        14        13        17     9        0.000000       -0.552906         1    ;  uncertainty k = 0.547483
        16        14        13        17     9      180.000000       -0.565669         2    ;  uncertainty k = 0.361204
        16        14        13        17     9        0.000000        1.437083         3    ;  uncertainty k = 0.356686
        16        14        13        17     9      180.000000        0.070806         4    ;  uncertainty k = 0.152706
        16        14        13        22     9        0.000000       -0.233084         1    ;  uncertainty k = 0.557743
        16        14        13        22     9      180.000000        0.228842         2    ;  uncertainty k = 0.476467
        16        14        13        22     9        0.000000        0.500882         3    ;  uncertainty k = 0.312867
        16        14        13        22     9      180.000000       -0.034480         4    ;  uncertainty k = 0.127418
        16        14        15        35     9        0.000000       43.224167         1    ;  uncertainty k = 0.407746
        16        14        15        35     9      180.000000       -4.588788         2    ;  uncertainty k = 1.542575
        16        14        15        35     9        0.000000      -10.120757         3    ;  uncertainty k = 0.969735
        16        14        15        35     9      180.000000        4.930648         4    ;  uncertainty k = 0.129617
        16        14        15        36     9        0.000000       43.224163         1    ;  uncertainty k = 0.407746
        16        14        15        36     9      180.000000       -4.588787         2    ;  uncertainty k = 1.542579
        16        14        15        36     9        0.000000      -10.120758         3    ;  uncertainty k = 0.969735
        16        14        15        36     9      180.000000        4.930648         4    ;  uncertainty k = 0.129617
        16        15        14        34     9        0.000000       44.612975         1    ;  uncertainty k = 0.353264
        16        15        14        34     9      180.000000       -1.996065         2    ;  uncertainty k = 1.950391
        16        15        14        34     9        0.000000      -10.253677         3    ;  uncertainty k = 1.215937
        16        15        14        34     9      180.000000        5.302241         4    ;  uncertainty k = 0.482222
        17        13        12        24     9        0.000000       -0.462482         1    ;  uncertainty k = 1.285332
        17        13        12        24     9      180.000000        2.716521         2    ;  uncertainty k = 0.503961
        17        13        12        24     9        0.000000        0.511918         3    ;  uncertainty k = 0.127509
        17        13        12        24     9      180.000000        0.366708         4    ;  uncertainty k = 0.116716
        17        13        14        34     9        0.000000       -0.897307         1    ;  uncertainty k = 1.542189
        17        13        14        34     9      180.000000       -0.401231         2    ;  uncertainty k = 0.868617
        17        13        14        34     9        0.000000        1.105593         3    ;  uncertainty k = 0.163286
        17        13        14        34     9      180.000000       -0.134803         4    ;  uncertainty k = 0.174724
        17        13        22        20     9        0.000000       -0.033184         1    ;  uncertainty k = 2.595999
        17        13        22        20     9      180.000000        6.806053         2    ;  uncertainty k = 0.896168
        17        13        22        20     9        0.000000        0.460427         3    ;  uncertainty k = 0.494178
        17        13        22        20     9      180.000000        0.257600         4    ;  uncertainty k = 0.622849
        17        13        22        23     9        0.000000       -0.743217         1    ;  uncertainty k = 2.633392
        17        13        22        23     9      180.000000        2.412785         2    ;  uncertainty k = 1.265512
        17        13        22        23     9        0.000000        0.325437         3    ;  uncertainty k = 0.532331
        17        13        22        23     9      180.000000        0.468369         4    ;  uncertainty k = 0.080496
        17        18        19        40     9        0.000000        5.946407         1    ;  uncertainty k = 1.199838
        17        18        19        40     9      180.000000       10.275181         2    ;  uncertainty k = 0.360751
        17        18        19        40     9        0.000000        1.447708         3    ;  uncertainty k = 0.437250
        17        18        19        40     9      180.000000       -0.754945         4    ;  uncertainty k = 0.301542
        17        18        19        46     9        0.000000        5.946407         1    ;  uncertainty k = 1.199838
        17        18        19        46     9      180.000000       10.275181         2    ;  uncertainty k = 0.360751
        17        18        19        46     9        0.000000        1.447708         3    ;  uncertainty k = 0.437250
        17        18        19        46     9      180.000000       -0.754945         4    ;  uncertainty k = 0.301542
        17        18        20        21     9        0.000000       -0.354626         1    ;  uncertainty k = 2.503218
        17        18        20        21     9      180.000000        8.005336         2    ;  uncertainty k = 0.438807
        17        18        20        21     9        0.000000        0.243129         3    ;  uncertainty k = 0.218200
        17        18        20        21     9      180.000000       -0.112594         4    ;  uncertainty k = 0.236887
        17        18        20        22     9        0.000000       -0.138604         1    ;  uncertainty k = 1.579124
        17        18        20        22     9      180.000000        8.478538         2    ;  uncertainty k = 0.785688
        17        18        20        22     9        0.000000       -1.181184         3    ;  uncertainty k = 1.175418
        17        18        20        22     9      180.000000        0.015101         4    ;  uncertainty k = 0.452115
        18        17        13        22     9        0.000000        1.477252         1    ;  uncertainty k = 0.971545
        18        17        13        22     9      180.000000        2.266688         2    ;  uncertainty k = 1.057270
        18        17        13        22     9        0.000000        0.080075         3    ;  uncertainty k = 0.653199
        18        17        13        22     9      180.000000        0.483153         4    ;  uncertainty k = 0.366092
        18        20        21        41     9        0.000000       -0.383531         1    ;  uncertainty k = 0.528522
        18        20        21        41     9      180.000000       -1.086035         2    ;  uncertainty k = 0.435210
        18        20        21        41     9        0.000000        0.451587         3    ;  uncertainty k = 0.207353
        18        20        21        41     9      180.000000        0.189958         4    ;  uncertainty k = 0.051650
        18        20        21        42     9        0.000000       -0.383531         1    ;  uncertainty k = 0.528522
        18        20        21        42     9      180.000000       -1.086035         2    ;  uncertainty k = 0.435210
        18        20        21        42     9        0.000000        0.451587         3    ;  uncertainty k = 0.207353
        18        20        21        42     9      180.000000        0.189958         4    ;  uncertainty k = 0.051650
        18        20        21        43     9        0.000000       -0.383531         1    ;  uncertainty k = 0.528522
        18        20        21        43     9      180.000000       -1.086035         2    ;  uncertainty k = 0.435210
        18        20        21        43     9        0.000000        0.451587         3    ;  uncertainty k = 0.207353
        18        20        21        43     9      180.000000        0.189958         4    ;  uncertainty k = 0.051650
        18        20        22        23     9        0.000000        0.409975         1    ;  uncertainty k = 2.537849
        18        20        22        23     9      180.000000        7.689632         2    ;  uncertainty k = 0.719306
        18        20        22        23     9        0.000000        0.468454         3    ;  uncertainty k = 0.500936
        18        20        22        23     9      180.000000        0.049724         4    ;  uncertainty k = 0.270588
        19        18        17        39     9        0.000000        2.437605         1    ;  uncertainty k = 2.546321
        19        18        17        39     9      180.000000        7.841873         2    ;  uncertainty k = 1.085210
        19        18        17        39     9        0.000000        0.964729         3    ;  uncertainty k = 0.183569
        19        18        17        39     9      180.000000       -0.274988         4    ;  uncertainty k = 0.266490
        19        18        20        21     9        0.000000        0.040729         1    ;  uncertainty k = 0.688651
        19        18        20        21     9      180.000000        6.849005         2    ;  uncertainty k = 0.670727
        19        18        20        21     9        0.000000        0.944277         3    ;  uncertainty k = 0.712078
        19        18        20        21     9      180.000000       -0.000087         4    ;  uncertainty k = 0.304515
        19        18        20        22     9        0.000000       -0.587145         1    ;  uncertainty k = 0.741508
        19        18        20        22     9      180.000000        6.753547         2    ;  uncertainty k = 1.232536
        19        18        20        22     9        0.000000        0.172561         3    ;  uncertainty k = 0.701803
        19        18        20        22     9      180.000000       -0.071451         4    ;  uncertainty k = 0.465547
        20        18        17        39     9        0.000000        4.329568         1    ;  uncertainty k = 3.158571
        20        18        17        39     9      180.000000       10.930589         2    ;  uncertainty k = 0.637838
        20        18        17        39     9        0.000000        1.064631         3    ;  uncertainty k = 0.709812
        20        18        17        39     9      180.000000       -0.447107         4    ;  uncertainty k = 0.165906
        20        18        19        40     9        0.000000        7.494608         1    ;  uncertainty k = 1.970889
        20        18        19        40     9      180.000000        9.421081         2    ;  uncertainty k = 0.641279
        20        18        19        40     9        0.000000        0.993965         3    ;  uncertainty k = 0.510398
        20        18        19        40     9      180.000000       -0.952354         4    ;  uncertainty k = 0.236678
        20        18        19        46     9        0.000000        7.494608         1    ;  uncertainty k = 1.970889
        20        18        19        46     9      180.000000        9.421081         2    ;  uncertainty k = 0.641279
        20        18        19        46     9        0.000000        0.993965         3    ;  uncertainty k = 0.510398
        20        18        19        46     9      180.000000       -0.952354         4    ;  uncertainty k = 0.236678
        21        20        22        23     9        0.000000       -0.538000         1    ;  uncertainty k = 3.055170
        21        20        22        23     9      180.000000        8.216318         2    ;  uncertainty k = 0.440596
        21        20        22        23     9        0.000000        0.583622         3    ;  uncertainty k = 0.511356
        21        20        22        23     9      180.000000        0.214039         4    ;  uncertainty k = 0.224807
        22        13        12        24     9        0.000000        0.366841         1    ;  uncertainty k = 1.327335
        22        13        12        24     9      180.000000        1.027756         2    ;  uncertainty k = 0.209862
        22        13        12        24     9        0.000000        0.376879         3    ;  uncertainty k = 0.176138
        22        13        12        24     9      180.000000        0.297842         4    ;  uncertainty k = 0.170800
        22        13        14        34     9        0.000000        0.743877         1    ;  uncertainty k = 1.366604
        22        13        14        34     9      180.000000       -0.499524         2    ;  uncertainty k = 0.309601
        22        13        14        34     9        0.000000        0.507012         3    ;  uncertainty k = 0.234143
        22        13        14        34     9      180.000000        0.046601         4    ;  uncertainty k = 0.093966
        22        13        17        39     9        0.000000        0.152251         1    ;  uncertainty k = 2.647373
        22        13        17        39     9      180.000000       -0.088867         2    ;  uncertainty k = 1.682950
        22        13        17        39     9        0.000000        0.340119         3    ;  uncertainty k = 0.403307
        22        13        17        39     9      180.000000        0.010664         4    ;  uncertainty k = 0.098531
        22        20        21        41     9        0.000000        0.266638         1    ;  uncertainty k = 0.441703
        22        20        21        41     9      180.000000        0.068445         2    ;  uncertainty k = 0.239611
        22        20        21        41     9        0.000000        0.368367         3    ;  uncertainty k = 0.211351
        22        20        21        41     9      180.000000        0.305973         4    ;  uncertainty k = 0.064879
        22        20        21        42     9        0.000000        0.266638         1    ;  uncertainty k = 0.441703
        22        20        21        42     9      180.000000        0.068445         2    ;  uncertainty k = 0.239611
        22        20        21        42     9        0.000000        0.368367         3    ;  uncertainty k = 0.211351
        22        20        21        42     9      180.000000        0.305973         4    ;  uncertainty k = 0.064879
        22        20        21        43     9        0.000000        0.266638         1    ;  uncertainty k = 0.441703
        22        20        21        43     9      180.000000        0.068445         2    ;  uncertainty k = 0.239611
        22        20        21        43     9        0.000000        0.368367         3    ;  uncertainty k = 0.211351
        22        20        21        43     9      180.000000        0.305973         4    ;  uncertainty k = 0.064879
        24         8         7        25     9        0.000000       -0.105920         1    ;  uncertainty k = 0.386198
        24         8         7        25     9      180.000000        3.916657         2    ;  uncertainty k = 0.211896
        24         8         7        25     9        0.000000        0.240404         3    ;  uncertainty k = 0.192558
        24         8         7        25     9      180.000000       -0.033490         4    ;  uncertainty k = 0.053869
        24         8         9        31     9        0.000000        0.186409         1    ;  uncertainty k = 0.199749
        24         8         9        31     9      180.000000        6.951825         2    ;  uncertainty k = 0.449738
        24         8         9        31     9        0.000000        1.430348         3    ;  uncertainty k = 0.279896
        24         8         9        31     9      180.000000        1.617266         4    ;  uncertainty k = 0.249546
        24        12        11        33     9        0.000000        0.224688         1    ;  uncertainty k = 0.113060
        24        12        11        33     9      180.000000        7.595616         2    ;  uncertainty k = 0.534211
        24        12        11        33     9        0.000000        1.342578         3    ;  uncertainty k = 0.376080
        24        12        11        33     9      180.000000        1.664294         4    ;  uncertainty k = 0.223058
        25         3         4        29     9        0.000000       -0.095753         1    ;  uncertainty k = 0.434844
        25         3         4        29     9      180.000000        4.532156         2    ;  uncertainty k = 0.694058
        25         3         4        29     9        0.000000        1.087875         3    ;  uncertainty k = 0.161104
        25         3         4        29     9      180.000000        1.247558         4    ;  uncertainty k = 0.186251
        25         7         6        30     9        0.000000       -0.122293         1    ;  uncertainty k = 0.467442
        25         7         6        30     9      180.000000        5.486509         2    ;  uncertainty k = 0.711567
        25         7         6        30     9        0.000000        1.108979         3    ;  uncertainty k = 0.244475
        25         7         6        30     9      180.000000        1.407111         4    ;  uncertainty k = 0.175340
        31         9        10        32     9        0.000000       -0.095532         1    ;  uncertainty k = 0.212367
        31         9        10        32     9      180.000000        7.973048         2    ;  uncertainty k = 0.297952
        31         9        10        32     9        0.000000       -0.492866         3    ;  uncertainty k = 0.271198
        31         9        10        32     9      180.000000        0.115954         4    ;  uncertainty k = 0.147408
        32        10        11        33     9        0.000000       -0.102800         1    ;  uncertainty k = 0.340792
        32        10        11        33     9      180.000000        7.837233         2    ;  uncertainty k = 0.295465
        32        10        11        33     9        0.000000       -0.503661         3    ;  uncertainty k = 0.314922
        32        10        11        33     9      180.000000        0.124006         4    ;  uncertainty k = 0.179406
        34        14        15        35     9        0.000000        1.112902         1    ;  uncertainty k = 1.312837
        34        14        15        35     9      180.000000       -1.597056         2    ;  uncertainty k = 0.788588
        34        14        15        35     9        0.000000        0.801310         3    ;  uncertainty k = 0.273126
        34        14        15        35     9      180.000000       -0.760755         4    ;  uncertainty k = 0.075360
        34        14        15        36     9        0.000000        1.112901         1    ;  uncertainty k = 1.312836
        34        14        15        36     9      180.000000       -1.597057         2    ;  uncertainty k = 0.788587
        34        14        15        36     9        0.000000        0.801310         3    ;  uncertainty k = 0.273127
        34        14        15        36     9      180.000000       -0.760755         4    ;  uncertainty k = 0.075359
        34        14        16        37     9        0.000000        1.112901         1    ;  uncertainty k = 1.312836
        34        14        16        37     9      180.000000       -1.597057         2    ;  uncertainty k = 0.788587
        34        14        16        37     9        0.000000        0.801310         3    ;  uncertainty k = 0.273127
        34        14        16        37     9      180.000000       -0.760755         4    ;  uncertainty k = 0.075359
        34        14        16        38     9        0.000000        1.112901         1    ;  uncertainty k = 1.312836
        34        14        16        38     9      180.000000       -1.597057         2    ;  uncertainty k = 0.788587
        34        14        16        38     9        0.000000        0.801310         3    ;  uncertainty k = 0.273127
        34        14        16        38     9      180.000000       -0.760755         4    ;  uncertainty k = 0.075359
        35        15        16        37     9        0.000000        0.219093         1    ;  uncertainty k = 0.548234
        35        15        16        37     9      180.000000       -1.119394         2    ;  uncertainty k = 0.862492
        35        15        16        37     9        0.000000        0.928973         3    ;  uncertainty k = 0.329710
        35        15        16        37     9      180.000000       -0.633440         4    ;  uncertainty k = 0.121162
        35        15        16        38     9        0.000000        0.219093         1    ;  uncertainty k = 0.548234
        35        15        16        38     9      180.000000       -1.119394         2    ;  uncertainty k = 0.862492
        35        15        16        38     9        0.000000        0.928973         3    ;  uncertainty k = 0.329710
        35        15        16        38     9      180.000000       -0.633440         4    ;  uncertainty k = 0.121162
        36        15        16        37     9        0.000000        0.219093         1    ;  uncertainty k = 0.548233
        36        15        16        37     9      180.000000       -1.119397         2    ;  uncertainty k = 0.862491
        36        15        16        37     9        0.000000        0.928973         3    ;  uncertainty k = 0.329710
        36        15        16        37     9      180.000000       -0.633440         4    ;  uncertainty k = 0.121161
        36        15        16        38     9        0.000000        0.219093         1    ;  uncertainty k = 0.548233
        36        15        16        38     9      180.000000       -1.119397         2    ;  uncertainty k = 0.862491
        36        15        16        38     9        0.000000        0.928973         3    ;  uncertainty k = 0.329710
        36        15        16        38     9      180.000000       -0.633440         4    ;  uncertainty k = 0.121161

[ dihedrals ] ; impropers
;       ai        aj        ak        al funct           phase               k        pn
         3         2         4        25     4      180.000000       19.018404         2    ;  uncertainty k = 0.117797
         3         4        25         2     4      180.000000       19.018404         2    ;  uncertainty k = 0.117797
         3        25         2         4     4      180.000000       19.018404         2    ;  uncertainty k = 0.117797
         4         3         5        29     4      180.000000       10.641714         2    ;  uncertainty k = 0.095154
         4         5        29         3     4      180.000000       10.641714         2    ;  uncertainty k = 0.095154
         4        29         3         5     4      180.000000       10.641714         2    ;  uncertainty k = 0.095154
         6         5         7        30     4      180.000000       12.288433         2    ;  uncertainty k = 0.049113
         6         7        30         5     4      180.000000       12.288433         2    ;  uncertainty k = 0.049113
         6        30         5         7     4      180.000000       12.288433         2    ;  uncertainty k = 0.049113
         7         6         8        25     4      180.000000       13.932379         2    ;  uncertainty k = 0.080902
         7         8        25         6     4      180.000000       13.932379         2    ;  uncertainty k = 0.080902
         7        25         6         8     4      180.000000       13.932379         2    ;  uncertainty k = 0.080902
         8         7         9        24     4      180.000000       15.142216         2    ;  uncertainty k = 0.042417
         8         9        24         7     4      180.000000       15.142216         2    ;  uncertainty k = 0.042417
         8        24         7         9     4      180.000000       15.142216         2    ;  uncertainty k = 0.042417
         9         8        10        31     4      180.000000        4.386894         2    ;  uncertainty k = 0.137794
         9        10        31         8     4      180.000000        4.386894         2    ;  uncertainty k = 0.137794
         9        31         8        10     4      180.000000        4.386894         2    ;  uncertainty k = 0.137794
        10         9        11        32     4      180.000000        4.013211         2    ;  uncertainty k = 0.092194
        10        11        32         9     4      180.000000        4.013211         2    ;  uncertainty k = 0.092194
        10        32         9        11     4      180.000000        4.013211         2    ;  uncertainty k = 0.092194
        11        10        12        33     4      180.000000        3.735094         2    ;  uncertainty k = 0.215510
        11        12        33        10     4      180.000000        3.735094         2    ;  uncertainty k = 0.215510
        11        33        10        12     4      180.000000        3.735094         2    ;  uncertainty k = 0.215510
        12        11        13        24     4      180.000000       11.038880         2    ;  uncertainty k = 0.200619
        12        13        24        11     4      180.000000       11.038880         2    ;  uncertainty k = 0.200619
        12        24        11        13     4      180.000000       11.038880         2    ;  uncertainty k = 0.200619
        18        17        19        20     4      180.000000       30.611211         2    ;  uncertainty k = 0.136444
        18        19        20        17     4      180.000000       30.611211         2    ;  uncertainty k = 0.136444
        18        20        17        19     4      180.000000       30.611211         2    ;  uncertainty k = 0.136444
        19        18        40        46     4      180.000000        0.046824         2    ;  uncertainty k = 0.104702
        19        40        46        18     4      180.000000        0.046824         2    ;  uncertainty k = 0.104702
        19        46        18        40     4      180.000000        0.046824         2    ;  uncertainty k = 0.104702
        20        18        21        22     4      180.000000        1.740987         2    ;  uncertainty k = 0.618488
        20        21        22        18     4      180.000000        1.740987         2    ;  uncertainty k = 0.618488
        20        22        18        21     4      180.000000        1.740987         2    ;  uncertainty k = 0.618488
        22        13        20        23     4      180.000000       50.502757         2    ;  uncertainty k = 0.034923
        22        20        23        13     4      180.000000       50.502757         2    ;  uncertainty k = 0.034923
        22        23        13        20     4      180.000000       50.502757         2    ;  uncertainty k = 0.034923
        24         8        12        44     4      180.000000        4.196055         2    ;  uncertainty k = 0.240371
        24        12        44         8     4      180.000000        4.196055         2    ;  uncertainty k = 0.240371
        24        44         8        12     4      180.000000        4.196055         2    ;  uncertainty k = 0.240371
        25         3         7        45     4      180.000000        3.808404         2    ;  uncertainty k = 0.223351
        25         7        45         3     4      180.000000        3.808404         2    ;  uncertainty k = 0.223351
        25        45         3         7     4      180.000000        3.808404         2    ;  uncertainty k = 0.223351

[ pairs ]
;       ai        aj funct
         1         4     1
         1        25     1
         2         5     1
         2         7     1
         2        29     1
         2        45     1
         3         6     1
         3         8     1
         3        26     1
         3        27     1
         3        28     1
         4         7     1
         4        30     1
         4        45     1
         5         8     1
         5        25     1
         6         9     1
         6        24     1
         6        29     1
         6        45     1
         7        10     1
         7        12     1
         7        31     1
         7        44     1
         8        11     1
         8        13     1
         8        30     1
         8        32     1
         8        45     1
         9        12     1
         9        25     1
         9        33     1
         9        44     1
        10        13     1
        10        24     1
        11        14     1
        11        17     1
        11        22     1
        11        31     1
        11        44     1
        12        15     1
        12        16     1
        12        18     1
        12        20     1
        12        23     1
        12        32     1
        12        34     1
        12        39     1
        13        19     1
        13        21     1
        13        33     1
        13        35     1
        13        36     1
        13        37     1
        13        38     1
        13        44     1
        14        18     1
        14        20     1
        14        23     1
        14        24     1
        14        39     1
        15        17     1
        15        22     1
        16        17     1
        16        22     1
        17        21     1
        17        23     1
        17        24     1
        17        34     1
        17        40     1
        17        46     1
        18        23     1
        18        41     1
        18        42     1
        18        43     1
        19        21     1
        19        22     1
        19        39     1
        20        39     1
        20        40     1
        20        46     1
        21        23     1
        22        24     1
        22        34     1
        22        39     1
        22        41     1
        22        42     1
        22        43     1
        24        25     1
        24        31     1
        24        33     1
        25        29     1
        25        30     1
        31        32     1
        32        33     1
        34        35     1
        34        36     1
        34        37     1
        34        38     1
        35        37     1
        35        38     1
        36        37     1
        36        38     1
