; ITP file created by ByteFF-joint-25, 2026-02-18 03:16:11.656706

[ atomtypes ]
;name           bonded.type        at.num        mass        charge   ptype           sigma         epsilon
 c0bf                                   6      0.0000       0.00000       A     3.39732e-01     4.51259e-01    ;  uncertainty sigma = 0.000013, epsilon = 0.001277
 n1bf                                   7      0.0000       0.00000       A     3.18102e-01     6.84284e-01    ;  uncertainty sigma = 0.000077, epsilon = 0.007853
 c2bf                                   6      0.0000       0.00000       A     3.31509e-01     4.12520e-01    ;  uncertainty sigma = 0.000052, epsilon = 0.001589
 n3bf                                   7      0.0000       0.00000       A     3.36545e-01     4.71561e-01    ;  uncertainty sigma = 0.000086, epsilon = 0.005571
 n4bf                                   7      0.0000       0.00000       A     3.27654e-01     6.57129e-01    ;  uncertainty sigma = 0.000092, epsilon = 0.012470
 c5bf                                   6      0.0000       0.00000       A     3.39769e-01     4.51954e-01    ;  uncertainty sigma = 0.000049, epsilon = 0.002025
 c6bf                                   6      0.0000       0.00000       A     3.31595e-01     4.13791e-01    ;  uncertainty sigma = 0.000032, epsilon = 0.001211
 c7bf                                   6      0.0000       0.00000       A     3.31512e-01     4.13282e-01    ;  uncertainty sigma = 0.000002, epsilon = 0.000616
 c8bf                                   6      0.0000       0.00000       A     3.31522e-01     4.13316e-01    ;  uncertainty sigma = 0.000003, epsilon = 0.000635
 c9bf                                   6      0.0000       0.00000       A     3.31513e-01     4.13269e-01    ;  uncertainty sigma = 0.000005, epsilon = 0.000649
 c10bf                                  6      0.0000       0.00000       A     3.31498e-01     4.13546e-01    ;  uncertainty sigma = 0.000008, epsilon = 0.000548
 c11bf                                  6      0.0000       0.00000       A     3.31513e-01     4.13167e-01    ;  uncertainty sigma = 0.000009, epsilon = 0.000575
 c12bf                                  6      0.0000       0.00000       A     3.31511e-01     4.13320e-01    ;  uncertainty sigma = 0.000005, epsilon = 0.000665
 c13bf                                  6      0.0000       0.00000       A     3.31521e-01     4.13375e-01    ;  uncertainty sigma = 0.000003, epsilon = 0.000656
 c14bf                                  6      0.0000       0.00000       A     3.31522e-01     4.13446e-01    ;  uncertainty sigma = 0.000004, epsilon = 0.000552
 c15bf                                  6      0.0000       0.00000       A     3.31526e-01     4.13122e-01    ;  uncertainty sigma = 0.000006, epsilon = 0.000502
 cl16bf                                17      0.0000       0.00000       A     3.46610e-01     1.10414e+00    ;  uncertainty sigma = 0.000013, epsilon = 0.001445
 c17bf                                  6      0.0000       0.00000       A     3.31523e-01     4.13401e-01    ;  uncertainty sigma = 0.000007, epsilon = 0.000655
 c18bf                                  6      0.0000       0.00000       A     3.31525e-01     4.13226e-01    ;  uncertainty sigma = 0.000019, epsilon = 0.001123
 c19bf                                  6      0.0000       0.00000       A     3.31492e-01     4.12323e-01    ;  uncertainty sigma = 0.000020, epsilon = 0.002724
 n20bf                                  7      0.0000       0.00000       A     3.38479e-01     3.94234e-01    ;  uncertainty sigma = 0.000022, epsilon = 0.001087
 c21bf                                  6      0.0000       0.00000       A     3.31523e-01     4.13720e-01    ;  uncertainty sigma = 0.000012, epsilon = 0.000199
 c22bf                                  6      0.0000       0.00000       A     3.31522e-01     4.12923e-01    ;  uncertainty sigma = 0.000016, epsilon = 0.000586
 s23bf                                 16      0.0000       0.00000       A     3.53272e-01     1.18114e+00    ;  uncertainty sigma = 0.000019, epsilon = 0.002571
 c24bf                                  6      0.0000       0.00000       A     3.31545e-01     4.13946e-01    ;  uncertainty sigma = 0.000012, epsilon = 0.000466
 o25bf                                  8      0.0000       0.00000       A     3.04819e-01     6.11855e-01    ;  uncertainty sigma = 0.000060, epsilon = 0.002309
 h26bf                                  1      0.0000       0.00000       A     2.42208e-01     8.66970e-02    ;  uncertainty sigma = 0.000028, epsilon = 0.000664
 h27bf                                  1      0.0000       0.00000       A     2.42208e-01     8.66970e-02    ;  uncertainty sigma = 0.000028, epsilon = 0.000664
 h28bf                                  1      0.0000       0.00000       A     2.42208e-01     8.66970e-02    ;  uncertainty sigma = 0.000028, epsilon = 0.000664
 h29bf                                  1      0.0000       0.00000       A     1.10696e-01     4.12787e-02    ;  uncertainty sigma = 0.000128, epsilon = 0.001559
 h30bf                                  1      0.0000       0.00000       A     1.10558e-01     4.04306e-02    ;  uncertainty sigma = 0.000182, epsilon = 0.001705
 h31bf                                  1      0.0000       0.00000       A     2.62558e-01     6.70851e-02    ;  uncertainty sigma = 0.000007, epsilon = 0.000432
 h32bf                                  1      0.0000       0.00000       A     2.62564e-01     6.70137e-02    ;  uncertainty sigma = 0.000010, epsilon = 0.000418
 h33bf                                  1      0.0000       0.00000       A     2.62562e-01     6.70409e-02    ;  uncertainty sigma = 0.000012, epsilon = 0.000507
 h34bf                                  1      0.0000       0.00000       A     2.62562e-01     6.70409e-02    ;  uncertainty sigma = 0.000012, epsilon = 0.000507
 h35bf                                  1      0.0000       0.00000       A     2.62568e-01     6.69666e-02    ;  uncertainty sigma = 0.000007, epsilon = 0.000468
 h36bf                                  1      0.0000       0.00000       A     2.62560e-01     6.70939e-02    ;  uncertainty sigma = 0.000009, epsilon = 0.000590
 h37bf                                  1      0.0000       0.00000       A     2.62559e-01     6.71672e-02    ;  uncertainty sigma = 0.000013, epsilon = 0.000620
 h38bf                                  1      0.0000       0.00000       A     2.62549e-01     6.72385e-02    ;  uncertainty sigma = 0.000014, epsilon = 0.000672
 h39bf                                  1      0.0000       0.00000       A     2.53649e-01     6.70548e-02    ;  uncertainty sigma = 0.000041, epsilon = 0.000645
 h40bf                                  1      0.0000       0.00000       A     2.53613e-01     6.67038e-02    ;  uncertainty sigma = 0.000033, epsilon = 0.000501
 h41bf                                  1      0.0000       0.00000       A     1.10696e-01     4.12786e-02    ;  uncertainty sigma = 0.000128, epsilon = 0.001560

[ moleculetype ]
;name             nrexcl
 MOL                   3

[ atoms ]
;       nr            type      resi   res      atom      cgnr      charge          mass ; qtot
         1            c0bf         1   UNL        c0         1     0.07539       12.0110 ; qtot    0.075
         2            n1bf         1   UNL        n1         2    -0.41209       14.0070 ; qtot   -0.337
         3            c2bf         1   UNL        c2         3     0.46787       12.0110 ; qtot    0.131
         4            n3bf         1   UNL        n3         4    -0.47631       14.0070 ; qtot   -0.345
         5            n4bf         1   UNL        n4         5    -0.36875       14.0070 ; qtot   -0.714
         6            c5bf         1   UNL        c5         6     0.00309       12.0110 ; qtot   -0.711
         7            c6bf         1   UNL        c6         7    -0.13994       12.0110 ; qtot   -0.851
         8            c7bf         1   UNL        c7         8    -0.08831       12.0110 ; qtot   -0.939
         9            c8bf         1   UNL        c8         9    -0.10838       12.0110 ; qtot   -1.047
        10            c9bf         1   UNL        c9        10    -0.09222       12.0110 ; qtot   -1.140
        11           c10bf         1   UNL       c10        11    -0.01387       12.0110 ; qtot   -1.154
        12           c11bf         1   UNL       c11        12    -0.03553       12.0110 ; qtot   -1.189
        13           c12bf         1   UNL       c12        13    -0.11891       12.0110 ; qtot   -1.308
        14           c13bf         1   UNL       c13        14    -0.12274       12.0110 ; qtot   -1.431
        15           c14bf         1   UNL       c14        15    -0.11373       12.0110 ; qtot   -1.544
        16           c15bf         1   UNL       c15        16     0.03067       12.0110 ; qtot   -1.514
        17          cl16bf         1   UNL      cl16        17    -0.11712       35.4530 ; qtot   -1.631
        18           c17bf         1   UNL       c17        18    -0.11226       12.0110 ; qtot   -1.743
        19           c18bf         1   UNL       c18        19    -0.07478       12.0110 ; qtot   -1.818
        20           c19bf         1   UNL       c19        20     0.32906       12.0110 ; qtot   -1.489
        21           n20bf         1   UNL       n20        21    -0.65115       14.0070 ; qtot   -2.140
        22           c21bf         1   UNL       c21        22     0.35576       12.0110 ; qtot   -1.784
        23           c22bf         1   UNL       c22        23    -0.16974       12.0110 ; qtot   -1.954
        24           s23bf         1   UNL       s23        24    -0.04168       32.0670 ; qtot   -1.996
        25           c24bf         1   UNL       c24        25     0.71169       12.0110 ; qtot   -1.284
        26           o25bf         1   UNL       o25        26    -0.43490       15.9990 ; qtot   -1.719
        27           h26bf         1   UNL       h26        27     0.09066        1.0080 ; qtot   -1.628
        28           h27bf         1   UNL       h27        28     0.09066        1.0080 ; qtot   -1.538
        29           h28bf         1   UNL       h28        29     0.09066        1.0080 ; qtot   -1.447
        30           h29bf         1   UNL       h29        30     0.33576        1.0080 ; qtot   -1.111
        31           h30bf         1   UNL       h30        31     0.36342        1.0080 ; qtot   -0.748
        32           h31bf         1   UNL       h31        32     0.14918        1.0080 ; qtot   -0.599
        33           h32bf         1   UNL       h32        33     0.14811        1.0080 ; qtot   -0.450
        34           h33bf         1   UNL       h33        34     0.13653        1.0080 ; qtot   -0.314
        35           h34bf         1   UNL       h34        35     0.13932        1.0080 ; qtot   -0.175
        36           h35bf         1   UNL       h35        36     0.13920        1.0080 ; qtot   -0.035
        37           h36bf         1   UNL       h36        37     0.15171        1.0080 ; qtot    0.116
        38           h37bf         1   UNL       h37        38     0.15143        1.0080 ; qtot    0.268
        39           h38bf         1   UNL       h38        39     0.15093        1.0080 ; qtot    0.419
        40           h39bf         1   UNL       h39        40     0.05631        1.0080 ; qtot    0.475
        41           h40bf         1   UNL       h40        41     0.18927        1.0080 ; qtot    0.664
        42           h41bf         1   UNL       h41        42     0.33573        1.0080 ; qtot    1.000

[ bonds ]
;       ai        aj funct               r               k
         1         2     1        0.146739   260101.741113    ;  uncertainty r = 0.000129, k = 14.308020
         1        27     1        0.109173   309409.915527    ;  uncertainty r = 0.000045, k = 3.086925
         1        28     1        0.109173   309409.915527    ;  uncertainty r = 0.000045, k = 3.086925
         1        29     1        0.109173   309409.915527    ;  uncertainty r = 0.000045, k = 3.086925
         2         3     1        0.135616   278630.752637    ;  uncertainty r = 0.000185, k = 46.400557
         2        25     1        0.142527   294942.938770    ;  uncertainty r = 0.000371, k = 72.802171
         3         4     1        0.132852   305365.680127    ;  uncertainty r = 0.000230, k = 36.241432
         3         5     1        0.133803   534562.539160    ;  uncertainty r = 0.000130, k = 52.572766
         4        30     1        0.101398   420830.724219    ;  uncertainty r = 0.000072, k = 12.263398
         4        42     1        0.101398   420830.673145    ;  uncertainty r = 0.000072, k = 12.263396
         5         6     1        0.149057   217795.739941    ;  uncertainty r = 0.000209, k = 74.097351
         5        31     1        0.101595   425626.031543    ;  uncertainty r = 0.000024, k = 7.906632
         6         7     1        0.150656   205308.655273    ;  uncertainty r = 0.000226, k = 22.403012
         6        20     1        0.150268   223389.235156    ;  uncertainty r = 0.000309, k = 21.628884
         6        25     1        0.154576   183706.137720    ;  uncertainty r = 0.000194, k = 18.129685
         7         8     1        0.139673   347633.069189    ;  uncertainty r = 0.000055, k = 6.618041
         7        19     1        0.139500   342374.646387    ;  uncertainty r = 0.000083, k = 6.268805
         8         9     1        0.139480   368596.022607    ;  uncertainty r = 0.000038, k = 1.678432
         8        32     1        0.108759   332721.721191    ;  uncertainty r = 0.000034, k = 3.116493
         9        10     1        0.139323   371265.237891    ;  uncertainty r = 0.000028, k = 2.648707
         9        33     1        0.108770   333099.798096    ;  uncertainty r = 0.000024, k = 1.114194
        10        11     1        0.140090   347343.503906    ;  uncertainty r = 0.000014, k = 0.932924
        10        34     1        0.108820   334865.306152    ;  uncertainty r = 0.000023, k = 0.943333
        11        12     1        0.147937   271412.739746    ;  uncertainty r = 0.000041, k = 4.413683
        11        19     1        0.139766   337666.318457    ;  uncertainty r = 0.000049, k = 2.531251
        12        13     1        0.140235   345940.929248    ;  uncertainty r = 0.000017, k = 2.209472
        12        18     1        0.140145   349973.877246    ;  uncertainty r = 0.000025, k = 1.038770
        13        14     1        0.139452   367068.213965    ;  uncertainty r = 0.000025, k = 1.779929
        13        35     1        0.108805   334917.401855    ;  uncertainty r = 0.000025, k = 0.881864
        14        15     1        0.139500   374338.220410    ;  uncertainty r = 0.000020, k = 1.415152
        14        36     1        0.108776   333408.771582    ;  uncertainty r = 0.000008, k = 1.051669
        15        16     1        0.139473   361470.709424    ;  uncertainty r = 0.000016, k = 2.291888
        15        37     1        0.108715   335671.742529    ;  uncertainty r = 0.000009, k = 0.604869
        16        17     1        0.175805   197124.279858    ;  uncertainty r = 0.000030, k = 2.861100
        16        18     1        0.139310   357391.896777    ;  uncertainty r = 0.000022, k = 1.821628
        18        38     1        0.108730   336354.375000    ;  uncertainty r = 0.000018, k = 1.108084
        19        39     1        0.108798   333192.063672    ;  uncertainty r = 0.000018, k = 2.371610
        20        21     1        0.130168   448812.756445    ;  uncertainty r = 0.000144, k = 7.229729
        20        24     1        0.173595   167291.803149    ;  uncertainty r = 0.000212, k = 17.840208
        21        22     1        0.137622   307868.367920    ;  uncertainty r = 0.000114, k = 9.653226
        22        23     1        0.137064   430359.028320    ;  uncertainty r = 0.000039, k = 4.989297
        22        40     1        0.108547   335807.114746    ;  uncertainty r = 0.000046, k = 3.473809
        23        24     1        0.172785   193708.819165    ;  uncertainty r = 0.000089, k = 5.871535
        23        41     1        0.108447   343521.185986    ;  uncertainty r = 0.000014, k = 1.046308
        25        26     1        0.119896   622051.603320    ;  uncertainty r = 0.000155, k = 13.876051

[ angles ]
;       ai        aj        ak funct           theta             cth
         1         2         3     1      118.666428      374.296965    ;  uncertainty theta = 0.006735, k = 0.415054
         1         2        25     1      118.923386      402.101068    ;  uncertainty theta = 0.007832, k = 0.238625
         2         1        27     1      107.322495      469.797104    ;  uncertainty theta = 0.002591, k = 0.225454
         2         1        28     1      107.322495      469.797104    ;  uncertainty theta = 0.002591, k = 0.225454
         2         1        29     1      107.322495      469.797104    ;  uncertainty theta = 0.002591, k = 0.225454
         2         3         4     1      125.887573      536.344033    ;  uncertainty theta = 0.010152, k = 0.299554
         2         3         5     1      113.487854      698.588057    ;  uncertainty theta = 0.010013, k = 0.282833
         2        25         6     1      109.258438      481.594833    ;  uncertainty theta = 0.009209, k = 0.671773
         2        25        26     1      125.929947      652.909701    ;  uncertainty theta = 0.011626, k = 0.138622
         3         2        25     1      110.413162      703.342173    ;  uncertainty theta = 0.009642, k = 0.205415
         3         4        30     1      114.851913      367.712158    ;  uncertainty theta = 0.004399, k = 0.199559
         3         4        42     1      114.851913      367.712158    ;  uncertainty theta = 0.004399, k = 0.199559
         3         5         6     1      111.433548      601.494307    ;  uncertainty theta = 0.019269, k = 0.454628
         3         5        31     1      119.522705      346.379861    ;  uncertainty theta = 0.012723, k = 0.229393
         4         3         5     1      128.572235      638.098178    ;  uncertainty theta = 0.010693, k = 0.264588
         5         6         7     1      111.124802      613.230524    ;  uncertainty theta = 0.003969, k = 0.243855
         5         6        20     1      107.687828      556.018844    ;  uncertainty theta = 0.008636, k = 0.191339
         5         6        25     1      103.181442      909.165145    ;  uncertainty theta = 0.007583, k = 0.425780
         6         5        31     1      117.184570      298.745555    ;  uncertainty theta = 0.007900, k = 0.453839
         6         7         8     1      116.501846      371.287002    ;  uncertainty theta = 0.007709, k = 0.214612
         6         7        19     1      115.983475      374.486291    ;  uncertainty theta = 0.006435, k = 0.157164
         6        20        21     1      119.388771      371.186386    ;  uncertainty theta = 0.009430, k = 0.130942
         6        20        24     1      117.076675      297.955852    ;  uncertainty theta = 0.009924, k = 0.320273
         6        25        26     1      125.196800      417.001811    ;  uncertainty theta = 0.009803, k = 0.211455
         7         6        20     1      112.083031      481.684979    ;  uncertainty theta = 0.004884, k = 0.215146
         7         6        25     1      109.573914      479.084791    ;  uncertainty theta = 0.012763, k = 0.116949
         7         8         9     1      120.068665      510.075254    ;  uncertainty theta = 0.004452, k = 0.057807
         7         8        32     1      118.556740      273.927985    ;  uncertainty theta = 0.004208, k = 0.077771
         7        19        11     1      122.144913      508.358713    ;  uncertainty theta = 0.003704, k = 0.194165
         7        19        39     1      118.182785      274.458104    ;  uncertainty theta = 0.003597, k = 0.058621
         8         7        19     1      123.803268      431.748311    ;  uncertainty theta = 0.007383, k = 0.233010
         8         9        10     1      120.258743      507.648271    ;  uncertainty theta = 0.002632, k = 0.088454
         8         9        33     1      119.717628      281.242133    ;  uncertainty theta = 0.002463, k = 0.055748
         9         8        32     1      120.355080      300.977498    ;  uncertainty theta = 0.002612, k = 0.034471
         9        10        11     1      119.831955      534.379400    ;  uncertainty theta = 0.002355, k = 0.067693
         9        10        34     1      120.225723      294.465567    ;  uncertainty theta = 0.001155, k = 0.016843
        10         9        33     1      120.394577      284.254267    ;  uncertainty theta = 0.000974, k = 0.052576
        10        11        12     1      121.146652      406.361232    ;  uncertainty theta = 0.001691, k = 0.140411
        10        11        19     1      119.937843      403.976832    ;  uncertainty theta = 0.004312, k = 0.201101
        11        10        34     1      118.940834      278.413994    ;  uncertainty theta = 0.000626, k = 0.100857
        11        12        13     1      120.551285      411.791443    ;  uncertainty theta = 0.002395, k = 0.047182
        11        12        18     1      119.774269      410.747390    ;  uncertainty theta = 0.001830, k = 0.050908
        11        19        39     1      118.898216      283.577278    ;  uncertainty theta = 0.002247, k = 0.083429
        12        11        19     1      119.932167      413.605599    ;  uncertainty theta = 0.003313, k = 0.159079
        12        13        14     1      120.504349      532.913346    ;  uncertainty theta = 0.001618, k = 0.068709
        12        13        35     1      119.203636      278.269901    ;  uncertainty theta = 0.001744, k = 0.040876
        12        18        16     1      119.741173      510.605660    ;  uncertainty theta = 0.001091, k = 0.073584
        12        18        38     1      120.095413      273.299613    ;  uncertainty theta = 0.001008, k = 0.066605
        13        12        18     1      120.374191      415.451390    ;  uncertainty theta = 0.002120, k = 0.132953
        13        14        15     1      120.717369      509.837057    ;  uncertainty theta = 0.001401, k = 0.048240
        13        14        36     1      120.238693      282.499708    ;  uncertainty theta = 0.001326, k = 0.011496
        14        13        35     1      120.338745      294.190341    ;  uncertainty theta = 0.001360, k = 0.032086
        14        15        16     1      117.430496      514.054606    ;  uncertainty theta = 0.001033, k = 0.048095
        14        15        37     1      121.325417      283.555061    ;  uncertainty theta = 0.001286, k = 0.023037
        15        14        36     1      119.863380      284.707455    ;  uncertainty theta = 0.000778, k = 0.019642
        15        16        17     1      120.461792      447.827848    ;  uncertainty theta = 0.001141, k = 0.053761
        15        16        18     1      121.555298      359.688909    ;  uncertainty theta = 0.001133, k = 0.149052
        16        15        37     1      121.035461      285.494859    ;  uncertainty theta = 0.001567, k = 0.028924
        16        18        38     1      120.760788      292.340624    ;  uncertainty theta = 0.001328, k = 0.049697
        17        16        18     1      120.006104      442.243297    ;  uncertainty theta = 0.000762, k = 0.110065
        20         6        25     1      111.226074      484.882864    ;  uncertainty theta = 0.009407, k = 0.176790
        20        21        22     1      111.020874      625.989821    ;  uncertainty theta = 0.003852, k = 0.147453
        20        24        23     1       89.168015     1163.876999    ;  uncertainty theta = 0.003749, k = 0.089644
        21        20        24     1      116.663696      654.786487    ;  uncertainty theta = 0.005957, k = 0.245234
        21        22        23     1      115.325905      790.061344    ;  uncertainty theta = 0.000515, k = 0.195721
        21        22        40     1      117.762657      291.100223    ;  uncertainty theta = 0.002881, k = 0.083182
        22        23        24     1      109.426758      509.675247    ;  uncertainty theta = 0.006162, k = 0.212957
        22        23        41     1      126.349716      242.371779    ;  uncertainty theta = 0.002459, k = 0.085300
        23        22        40     1      123.928391      246.935803    ;  uncertainty theta = 0.004493, k = 0.152684
        24        23        41     1      117.256027      228.896980    ;  uncertainty theta = 0.002153, k = 0.154338
        27         1        28     1      107.627853      325.723213    ;  uncertainty theta = 0.003414, k = 0.100928
        27         1        29     1      107.627853      325.723213    ;  uncertainty theta = 0.003414, k = 0.100928
        28         1        29     1      107.627853      325.723213    ;  uncertainty theta = 0.003414, k = 0.100928
        30         4        42     1      112.419815      264.570039    ;  uncertainty theta = 0.015736, k = 0.355445

[ dihedrals ] ; propers for gromacs 4.5 or higher, use funct 9
;       ai        aj        ak        al funct           phase               k        pn
         1         2         3         4     9        0.000000       -0.022548         1    ;  uncertainty k = 0.749794
         1         2         3         4     9      180.000000        6.922871         2    ;  uncertainty k = 0.653315
         1         2         3         4     9        0.000000        0.937335         3    ;  uncertainty k = 0.726732
         1         2         3         4     9      180.000000        0.003871         4    ;  uncertainty k = 0.298346
         1         2         3         5     9        0.000000       -0.532356         1    ;  uncertainty k = 2.704540
         1         2         3         5     9      180.000000        8.511636         2    ;  uncertainty k = 0.419434
         1         2         3         5     9        0.000000        0.281050         3    ;  uncertainty k = 0.084106
         1         2         3         5     9      180.000000       -0.147785         4    ;  uncertainty k = 0.240662
         1         2        25         6     9        0.000000        4.860086         1    ;  uncertainty k = 2.038731
         1         2        25         6     9      180.000000        4.769731         2    ;  uncertainty k = 1.419657
         1         2        25         6     9        0.000000        1.220725         3    ;  uncertainty k = 0.629196
         1         2        25         6     9      180.000000        0.011121         4    ;  uncertainty k = 0.578155
         1         2        25        26     9        0.000000       -0.391714         1    ;  uncertainty k = 2.970580
         1         2        25        26     9      180.000000        8.433325         2    ;  uncertainty k = 0.478629
         1         2        25        26     9        0.000000        0.555266         3    ;  uncertainty k = 0.509741
         1         2        25        26     9      180.000000        0.210826         4    ;  uncertainty k = 0.242444
         2         3         4        30     9        0.000000        7.581043         1    ;  uncertainty k = 2.022932
         2         3         4        30     9      180.000000        9.644864         2    ;  uncertainty k = 0.618024
         2         3         4        30     9        0.000000        0.997608         3    ;  uncertainty k = 0.552963
         2         3         4        30     9      180.000000       -0.981767         4    ;  uncertainty k = 0.228325
         2         3         4        42     9        0.000000        7.581046         1    ;  uncertainty k = 2.022933
         2         3         4        42     9      180.000000        9.644865         2    ;  uncertainty k = 0.618024
         2         3         4        42     9        0.000000        0.997609         3    ;  uncertainty k = 0.552964
         2         3         4        42     9      180.000000       -0.981767         4    ;  uncertainty k = 0.228325
         2         3         5         6     9        0.000000        1.416154         1    ;  uncertainty k = 2.044836
         2         3         5         6     9      180.000000       15.232053         2    ;  uncertainty k = 0.364554
         2         3         5         6     9        0.000000       -0.060062         3    ;  uncertainty k = 0.697594
         2         3         5         6     9      180.000000       -0.570058         4    ;  uncertainty k = 0.189132
         2         3         5        31     9        0.000000        4.196972         1    ;  uncertainty k = 3.819233
         2         3         5        31     9      180.000000       10.657631         2    ;  uncertainty k = 0.619399
         2         3         5        31     9        0.000000        0.917955         3    ;  uncertainty k = 0.794955
         2         3         5        31     9      180.000000       -0.461229         4    ;  uncertainty k = 0.205709
         2        25         6         5     9        0.000000       -0.333487         1    ;  uncertainty k = 2.695006
         2        25         6         5     9      180.000000        6.412744         2    ;  uncertainty k = 0.705375
         2        25         6         5     9        0.000000        0.098420         3    ;  uncertainty k = 0.523580
         2        25         6         5     9      180.000000        0.257300         4    ;  uncertainty k = 0.500852
         2        25         6         7     9        0.000000       -2.151596         1    ;  uncertainty k = 2.938214
         2        25         6         7     9      180.000000        1.404106         2    ;  uncertainty k = 1.106035
         2        25         6         7     9        0.000000        1.137406         3    ;  uncertainty k = 0.541479
         2        25         6         7     9      180.000000        0.745087         4    ;  uncertainty k = 0.331217
         2        25         6        20     9        0.000000       -5.983622         1    ;  uncertainty k = 3.694906
         2        25         6        20     9      180.000000        3.766673         2    ;  uncertainty k = 1.686828
         2        25         6        20     9        0.000000        1.211272         3    ;  uncertainty k = 0.352276
         2        25         6        20     9      180.000000        0.615432         4    ;  uncertainty k = 0.251080
         3         2         1        27     9        0.000000       -0.386997         1    ;  uncertainty k = 0.534509
         3         2         1        27     9      180.000000       -1.091496         2    ;  uncertainty k = 0.419196
         3         2         1        27     9        0.000000        0.452536         3    ;  uncertainty k = 0.209490
         3         2         1        27     9      180.000000        0.193517         4    ;  uncertainty k = 0.049542
         3         2         1        28     9        0.000000       -0.386997         1    ;  uncertainty k = 0.534509
         3         2         1        28     9      180.000000       -1.091496         2    ;  uncertainty k = 0.419196
         3         2         1        28     9        0.000000        0.452536         3    ;  uncertainty k = 0.209490
         3         2         1        28     9      180.000000        0.193517         4    ;  uncertainty k = 0.049542
         3         2         1        29     9        0.000000       -0.386997         1    ;  uncertainty k = 0.534509
         3         2         1        29     9      180.000000       -1.091496         2    ;  uncertainty k = 0.419196
         3         2         1        29     9        0.000000        0.452536         3    ;  uncertainty k = 0.209490
         3         2         1        29     9      180.000000        0.193517         4    ;  uncertainty k = 0.049542
         3         2        25         6     9        0.000000        3.073179         1    ;  uncertainty k = 2.469744
         3         2        25         6     9      180.000000        3.027091         2    ;  uncertainty k = 1.219168
         3         2        25         6     9        0.000000       -0.360435         3    ;  uncertainty k = 0.957648
         3         2        25         6     9      180.000000        0.725356         4    ;  uncertainty k = 0.304334
         3         2        25        26     9        0.000000        0.668182         1    ;  uncertainty k = 2.778119
         3         2        25        26     9      180.000000        7.811025         2    ;  uncertainty k = 0.778983
         3         2        25        26     9        0.000000        0.478191         3    ;  uncertainty k = 0.517874
         3         2        25        26     9      180.000000        0.076939         4    ;  uncertainty k = 0.334042
         3         5         6         7     9        0.000000        0.131049         1    ;  uncertainty k = 0.807993
         3         5         6         7     9      180.000000        1.039668         2    ;  uncertainty k = 0.633990
         3         5         6         7     9        0.000000        0.735807         3    ;  uncertainty k = 0.306849
         3         5         6         7     9      180.000000        0.507726         4    ;  uncertainty k = 0.313478
         3         5         6        20     9        0.000000        0.807956         1    ;  uncertainty k = 0.064465
         3         5         6        20     9      180.000000        1.631676         2    ;  uncertainty k = 0.854533
         3         5         6        20     9        0.000000        0.747500         3    ;  uncertainty k = 0.309497
         3         5         6        20     9      180.000000        0.327478         4    ;  uncertainty k = 0.219134
         3         5         6        25     9        0.000000        2.338965         1    ;  uncertainty k = 1.235589
         3         5         6        25     9      180.000000        2.080512         2    ;  uncertainty k = 0.655030
         3         5         6        25     9        0.000000        0.212536         3    ;  uncertainty k = 0.649132
         3         5         6        25     9      180.000000        0.450181         4    ;  uncertainty k = 0.325976
         4         3         2        25     9        0.000000       -0.514185         1    ;  uncertainty k = 0.849474
         4         3         2        25     9      180.000000        6.476140         2    ;  uncertainty k = 1.384783
         4         3         2        25     9        0.000000        0.197850         3    ;  uncertainty k = 0.752493
         4         3         2        25     9      180.000000       -0.061761         4    ;  uncertainty k = 0.489457
         4         3         5         6     9        0.000000        2.733201         1    ;  uncertainty k = 1.834280
         4         3         5         6     9      180.000000       10.346285         2    ;  uncertainty k = 0.942472
         4         3         5         6     9        0.000000        0.554225         3    ;  uncertainty k = 0.392508
         4         3         5         6     9      180.000000       -0.497999         4    ;  uncertainty k = 0.624053
         4         3         5        31     9        0.000000        2.421197         1    ;  uncertainty k = 2.790221
         4         3         5        31     9      180.000000        7.262227         2    ;  uncertainty k = 1.139152
         4         3         5        31     9        0.000000        0.871867         3    ;  uncertainty k = 0.237813
         4         3         5        31     9      180.000000       -0.259265         4    ;  uncertainty k = 0.235923
         5         3         2        25     9        0.000000       -0.390590         1    ;  uncertainty k = 1.581902
         5         3         2        25     9      180.000000        8.544762         2    ;  uncertainty k = 1.021037
         5         3         2        25     9        0.000000       -1.092543         3    ;  uncertainty k = 1.091682
         5         3         2        25     9      180.000000       -0.010703         4    ;  uncertainty k = 0.456836
         5         3         4        30     9        0.000000        5.518249         1    ;  uncertainty k = 1.609479
         5         3         4        30     9      180.000000       10.778785         2    ;  uncertainty k = 0.368386
         5         3         4        30     9        0.000000        1.484413         3    ;  uncertainty k = 0.457728
         5         3         4        30     9      180.000000       -0.774400         4    ;  uncertainty k = 0.326806
         5         3         4        42     9        0.000000        5.518249         1    ;  uncertainty k = 1.609479
         5         3         4        42     9      180.000000       10.778784         2    ;  uncertainty k = 0.368386
         5         3         4        42     9        0.000000        1.484413         3    ;  uncertainty k = 0.457728
         5         3         4        42     9      180.000000       -0.774400         4    ;  uncertainty k = 0.326806
         5         6         7         8     9        0.000000       -0.823865         1    ;  uncertainty k = 1.190351
         5         6         7         8     9      180.000000        2.510156         2    ;  uncertainty k = 0.758449
         5         6         7         8     9        0.000000        0.571056         3    ;  uncertainty k = 0.266732
         5         6         7         8     9      180.000000        0.310530         4    ;  uncertainty k = 0.160724
         5         6         7        19     9        0.000000       -0.633673         1    ;  uncertainty k = 1.159019
         5         6         7        19     9      180.000000        2.500297         2    ;  uncertainty k = 0.781998
         5         6         7        19     9        0.000000        0.517518         3    ;  uncertainty k = 0.250881
         5         6         7        19     9      180.000000        0.310063         4    ;  uncertainty k = 0.178085
         5         6        20        21     9        0.000000        4.371336         1    ;  uncertainty k = 2.641828
         5         6        20        21     9      180.000000        2.368294         2    ;  uncertainty k = 0.377714
         5         6        20        21     9        0.000000        0.355946         3    ;  uncertainty k = 0.205503
         5         6        20        21     9      180.000000        0.112281         4    ;  uncertainty k = 0.177072
         5         6        20        24     9        0.000000        2.146875         1    ;  uncertainty k = 2.596041
         5         6        20        24     9      180.000000        1.014308         2    ;  uncertainty k = 1.110724
         5         6        20        24     9        0.000000        0.434056         3    ;  uncertainty k = 0.121263
         5         6        20        24     9      180.000000        0.130375         4    ;  uncertainty k = 0.115501
         5         6        25        26     9        0.000000       -0.623532         1    ;  uncertainty k = 2.873183
         5         6        25        26     9      180.000000        2.863926         2    ;  uncertainty k = 1.212331
         5         6        25        26     9        0.000000        0.259410         3    ;  uncertainty k = 0.571855
         5         6        25        26     9      180.000000        0.347231         4    ;  uncertainty k = 0.154524
         6         7         8         9     9        0.000000        0.084746         1    ;  uncertainty k = 0.265473
         6         7         8         9     9      180.000000        9.096428         2    ;  uncertainty k = 0.374629
         6         7         8         9     9        0.000000        1.403402         3    ;  uncertainty k = 0.351546
         6         7         8         9     9      180.000000        1.785880         4    ;  uncertainty k = 0.109840
         6         7         8        32     9        0.000000       -0.362322         1    ;  uncertainty k = 0.145079
         6         7         8        32     9      180.000000        6.974892         2    ;  uncertainty k = 0.545158
         6         7         8        32     9        0.000000        0.550090         3    ;  uncertainty k = 0.391381
         6         7         8        32     9      180.000000        0.993196         4    ;  uncertainty k = 0.258455
         6         7        19        11     9        0.000000        0.083308         1    ;  uncertainty k = 0.129042
         6         7        19        11     9      180.000000        8.479769         2    ;  uncertainty k = 0.381237
         6         7        19        11     9        0.000000        1.323848         3    ;  uncertainty k = 0.250694
         6         7        19        11     9      180.000000        1.823393         4    ;  uncertainty k = 0.104409
         6         7        19        39     9        0.000000       -0.282676         1    ;  uncertainty k = 0.208274
         6         7        19        39     9      180.000000        7.158018         2    ;  uncertainty k = 0.568107
         6         7        19        39     9        0.000000        0.522329         3    ;  uncertainty k = 0.426712
         6         7        19        39     9      180.000000        1.044031         4    ;  uncertainty k = 0.328278
         6        20        21        22     9        0.000000       -0.905358         1    ;  uncertainty k = 1.075212
         6        20        21        22     9      180.000000       20.917233         2    ;  uncertainty k = 0.586560
         6        20        21        22     9        0.000000        2.685348         3    ;  uncertainty k = 0.402756
         6        20        21        22     9      180.000000        1.078233         4    ;  uncertainty k = 0.505112
         6        20        24        23     9        0.000000        1.856194         1    ;  uncertainty k = 1.905910
         6        20        24        23     9      180.000000       10.917066         2    ;  uncertainty k = 0.400591
         6        20        24        23     9        0.000000        1.562517         3    ;  uncertainty k = 0.561785
         6        20        24        23     9      180.000000        0.202878         4    ;  uncertainty k = 0.181483
         7         6         5        31     9        0.000000        2.736740         1    ;  uncertainty k = 1.382015
         7         6         5        31     9      180.000000        0.096634         2    ;  uncertainty k = 1.209029
         7         6         5        31     9        0.000000        0.555832         3    ;  uncertainty k = 0.523592
         7         6         5        31     9      180.000000        0.056369         4    ;  uncertainty k = 0.158757
         7         6        20        21     9        0.000000        1.993324         1    ;  uncertainty k = 1.165320
         7         6        20        21     9      180.000000        1.922076         2    ;  uncertainty k = 0.384140
         7         6        20        21     9        0.000000        0.318600         3    ;  uncertainty k = 0.277179
         7         6        20        21     9      180.000000        0.082604         4    ;  uncertainty k = 0.129965
         7         6        20        24     9        0.000000        0.173669         1    ;  uncertainty k = 1.198387
         7         6        20        24     9      180.000000        1.716432         2    ;  uncertainty k = 0.758557
         7         6        20        24     9        0.000000        0.269951         3    ;  uncertainty k = 0.289053
         7         6        20        24     9      180.000000        0.023281         4    ;  uncertainty k = 0.195673
         7         6        25        26     9        0.000000       -0.370530         1    ;  uncertainty k = 1.758851
         7         6        25        26     9      180.000000        3.185181         2    ;  uncertainty k = 0.672262
         7         6        25        26     9        0.000000        0.367157         3    ;  uncertainty k = 0.274050
         7         6        25        26     9      180.000000        0.088064         4    ;  uncertainty k = 0.188396
         7         8         9        10     9        0.000000        0.011797         1    ;  uncertainty k = 0.225016
         7         8         9        10     9      180.000000       13.266737         2    ;  uncertainty k = 0.384578
         7         8         9        10     9        0.000000       -0.862336         3    ;  uncertainty k = 0.497012
         7         8         9        10     9      180.000000        0.760638         4    ;  uncertainty k = 0.218663
         7         8         9        33     9        0.000000        0.141114         1    ;  uncertainty k = 0.355452
         7         8         9        33     9      180.000000        7.533362         2    ;  uncertainty k = 0.273482
         7         8         9        33     9        0.000000        1.424618         3    ;  uncertainty k = 0.132770
         7         8         9        33     9      180.000000        1.807951         4    ;  uncertainty k = 0.185229
         7        19        11        10     9        0.000000        0.193632         1    ;  uncertainty k = 0.432173
         7        19        11        10     9      180.000000        9.951067         2    ;  uncertainty k = 0.515987
         7        19        11        10     9        0.000000       -0.090573         3    ;  uncertainty k = 0.253984
         7        19        11        10     9      180.000000        1.105433         4    ;  uncertainty k = 0.314048
         7        19        11        12     9        0.000000        0.351193         1    ;  uncertainty k = 0.127422
         7        19        11        12     9      180.000000        8.508731         2    ;  uncertainty k = 0.447363
         7        19        11        12     9        0.000000        1.307153         3    ;  uncertainty k = 0.426452
         7        19        11        12     9      180.000000        1.719392         4    ;  uncertainty k = 0.120144
         8         7         6        20     9        0.000000        0.941249         1    ;  uncertainty k = 0.923150
         8         7         6        20     9      180.000000        1.695242         2    ;  uncertainty k = 0.702050
         8         7         6        20     9        0.000000        0.551700         3    ;  uncertainty k = 0.246697
         8         7         6        20     9      180.000000        0.243910         4    ;  uncertainty k = 0.082071
         8         7         6        25     9        0.000000        0.314857         1    ;  uncertainty k = 1.335552
         8         7         6        25     9      180.000000        0.834448         2    ;  uncertainty k = 0.485245
         8         7         6        25     9        0.000000        0.458165         3    ;  uncertainty k = 0.063610
         8         7         6        25     9      180.000000        0.263539         4    ;  uncertainty k = 0.151433
         8         7        19        11     9        0.000000       -0.340484         1    ;  uncertainty k = 0.422773
         8         7        19        11     9      180.000000       11.715251         2    ;  uncertainty k = 0.151173
         8         7        19        11     9        0.000000       -0.239257         3    ;  uncertainty k = 0.208495
         8         7        19        11     9      180.000000        0.955915         4    ;  uncertainty k = 0.195253
         8         7        19        39     9        0.000000        0.287717         1    ;  uncertainty k = 0.112872
         8         7        19        39     9      180.000000        7.764489         2    ;  uncertainty k = 0.520954
         8         7        19        39     9        0.000000        1.308345         3    ;  uncertainty k = 0.375836
         8         7        19        39     9      180.000000        1.638188         4    ;  uncertainty k = 0.199827
         8         9        10        11     9        0.000000       -0.081630         1    ;  uncertainty k = 0.256366
         8         9        10        11     9      180.000000       13.922843         2    ;  uncertainty k = 0.257328
         8         9        10        11     9        0.000000       -0.830378         3    ;  uncertainty k = 0.468815
         8         9        10        11     9      180.000000        0.722933         4    ;  uncertainty k = 0.205859
         8         9        10        34     9        0.000000        0.010435         1    ;  uncertainty k = 0.129207
         8         9        10        34     9      180.000000        7.687836         2    ;  uncertainty k = 0.206516
         8         9        10        34     9        0.000000        1.429294         3    ;  uncertainty k = 0.211030
         8         9        10        34     9      180.000000        1.808492         4    ;  uncertainty k = 0.233655
         9         8         7        19     9        0.000000       -0.306563         1    ;  uncertainty k = 0.315002
         9         8         7        19     9      180.000000       12.083920         2    ;  uncertainty k = 0.307969
         9         8         7        19     9        0.000000       -0.581805         3    ;  uncertainty k = 0.193755
         9         8         7        19     9      180.000000        0.841654         4    ;  uncertainty k = 0.264996
         9        10        11        12     9        0.000000        0.047063         1    ;  uncertainty k = 0.221114
         9        10        11        12     9      180.000000        8.983899         2    ;  uncertainty k = 0.561002
         9        10        11        12     9        0.000000        1.186075         3    ;  uncertainty k = 0.435078
         9        10        11        12     9      180.000000        1.736885         4    ;  uncertainty k = 0.175138
         9        10        11        19     9        0.000000        0.145920         1    ;  uncertainty k = 0.214491
         9        10        11        19     9      180.000000       11.071581         2    ;  uncertainty k = 0.224654
         9        10        11        19     9        0.000000       -0.441462         3    ;  uncertainty k = 0.342313
         9        10        11        19     9      180.000000        0.956127         4    ;  uncertainty k = 0.275305
        10         9         8        32     9        0.000000        0.048386         1    ;  uncertainty k = 0.105209
        10         9         8        32     9      180.000000        7.780006         2    ;  uncertainty k = 0.399554
        10         9         8        32     9        0.000000        1.360143         3    ;  uncertainty k = 0.241492
        10         9         8        32     9      180.000000        1.809438         4    ;  uncertainty k = 0.093382
        10        11        12        13     9        0.000000       -0.410062         1    ;  uncertainty k = 0.430939
        10        11        12        13     9      180.000000        3.909594         2    ;  uncertainty k = 0.070121
        10        11        12        13     9        0.000000        0.295096         3    ;  uncertainty k = 0.129464
        10        11        12        13     9      180.000000       -0.085243         4    ;  uncertainty k = 0.058853
        10        11        12        18     9        0.000000       -0.385161         1    ;  uncertainty k = 0.348622
        10        11        12        18     9      180.000000        3.938100         2    ;  uncertainty k = 0.071829
        10        11        12        18     9        0.000000        0.278108         3    ;  uncertainty k = 0.120029
        10        11        12        18     9      180.000000       -0.061349         4    ;  uncertainty k = 0.039468
        10        11        19        39     9        0.000000        0.106255         1    ;  uncertainty k = 0.182455
        10        11        19        39     9      180.000000        7.235279         2    ;  uncertainty k = 0.705283
        10        11        19        39     9        0.000000        1.421207         3    ;  uncertainty k = 0.103970
        10        11        19        39     9      180.000000        1.631971         4    ;  uncertainty k = 0.245004
        11        10         9        33     9        0.000000        0.003303         1    ;  uncertainty k = 0.187147
        11        10         9        33     9      180.000000        7.679546         2    ;  uncertainty k = 0.353409
        11        10         9        33     9        0.000000        1.346016         3    ;  uncertainty k = 0.214454
        11        10         9        33     9      180.000000        1.833514         4    ;  uncertainty k = 0.197470
        11        12        13        14     9        0.000000       -0.012634         1    ;  uncertainty k = 0.228144
        11        12        13        14     9      180.000000        8.761872         2    ;  uncertainty k = 0.612912
        11        12        13        14     9        0.000000        1.208914         3    ;  uncertainty k = 0.405952
        11        12        13        14     9      180.000000        1.774040         4    ;  uncertainty k = 0.159874
        11        12        13        35     9        0.000000       -0.232225         1    ;  uncertainty k = 0.317725
        11        12        13        35     9      180.000000        7.087463         2    ;  uncertainty k = 0.461869
        11        12        13        35     9        0.000000        0.824153         3    ;  uncertainty k = 0.160499
        11        12        13        35     9      180.000000        1.171782         4    ;  uncertainty k = 0.211792
        11        12        18        16     9        0.000000        0.080942         1    ;  uncertainty k = 0.176888
        11        12        18        16     9      180.000000        8.978766         2    ;  uncertainty k = 0.388345
        11        12        18        16     9        0.000000        1.285769         3    ;  uncertainty k = 0.283357
        11        12        18        16     9      180.000000        1.700913         4    ;  uncertainty k = 0.067395
        11        12        18        38     9        0.000000       -0.198661         1    ;  uncertainty k = 0.277218
        11        12        18        38     9      180.000000        7.101458         2    ;  uncertainty k = 0.422947
        11        12        18        38     9        0.000000        0.827719         3    ;  uncertainty k = 0.178296
        11        12        18        38     9      180.000000        1.171420         4    ;  uncertainty k = 0.201233
        12        11        10        34     9        0.000000       -0.136811         1    ;  uncertainty k = 0.278855
        12        11        10        34     9      180.000000        7.176921         2    ;  uncertainty k = 0.470630
        12        11        10        34     9        0.000000        0.826608         3    ;  uncertainty k = 0.116800
        12        11        10        34     9      180.000000        1.194158         4    ;  uncertainty k = 0.176037
        12        11        19        39     9        0.000000       -0.069228         1    ;  uncertainty k = 0.153739
        12        11        19        39     9      180.000000        7.337110         2    ;  uncertainty k = 0.238624
        12        11        19        39     9        0.000000        0.864880         3    ;  uncertainty k = 0.177207
        12        11        19        39     9      180.000000        1.304093         4    ;  uncertainty k = 0.178990
        12        13        14        15     9        0.000000       -0.042208         1    ;  uncertainty k = 0.231516
        12        13        14        15     9      180.000000       14.171992         2    ;  uncertainty k = 0.189515
        12        13        14        15     9        0.000000       -0.870742         3    ;  uncertainty k = 0.485056
        12        13        14        15     9      180.000000        0.699208         4    ;  uncertainty k = 0.253427
        12        13        14        36     9        0.000000        0.022680         1    ;  uncertainty k = 0.242894
        12        13        14        36     9      180.000000        7.703942         2    ;  uncertainty k = 0.339132
        12        13        14        36     9        0.000000        1.372427         3    ;  uncertainty k = 0.261098
        12        13        14        36     9      180.000000        1.835688         4    ;  uncertainty k = 0.149481
        12        18        16        15     9        0.000000       -0.010279         1    ;  uncertainty k = 0.315076
        12        18        16        15     9      180.000000        9.861218         2    ;  uncertainty k = 0.417908
        12        18        16        15     9        0.000000       -0.044172         3    ;  uncertainty k = 0.331365
        12        18        16        15     9      180.000000        1.160540         4    ;  uncertainty k = 0.311928
        12        18        16        17     9        0.000000        0.036466         1    ;  uncertainty k = 0.115484
        12        18        16        17     9      180.000000        9.485434         2    ;  uncertainty k = 0.578648
        12        18        16        17     9        0.000000        1.367643         3    ;  uncertainty k = 0.425703
        12        18        16        17     9      180.000000        1.685065         4    ;  uncertainty k = 0.101287
        13        12        11        19     9        0.000000       -0.213486         1    ;  uncertainty k = 0.452639
        13        12        11        19     9      180.000000        4.186647         2    ;  uncertainty k = 0.157262
        13        12        11        19     9        0.000000        0.289295         3    ;  uncertainty k = 0.148004
        13        12        11        19     9      180.000000       -0.010251         4    ;  uncertainty k = 0.060930
        13        12        18        16     9        0.000000        0.112971         1    ;  uncertainty k = 0.107592
        13        12        18        16     9      180.000000       11.459687         2    ;  uncertainty k = 0.265370
        13        12        18        16     9        0.000000       -0.359029         3    ;  uncertainty k = 0.399359
        13        12        18        16     9      180.000000        0.945001         4    ;  uncertainty k = 0.278886
        13        12        18        38     9        0.000000        0.189437         1    ;  uncertainty k = 0.134814
        13        12        18        38     9      180.000000        6.927558         2    ;  uncertainty k = 0.531255
        13        12        18        38     9        0.000000        1.476130         3    ;  uncertainty k = 0.227216
        13        12        18        38     9      180.000000        1.643456         4    ;  uncertainty k = 0.236170
        13        14        15        16     9        0.000000        0.034101         1    ;  uncertainty k = 0.181604
        13        14        15        16     9      180.000000       14.637857         2    ;  uncertainty k = 0.207905
        13        14        15        16     9        0.000000       -1.037223         3    ;  uncertainty k = 0.574419
        13        14        15        16     9      180.000000        0.689985         4    ;  uncertainty k = 0.252256
        13        14        15        37     9        0.000000        0.080157         1    ;  uncertainty k = 0.044174
        13        14        15        37     9      180.000000        7.631927         2    ;  uncertainty k = 0.319811
        13        14        15        37     9        0.000000        1.497161         3    ;  uncertainty k = 0.267179
        13        14        15        37     9      180.000000        1.800300         4    ;  uncertainty k = 0.165698
        14        13        12        18     9        0.000000       -0.014258         1    ;  uncertainty k = 0.046197
        14        13        12        18     9      180.000000       11.353969         2    ;  uncertainty k = 0.284679
        14        13        12        18     9        0.000000       -0.419125         3    ;  uncertainty k = 0.329524
        14        13        12        18     9      180.000000        0.851477         4    ;  uncertainty k = 0.284931
        14        15        16        17     9        0.000000        0.039415         1    ;  uncertainty k = 0.185710
        14        15        16        17     9      180.000000        9.400893         2    ;  uncertainty k = 0.673917
        14        15        16        17     9        0.000000        1.522713         3    ;  uncertainty k = 0.432767
        14        15        16        17     9      180.000000        1.637619         4    ;  uncertainty k = 0.162550
        14        15        16        18     9        0.000000       -0.035280         1    ;  uncertainty k = 0.114525
        14        15        16        18     9      180.000000       10.458549         2    ;  uncertainty k = 0.352853
        14        15        16        18     9        0.000000       -0.351603         3    ;  uncertainty k = 0.544621
        14        15        16        18     9      180.000000        0.999885         4    ;  uncertainty k = 0.326950
        15        14        13        35     9        0.000000        0.052492         1    ;  uncertainty k = 0.058932
        15        14        13        35     9      180.000000        7.952026         2    ;  uncertainty k = 0.267692
        15        14        13        35     9        0.000000        1.470677         3    ;  uncertainty k = 0.256858
        15        14        13        35     9      180.000000        1.851649         4    ;  uncertainty k = 0.164393
        15        16        18        38     9        0.000000       -0.045893         1    ;  uncertainty k = 0.245307
        15        16        18        38     9      180.000000        6.349827         2    ;  uncertainty k = 0.564330
        15        16        18        38     9        0.000000        1.416183         3    ;  uncertainty k = 0.310677
        15        16        18        38     9      180.000000        1.600595         4    ;  uncertainty k = 0.148712
        16        15        14        36     9        0.000000        0.013468         1    ;  uncertainty k = 0.140072
        16        15        14        36     9      180.000000        7.595964         2    ;  uncertainty k = 0.326736
        16        15        14        36     9        0.000000        1.451185         3    ;  uncertainty k = 0.275082
        16        15        14        36     9      180.000000        1.856285         4    ;  uncertainty k = 0.184737
        17        16        15        37     9        0.000000       -0.148142         1    ;  uncertainty k = 0.212406
        17        16        15        37     9      180.000000        7.328405         2    ;  uncertainty k = 0.291144
        17        16        15        37     9        0.000000        0.580550         3    ;  uncertainty k = 0.353024
        17        16        15        37     9      180.000000        0.942602         4    ;  uncertainty k = 0.155635
        17        16        18        38     9        0.000000       -0.243273         1    ;  uncertainty k = 0.262026
        17        16        18        38     9      180.000000        7.505922         2    ;  uncertainty k = 0.286010
        17        16        18        38     9        0.000000        0.606748         3    ;  uncertainty k = 0.290520
        17        16        18        38     9      180.000000        1.026416         4    ;  uncertainty k = 0.149534
        18        12        11        19     9        0.000000       -0.168480         1    ;  uncertainty k = 0.373081
        18        12        11        19     9      180.000000        4.198469         2    ;  uncertainty k = 0.155957
        18        12        11        19     9        0.000000        0.254214         3    ;  uncertainty k = 0.155399
        18        12        11        19     9      180.000000        0.012737         4    ;  uncertainty k = 0.058000
        18        12        13        35     9        0.000000        0.134272         1    ;  uncertainty k = 0.144927
        18        12        13        35     9      180.000000        6.905301         2    ;  uncertainty k = 0.558344
        18        12        13        35     9        0.000000        1.477109         3    ;  uncertainty k = 0.223699
        18        12        13        35     9      180.000000        1.638259         4    ;  uncertainty k = 0.236471
        18        16        15        37     9        0.000000        0.008768         1    ;  uncertainty k = 0.120181
        18        16        15        37     9      180.000000        6.217604         2    ;  uncertainty k = 0.626406
        18        16        15        37     9        0.000000        1.411019         3    ;  uncertainty k = 0.350782
        18        16        15        37     9      180.000000        1.518245         4    ;  uncertainty k = 0.154069
        19         7         6        20     9        0.000000        1.115456         1    ;  uncertainty k = 0.968625
        19         7         6        20     9      180.000000        1.716474         2    ;  uncertainty k = 0.665743
        19         7         6        20     9        0.000000        0.518147         3    ;  uncertainty k = 0.241996
        19         7         6        20     9      180.000000        0.266288         4    ;  uncertainty k = 0.086848
        19         7         6        25     9        0.000000        0.335993         1    ;  uncertainty k = 1.460918
        19         7         6        25     9      180.000000        0.847754         2    ;  uncertainty k = 0.448744
        19         7         6        25     9        0.000000        0.399118         3    ;  uncertainty k = 0.103176
        19         7         6        25     9      180.000000        0.266627         4    ;  uncertainty k = 0.142397
        19         7         8        32     9        0.000000        0.329333         1    ;  uncertainty k = 0.209912
        19         7         8        32     9      180.000000        7.605046         2    ;  uncertainty k = 0.565385
        19         7         8        32     9        0.000000        1.273733         3    ;  uncertainty k = 0.348243
        19         7         8        32     9      180.000000        1.646207         4    ;  uncertainty k = 0.212215
        19        11        10        34     9        0.000000        0.159654         1    ;  uncertainty k = 0.199150
        19        11        10        34     9      180.000000        7.136516         2    ;  uncertainty k = 0.448648
        19        11        10        34     9        0.000000        1.386890         3    ;  uncertainty k = 0.243986
        19        11        10        34     9      180.000000        1.587184         4    ;  uncertainty k = 0.261339
        20         6         5        31     9        0.000000        3.929882         1    ;  uncertainty k = 1.547781
        20         6         5        31     9      180.000000       -1.047361         2    ;  uncertainty k = 1.429316
        20         6         5        31     9        0.000000        0.471226         3    ;  uncertainty k = 0.579443
        20         6         5        31     9      180.000000        0.059734         4    ;  uncertainty k = 0.162690
        20         6        25        26     9        0.000000       -1.803692         1    ;  uncertainty k = 2.612606
        20         6        25        26     9      180.000000        4.516775         2    ;  uncertainty k = 0.932533
        20         6        25        26     9        0.000000        0.414646         3    ;  uncertainty k = 0.158184
        20         6        25        26     9      180.000000       -0.061562         4    ;  uncertainty k = 0.192864
        20        21        22        23     9        0.000000       -0.306432         1    ;  uncertainty k = 0.771090
        20        21        22        23     9      180.000000       14.425285         2    ;  uncertainty k = 0.288651
        20        21        22        23     9        0.000000       -2.851476         3    ;  uncertainty k = 0.531115
        20        21        22        23     9      180.000000        1.648042         4    ;  uncertainty k = 0.327940
        20        21        22        40     9        0.000000        1.228623         1    ;  uncertainty k = 0.923735
        20        21        22        40     9      180.000000       10.592556         2    ;  uncertainty k = 0.861430
        20        21        22        40     9        0.000000        1.051779         3    ;  uncertainty k = 0.678835
        20        21        22        40     9      180.000000        0.549728         4    ;  uncertainty k = 0.340293
        20        24        23        22     9        0.000000       -0.432460         1    ;  uncertainty k = 0.503347
        20        24        23        22     9      180.000000       12.760340         2    ;  uncertainty k = 0.568652
        20        24        23        22     9        0.000000       -8.879598         3    ;  uncertainty k = 0.794596
        20        24        23        22     9      180.000000        1.879785         4    ;  uncertainty k = 0.332540
        20        24        23        41     9        0.000000        0.411422         1    ;  uncertainty k = 0.952910
        20        24        23        41     9      180.000000        8.161503         2    ;  uncertainty k = 1.205365
        20        24        23        41     9        0.000000        0.356254         3    ;  uncertainty k = 0.531212
        20        24        23        41     9      180.000000        0.194814         4    ;  uncertainty k = 0.239947
        21        20         6        25     9        0.000000        1.436294         1    ;  uncertainty k = 1.998876
        21        20         6        25     9      180.000000        2.555610         2    ;  uncertainty k = 0.438526
        21        20         6        25     9        0.000000        0.312666         3    ;  uncertainty k = 0.283733
        21        20         6        25     9      180.000000        0.245408         4    ;  uncertainty k = 0.251818
        21        20        24        23     9        0.000000       -0.351861         1    ;  uncertainty k = 0.661735
        21        20        24        23     9      180.000000       18.200268         2    ;  uncertainty k = 0.520842
        21        20        24        23     9        0.000000      -10.024667         3    ;  uncertainty k = 1.508902
        21        20        24        23     9      180.000000        1.718166         4    ;  uncertainty k = 0.554536
        21        22        23        24     9        0.000000       -0.336236         1    ;  uncertainty k = 0.342974
        21        22        23        24     9      180.000000       21.786646         2    ;  uncertainty k = 0.639656
        21        22        23        24     9        0.000000       -5.142162         3    ;  uncertainty k = 0.525474
        21        22        23        24     9      180.000000        1.204299         4    ;  uncertainty k = 0.834920
        21        22        23        41     9        0.000000        0.118958         1    ;  uncertainty k = 1.118942
        21        22        23        41     9      180.000000       17.757223         2    ;  uncertainty k = 0.375042
        21        22        23        41     9        0.000000        1.354529         3    ;  uncertainty k = 0.674830
        21        22        23        41     9      180.000000        0.858273         4    ;  uncertainty k = 0.304941
        22        21        20        24     9        0.000000       -0.324691         1    ;  uncertainty k = 0.922316
        22        21        20        24     9      180.000000       21.362889         2    ;  uncertainty k = 0.659747
        22        21        20        24     9        0.000000       -2.667191         3    ;  uncertainty k = 1.073936
        22        21        20        24     9      180.000000        2.047071         4    ;  uncertainty k = 0.159532
        24        20         6        25     9        0.000000       -0.128137         1    ;  uncertainty k = 1.488061
        24        20         6        25     9      180.000000        0.798538         2    ;  uncertainty k = 0.286054
        24        20         6        25     9        0.000000        0.175960         3    ;  uncertainty k = 0.172570
        24        20         6        25     9      180.000000       -0.071623         4    ;  uncertainty k = 0.228010
        24        23        22        40     9        0.000000       -0.229582         1    ;  uncertainty k = 0.615338
        24        23        22        40     9      180.000000       13.276994         2    ;  uncertainty k = 0.273483
        24        23        22        40     9        0.000000        2.097605         3    ;  uncertainty k = 0.288231
        24        23        22        40     9      180.000000        0.964252         4    ;  uncertainty k = 0.423614
        25         2         1        27     9        0.000000        0.275527         1    ;  uncertainty k = 0.410836
        25         2         1        27     9      180.000000        0.019944         2    ;  uncertainty k = 0.274813
        25         2         1        27     9        0.000000        0.345958         3    ;  uncertainty k = 0.231480
        25         2         1        27     9      180.000000        0.304491         4    ;  uncertainty k = 0.084113
        25         2         1        28     9        0.000000        0.275527         1    ;  uncertainty k = 0.410836
        25         2         1        28     9      180.000000        0.019944         2    ;  uncertainty k = 0.274813
        25         2         1        28     9        0.000000        0.345958         3    ;  uncertainty k = 0.231480
        25         2         1        28     9      180.000000        0.304491         4    ;  uncertainty k = 0.084113
        25         2         1        29     9        0.000000        0.275527         1    ;  uncertainty k = 0.410836
        25         2         1        29     9      180.000000        0.019944         2    ;  uncertainty k = 0.274813
        25         2         1        29     9        0.000000        0.345958         3    ;  uncertainty k = 0.231480
        25         2         1        29     9      180.000000        0.304491         4    ;  uncertainty k = 0.084113
        25         6         5        31     9        0.000000        0.312558         1    ;  uncertainty k = 1.933773
        25         6         5        31     9      180.000000        0.335929         2    ;  uncertainty k = 2.299451
        25         6         5        31     9        0.000000        0.320024         3    ;  uncertainty k = 0.489761
        25         6         5        31     9      180.000000       -0.003038         4    ;  uncertainty k = 0.184607
        32         8         9        33     9        0.000000       -0.161760         1    ;  uncertainty k = 0.376238
        32         8         9        33     9      180.000000        7.840370         2    ;  uncertainty k = 0.316264
        32         8         9        33     9        0.000000       -0.469160         3    ;  uncertainty k = 0.326604
        32         8         9        33     9      180.000000        0.166030         4    ;  uncertainty k = 0.195845
        33         9        10        34     9        0.000000       -0.092498         1    ;  uncertainty k = 0.195984
        33         9        10        34     9      180.000000        7.947842         2    ;  uncertainty k = 0.288725
        33         9        10        34     9        0.000000       -0.503219         3    ;  uncertainty k = 0.278914
        33         9        10        34     9      180.000000        0.116890         4    ;  uncertainty k = 0.148224
        35        13        14        36     9        0.000000       -0.071837         1    ;  uncertainty k = 0.139578
        35        13        14        36     9      180.000000        7.837294         2    ;  uncertainty k = 0.341152
        35        13        14        36     9        0.000000       -0.474130         3    ;  uncertainty k = 0.274222
        35        13        14        36     9      180.000000        0.116282         4    ;  uncertainty k = 0.133076
        36        14        15        37     9        0.000000       -0.080242         1    ;  uncertainty k = 0.065182
        36        14        15        37     9      180.000000        7.728195         2    ;  uncertainty k = 0.460598
        36        14        15        37     9        0.000000       -0.435760         3    ;  uncertainty k = 0.241595
        36        14        15        37     9      180.000000        0.035511         4    ;  uncertainty k = 0.167623
        40        22        23        41     9        0.000000       -0.072230         1    ;  uncertainty k = 0.094975
        40        22        23        41     9      180.000000        7.406090         2    ;  uncertainty k = 0.587243
        40        22        23        41     9        0.000000        1.179847         3    ;  uncertainty k = 0.329047
        40        22        23        41     9      180.000000        0.457216         4    ;  uncertainty k = 0.312408

[ dihedrals ] ; impropers
;       ai        aj        ak        al funct           phase               k        pn
         2         1         3        25     4      180.000000        1.977725         2    ;  uncertainty k = 0.519882
         2         3        25         1     4      180.000000        1.977725         2    ;  uncertainty k = 0.519882
         2        25         1         3     4      180.000000        1.977725         2    ;  uncertainty k = 0.519882
         3         2         4         5     4      180.000000       30.592236         2    ;  uncertainty k = 0.137738
         3         4         5         2     4      180.000000       30.592236         2    ;  uncertainty k = 0.137738
         3         5         2         4     4      180.000000       30.592236         2    ;  uncertainty k = 0.137738
         4         3        30        42     4      180.000000        0.157781         2    ;  uncertainty k = 0.352810
         4        30        42         3     4      180.000000        0.157781         2    ;  uncertainty k = 0.352810
         4        42         3        30     4      180.000000        0.157781         2    ;  uncertainty k = 0.352810
         7         6         8        19     4      180.000000       10.124968         2    ;  uncertainty k = 0.215022
         7         8        19         6     4      180.000000       10.124968         2    ;  uncertainty k = 0.215022
         7        19         6         8     4      180.000000       10.124968         2    ;  uncertainty k = 0.215022
         8         7         9        32     4      180.000000        4.136148         2    ;  uncertainty k = 0.185230
         8         9        32         7     4      180.000000        4.136148         2    ;  uncertainty k = 0.185230
         8        32         7         9     4      180.000000        4.136148         2    ;  uncertainty k = 0.185230
         9         8        10        33     4      180.000000        4.139987         2    ;  uncertainty k = 0.153335
         9        10        33         8     4      180.000000        4.139987         2    ;  uncertainty k = 0.153335
         9        33         8        10     4      180.000000        4.139987         2    ;  uncertainty k = 0.153335
        10         9        11        34     4      180.000000        4.541789         2    ;  uncertainty k = 0.121683
        10        11        34         9     4      180.000000        4.541789         2    ;  uncertainty k = 0.121683
        10        34         9        11     4      180.000000        4.541789         2    ;  uncertainty k = 0.121683
        11        10        12        19     4      180.000000       15.296465         2    ;  uncertainty k = 0.065238
        11        12        19        10     4      180.000000       15.296465         2    ;  uncertainty k = 0.065238
        11        19        10        12     4      180.000000       15.296465         2    ;  uncertainty k = 0.065238
        12        11        13        18     4      180.000000       14.791905         2    ;  uncertainty k = 0.057850
        12        13        18        11     4      180.000000       14.791905         2    ;  uncertainty k = 0.057850
        12        18        11        13     4      180.000000       14.791905         2    ;  uncertainty k = 0.057850
        13        12        14        35     4      180.000000        3.700191         2    ;  uncertainty k = 0.086940
        13        14        35        12     4      180.000000        3.700191         2    ;  uncertainty k = 0.086940
        13        35        12        14     4      180.000000        3.700191         2    ;  uncertainty k = 0.086940
        14        13        15        36     4      180.000000        4.249204         2    ;  uncertainty k = 0.103731
        14        15        36        13     4      180.000000        4.249204         2    ;  uncertainty k = 0.103731
        14        36        13        15     4      180.000000        4.249204         2    ;  uncertainty k = 0.103731
        15        14        16        37     4      180.000000        3.525381         2    ;  uncertainty k = 0.172936
        15        16        37        14     4      180.000000        3.525381         2    ;  uncertainty k = 0.172936
        15        37        14        16     4      180.000000        3.525381         2    ;  uncertainty k = 0.172936
        16        15        17        18     4      180.000000       13.371882         2    ;  uncertainty k = 0.047246
        16        17        18        15     4      180.000000       13.371882         2    ;  uncertainty k = 0.047246
        16        18        15        17     4      180.000000       13.371882         2    ;  uncertainty k = 0.047246
        18        12        16        38     4      180.000000        3.443520         2    ;  uncertainty k = 0.143383
        18        16        38        12     4      180.000000        3.443520         2    ;  uncertainty k = 0.143383
        18        38        12        16     4      180.000000        3.443520         2    ;  uncertainty k = 0.143383
        19         7        11        39     4      180.000000        4.370006         2    ;  uncertainty k = 0.269266
        19        11        39         7     4      180.000000        4.370006         2    ;  uncertainty k = 0.269266
        19        39         7        11     4      180.000000        4.370006         2    ;  uncertainty k = 0.269266
        20         6        21        24     4      180.000000        5.289548         2    ;  uncertainty k = 0.269983
        20        21        24         6     4      180.000000        5.289548         2    ;  uncertainty k = 0.269983
        20        24         6        21     4      180.000000        5.289548         2    ;  uncertainty k = 0.269983
        22        21        23        40     4      180.000000        4.223166         2    ;  uncertainty k = 0.217070
        22        23        40        21     4      180.000000        4.223166         2    ;  uncertainty k = 0.217070
        22        40        21        23     4      180.000000        4.223166         2    ;  uncertainty k = 0.217070
        25         2         6        26     4      180.000000       49.552516         2    ;  uncertainty k = 0.051500
        25         6        26         2     4      180.000000       49.552516         2    ;  uncertainty k = 0.051500
        25        26         2         6     4      180.000000       49.552516         2    ;  uncertainty k = 0.051500

[ pairs ]
;       ai        aj funct
         1         4     1
         1         5     1
         1         6     1
         1        26     1
         2         7     1
         2        20     1
         2        30     1
         2        31     1
         2        42     1
         3         7     1
         3        20     1
         3        26     1
         3        27     1
         3        28     1
         3        29     1
         4         6     1
         4        25     1
         4        31     1
         5         8     1
         5        19     1
         5        21     1
         5        24     1
         5        26     1
         5        30     1
         5        42     1
         6         9     1
         6        11     1
         6        22     1
         6        23     1
         6        32     1
         6        39     1
         7        10     1
         7        12     1
         7        21     1
         7        24     1
         7        26     1
         7        31     1
         7        33     1
         8        11     1
         8        20     1
         8        25     1
         8        34     1
         8        39     1
         9        12     1
         9        19     1
        10        13     1
        10        18     1
        10        32     1
        10        39     1
        11        14     1
        11        16     1
        11        33     1
        11        35     1
        11        38     1
        12        15     1
        12        17     1
        12        34     1
        12        36     1
        12        39     1
        13        16     1
        13        19     1
        13        37     1
        13        38     1
        14        17     1
        14        18     1
        15        35     1
        15        38     1
        16        36     1
        17        37     1
        17        38     1
        18        19     1
        18        35     1
        18        37     1
        19        20     1
        19        25     1
        19        32     1
        19        34     1
        20        26     1
        20        31     1
        20        40     1
        20        41     1
        21        25     1
        21        41     1
        24        25     1
        24        40     1
        25        27     1
        25        28     1
        25        29     1
        25        31     1
        32        33     1
        33        34     1
        35        36     1
        36        37     1
        40        41     1
