; ITP file created by ByteFF-joint-25, 2026-02-18 03:15:27.658757

[ atomtypes ]
;name           bonded.type        at.num        mass        charge   ptype           sigma         epsilon
 c0bf                                   6      0.0000       0.00000       A     3.39732e-01     4.51256e-01    ;  uncertainty sigma = 0.000013, epsilon = 0.001265
 n1bf                                   7      0.0000       0.00000       A     3.18098e-01     6.83124e-01    ;  uncertainty sigma = 0.000073, epsilon = 0.006424
 c2bf                                   6      0.0000       0.00000       A     3.31512e-01     4.12381e-01    ;  uncertainty sigma = 0.000058, epsilon = 0.001500
 n3bf                                   7      0.0000       0.00000       A     3.36544e-01     4.71564e-01    ;  uncertainty sigma = 0.000086, epsilon = 0.005524
 n4bf                                   7      0.0000       0.00000       A     3.27488e-01     6.57271e-01    ;  uncertainty sigma = 0.000130, epsilon = 0.010556
 c5bf                                   6      0.0000       0.00000       A     3.39797e-01     4.51347e-01    ;  uncertainty sigma = 0.000040, epsilon = 0.003032
 c6bf                                   6      0.0000       0.00000       A     3.31581e-01     4.13815e-01    ;  uncertainty sigma = 0.000032, epsilon = 0.001364
 c7bf                                   6      0.0000       0.00000       A     3.31512e-01     4.13187e-01    ;  uncertainty sigma = 0.000002, epsilon = 0.000604
 c8bf                                   6      0.0000       0.00000       A     3.31520e-01     4.13286e-01    ;  uncertainty sigma = 0.000002, epsilon = 0.000576
 c9bf                                   6      0.0000       0.00000       A     3.31518e-01     4.13337e-01    ;  uncertainty sigma = 0.000003, epsilon = 0.000580
 c10bf                                  6      0.0000       0.00000       A     3.31520e-01     4.13286e-01    ;  uncertainty sigma = 0.000002, epsilon = 0.000576
 c11bf                                  6      0.0000       0.00000       A     3.31512e-01     4.13187e-01    ;  uncertainty sigma = 0.000002, epsilon = 0.000604
 c12bf                                  6      0.0000       0.00000       A     3.31582e-01     4.14006e-01    ;  uncertainty sigma = 0.000027, epsilon = 0.001405
 c13bf                                  6      0.0000       0.00000       A     3.31510e-01     4.13156e-01    ;  uncertainty sigma = 0.000002, epsilon = 0.000626
 c14bf                                  6      0.0000       0.00000       A     3.31521e-01     4.13335e-01    ;  uncertainty sigma = 0.000002, epsilon = 0.000635
 c15bf                                  6      0.0000       0.00000       A     3.31516e-01     4.13305e-01    ;  uncertainty sigma = 0.000006, epsilon = 0.000675
 c16bf                                  6      0.0000       0.00000       A     3.31533e-01     4.13612e-01    ;  uncertainty sigma = 0.000011, epsilon = 0.000599
 c17bf                                  6      0.0000       0.00000       A     3.31535e-01     4.12964e-01    ;  uncertainty sigma = 0.000012, epsilon = 0.000571
 c18bf                                  6      0.0000       0.00000       A     3.31514e-01     4.13341e-01    ;  uncertainty sigma = 0.000011, epsilon = 0.001084
 n19bf                                  7      0.0000       0.00000       A     3.38406e-01     3.93620e-01    ;  uncertainty sigma = 0.000010, epsilon = 0.000524
 c20bf                                  6      0.0000       0.00000       A     3.31526e-01     4.12971e-01    ;  uncertainty sigma = 0.000008, epsilon = 0.000612
 c21bf                                  6      0.0000       0.00000       A     3.31524e-01     4.12889e-01    ;  uncertainty sigma = 0.000011, epsilon = 0.000443
 n22bf                                  7      0.0000       0.00000       A     3.38405e-01     3.93292e-01    ;  uncertainty sigma = 0.000007, epsilon = 0.000674
 c23bf                                  6      0.0000       0.00000       A     3.31536e-01     4.13259e-01    ;  uncertainty sigma = 0.000031, epsilon = 0.001099
 c24bf                                  6      0.0000       0.00000       A     3.31544e-01     4.14220e-01    ;  uncertainty sigma = 0.000018, epsilon = 0.000894
 o25bf                                  8      0.0000       0.00000       A     3.04823e-01     6.12187e-01    ;  uncertainty sigma = 0.000062, epsilon = 0.001949
 h26bf                                  1      0.0000       0.00000       A     2.42208e-01     8.66970e-02    ;  uncertainty sigma = 0.000028, epsilon = 0.000664
 h27bf                                  1      0.0000       0.00000       A     2.42208e-01     8.66970e-02    ;  uncertainty sigma = 0.000028, epsilon = 0.000664
 h28bf                                  1      0.0000       0.00000       A     2.42208e-01     8.66970e-02    ;  uncertainty sigma = 0.000028, epsilon = 0.000664
 h29bf                                  1      0.0000       0.00000       A     1.10696e-01     4.12787e-02    ;  uncertainty sigma = 0.000128, epsilon = 0.001559
 h30bf                                  1      0.0000       0.00000       A     1.10548e-01     4.04868e-02    ;  uncertainty sigma = 0.000082, epsilon = 0.001718
 h31bf                                  1      0.0000       0.00000       A     2.62558e-01     6.70852e-02    ;  uncertainty sigma = 0.000008, epsilon = 0.000421
 h32bf                                  1      0.0000       0.00000       A     2.62558e-01     6.70264e-02    ;  uncertainty sigma = 0.000011, epsilon = 0.000445
 h33bf                                  1      0.0000       0.00000       A     2.62552e-01     6.70647e-02    ;  uncertainty sigma = 0.000011, epsilon = 0.000453
 h34bf                                  1      0.0000       0.00000       A     2.62558e-01     6.70264e-02    ;  uncertainty sigma = 0.000011, epsilon = 0.000445
 h35bf                                  1      0.0000       0.00000       A     2.62558e-01     6.70852e-02    ;  uncertainty sigma = 0.000008, epsilon = 0.000420
 h36bf                                  1      0.0000       0.00000       A     2.62558e-01     6.70852e-02    ;  uncertainty sigma = 0.000008, epsilon = 0.000420
 h37bf                                  1      0.0000       0.00000       A     2.62564e-01     6.70137e-02    ;  uncertainty sigma = 0.000010, epsilon = 0.000418
 h38bf                                  1      0.0000       0.00000       A     2.62560e-01     6.70283e-02    ;  uncertainty sigma = 0.000012, epsilon = 0.000523
 h39bf                                  1      0.0000       0.00000       A     2.53620e-01     6.67973e-02    ;  uncertainty sigma = 0.000030, epsilon = 0.000847
 h40bf                                  1      0.0000       0.00000       A     2.53632e-01     6.70131e-02    ;  uncertainty sigma = 0.000028, epsilon = 0.000785
 h41bf                                  1      0.0000       0.00000       A     2.53626e-01     6.70247e-02    ;  uncertainty sigma = 0.000030, epsilon = 0.000826
 h42bf                                  1      0.0000       0.00000       A     2.62551e-01     6.72687e-02    ;  uncertainty sigma = 0.000010, epsilon = 0.000756
 h43bf                                  1      0.0000       0.00000       A     1.10696e-01     4.12787e-02    ;  uncertainty sigma = 0.000128, epsilon = 0.001559

[ moleculetype ]
;name             nrexcl
 MOL                   3

[ atoms ]
;       nr            type      resi   res      atom      cgnr      charge          mass ; qtot
         1            c0bf         1   UNL        c0         1     0.07531       12.0110 ; qtot    0.075
         2            n1bf         1   UNL        n1         2    -0.41674       14.0070 ; qtot   -0.341
         3            c2bf         1   UNL        c2         3     0.46212       12.0110 ; qtot    0.121
         4            n3bf         1   UNL        n3         4    -0.47751       14.0070 ; qtot   -0.357
         5            n4bf         1   UNL        n4         5    -0.38173       14.0070 ; qtot   -0.739
         6            c5bf         1   UNL        c5         6     0.09089       12.0110 ; qtot   -0.648
         7            c6bf         1   UNL        c6         7    -0.15384       12.0110 ; qtot   -0.801
         8            c7bf         1   UNL        c7         8    -0.09654       12.0110 ; qtot   -0.898
         9            c8bf         1   UNL        c8         9    -0.11798       12.0110 ; qtot   -1.016
        10            c9bf         1   UNL        c9        10    -0.09151       12.0110 ; qtot   -1.108
        11           c10bf         1   UNL       c10        11    -0.11798       12.0110 ; qtot   -1.226
        12           c11bf         1   UNL       c11        12    -0.09654       12.0110 ; qtot   -1.322
        13           c12bf         1   UNL       c12        13    -0.14112       12.0110 ; qtot   -1.463
        14           c13bf         1   UNL       c13        14    -0.08614       12.0110 ; qtot   -1.549
        15           c14bf         1   UNL       c14        15    -0.11319       12.0110 ; qtot   -1.662
        16           c15bf         1   UNL       c15        16    -0.07907       12.0110 ; qtot   -1.742
        17           c16bf         1   UNL       c16        17    -0.12733       12.0110 ; qtot   -1.869
        18           c17bf         1   UNL       c17        18     0.35305       12.0110 ; qtot   -1.516
        19           c18bf         1   UNL       c18        19     0.28731       12.0110 ; qtot   -1.229
        20           n19bf         1   UNL       n19        20    -0.62237       14.0070 ; qtot   -1.851
        21           c20bf         1   UNL       c20        21     0.27915       12.0110 ; qtot   -1.572
        22           c21bf         1   UNL       c21        22     0.28779       12.0110 ; qtot   -1.284
        23           n22bf         1   UNL       n22        23    -0.63744       14.0070 ; qtot   -1.921
        24           c23bf         1   UNL       c23        24    -0.05759       12.0110 ; qtot   -1.979
        25           c24bf         1   UNL       c24        25     0.70308       12.0110 ; qtot   -1.276
        26           o25bf         1   UNL       o25        26    -0.44106       15.9990 ; qtot   -1.717
        27           h26bf         1   UNL       h26        27     0.09057        1.0080 ; qtot   -1.626
        28           h27bf         1   UNL       h27        28     0.09057        1.0080 ; qtot   -1.536
        29           h28bf         1   UNL       h28        29     0.09057        1.0080 ; qtot   -1.445
        30           h29bf         1   UNL       h29        30     0.33582        1.0080 ; qtot   -1.109
        31           h30bf         1   UNL       h30        31     0.35440        1.0080 ; qtot   -0.755
        32           h31bf         1   UNL       h31        32     0.14519        1.0080 ; qtot   -0.610
        33           h32bf         1   UNL       h32        33     0.14717        1.0080 ; qtot   -0.463
        34           h33bf         1   UNL       h33        34     0.13386        1.0080 ; qtot   -0.329
        35           h34bf         1   UNL       h34        35     0.14717        1.0080 ; qtot   -0.182
        36           h35bf         1   UNL       h35        36     0.14519        1.0080 ; qtot   -0.036
        37           h36bf         1   UNL       h36        37     0.14740        1.0080 ; qtot    0.111
        38           h37bf         1   UNL       h37        38     0.14900        1.0080 ; qtot    0.260
        39           h38bf         1   UNL       h38        39     0.14446        1.0080 ; qtot    0.404
        40           h39bf         1   UNL       h39        40     0.03543        1.0080 ; qtot    0.440
        41           h40bf         1   UNL       h40        41     0.03491        1.0080 ; qtot    0.475
        42           h41bf         1   UNL       h41        42     0.03277        1.0080 ; qtot    0.508
        43           h42bf         1   UNL       h42        43     0.15672        1.0080 ; qtot    0.664
        44           h43bf         1   UNL       h43        44     0.33578        1.0080 ; qtot    1.000

[ bonds ]
;       ai        aj funct               r               k
         1         2     1        0.146681   260602.881348    ;  uncertainty r = 0.000143, k = 13.029281
         1        27     1        0.109174   309405.420996    ;  uncertainty r = 0.000045, k = 3.044469
         1        28     1        0.109174   309405.420996    ;  uncertainty r = 0.000045, k = 3.044469
         1        29     1        0.109174   309405.420996    ;  uncertainty r = 0.000045, k = 3.044469
         2         3     1        0.135483   280628.393018    ;  uncertainty r = 0.000172, k = 43.937728
         2        25     1        0.142617   296977.429199    ;  uncertainty r = 0.000342, k = 74.592793
         3         4     1        0.132957   308233.676270    ;  uncertainty r = 0.000232, k = 39.227304
         3         5     1        0.133641   523376.876660    ;  uncertainty r = 0.000100, k = 44.741034
         4        30     1        0.101396   420869.489551    ;  uncertainty r = 0.000073, k = 12.258235
         4        44     1        0.101396   420869.489551    ;  uncertainty r = 0.000073, k = 12.258266
         5         6     1        0.150101   230544.707666    ;  uncertainty r = 0.000269, k = 76.803605
         5        31     1        0.101501   429624.734277    ;  uncertainty r = 0.000023, k = 4.106225
         6         7     1        0.150975   204394.043701    ;  uncertainty r = 0.000149, k = 20.066170
         6        13     1        0.150907   204145.491016    ;  uncertainty r = 0.000160, k = 19.394451
         6        25     1        0.153936   175864.087256    ;  uncertainty r = 0.000150, k = 17.945406
         7         8     1        0.139869   349456.955078    ;  uncertainty r = 0.000058, k = 6.929880
         7        12     1        0.139869   349456.955078    ;  uncertainty r = 0.000058, k = 6.929880
         8         9     1        0.139524   365940.393066    ;  uncertainty r = 0.000032, k = 1.462855
         8        32     1        0.108797   332693.323926    ;  uncertainty r = 0.000026, k = 2.526496
         9        10     1        0.139549   373468.937207    ;  uncertainty r = 0.000012, k = 2.413507
         9        33     1        0.108791   333723.950586    ;  uncertainty r = 0.000024, k = 1.087677
        10        11     1        0.139549   373468.937207    ;  uncertainty r = 0.000012, k = 2.413507
        10        34     1        0.108841   334503.956055    ;  uncertainty r = 0.000012, k = 0.652789
        11        12     1        0.139524   365940.393066    ;  uncertainty r = 0.000032, k = 1.462855
        11        35     1        0.108791   333723.976123    ;  uncertainty r = 0.000024, k = 1.087668
        12        36     1        0.108797   332693.323926    ;  uncertainty r = 0.000026, k = 2.526499
        13        14     1        0.139693   350309.205029    ;  uncertainty r = 0.000043, k = 5.525375
        13        24     1        0.139317   343514.010059    ;  uncertainty r = 0.000061, k = 5.900989
        14        15     1        0.139469   369280.161768    ;  uncertainty r = 0.000026, k = 1.400079
        14        37     1        0.108776   332840.519824    ;  uncertainty r = 0.000030, k = 2.465001
        15        16     1        0.139248   369949.923535    ;  uncertainty r = 0.000045, k = 2.917271
        15        38     1        0.108767   333048.442969    ;  uncertainty r = 0.000025, k = 1.126842
        16        17     1        0.139873   343906.898486    ;  uncertainty r = 0.000029, k = 3.610765
        16        39     1        0.108733   334094.085449    ;  uncertainty r = 0.000018, k = 0.633106
        17        18     1        0.147404   256579.560840    ;  uncertainty r = 0.000068, k = 7.634632
        17        24     1        0.139450   337670.251172    ;  uncertainty r = 0.000068, k = 4.705509
        18        19     1        0.139898   358035.789453    ;  uncertainty r = 0.000030, k = 9.529096
        18        23     1        0.133831   395241.519141    ;  uncertainty r = 0.000114, k = 2.061199
        19        20     1        0.132865   427329.816406    ;  uncertainty r = 0.000094, k = 5.724415
        19        40     1        0.109115   342123.310156    ;  uncertainty r = 0.000023, k = 1.249584
        20        21     1        0.133391   449283.865039    ;  uncertainty r = 0.000064, k = 4.367922
        21        22     1        0.139259   372692.992139    ;  uncertainty r = 0.000016, k = 2.441631
        21        41     1        0.109126   343289.181348    ;  uncertainty r = 0.000036, k = 1.762673
        22        23     1        0.132954   444422.008008    ;  uncertainty r = 0.000036, k = 9.781797
        22        42     1        0.109146   341748.859521    ;  uncertainty r = 0.000017, k = 2.455707
        24        43     1        0.108743   333143.875146    ;  uncertainty r = 0.000020, k = 2.912633
        25        26     1        0.119980   628990.138086    ;  uncertainty r = 0.000232, k = 12.942179

[ angles ]
;       ai        aj        ak funct           theta             cth
         1         2         3     1      118.639038      373.068630    ;  uncertainty theta = 0.007053, k = 0.430287
         1         2        25     1      119.076622      400.263928    ;  uncertainty theta = 0.008080, k = 0.316068
         2         1        27     1      107.362183      470.622814    ;  uncertainty theta = 0.002476, k = 0.220753
         2         1        28     1      107.362183      470.622814    ;  uncertainty theta = 0.002476, k = 0.220753
         2         1        29     1      107.362183      470.622814    ;  uncertainty theta = 0.002476, k = 0.220753
         2         3         4     1      125.899826      536.269337    ;  uncertainty theta = 0.010551, k = 0.299625
         2         3         5     1      113.193924      702.703362    ;  uncertainty theta = 0.009502, k = 0.274174
         2        25         6     1      109.961769      476.265047    ;  uncertainty theta = 0.006613, k = 0.652506
         2        25        26     1      125.508827      649.701794    ;  uncertainty theta = 0.010573, k = 0.151492
         3         2        25     1      110.408546      711.107880    ;  uncertainty theta = 0.009881, k = 0.266784
         3         4        30     1      114.821800      368.001174    ;  uncertainty theta = 0.004224, k = 0.186891
         3         4        44     1      114.821800      368.001142    ;  uncertainty theta = 0.004224, k = 0.186891
         3         5         6     1      111.750687      594.280584    ;  uncertainty theta = 0.019275, k = 0.459975
         3         5        31     1      119.382553      353.668439    ;  uncertainty theta = 0.010145, k = 0.152610
         4         3         5     1      128.556000      642.790750    ;  uncertainty theta = 0.009936, k = 0.330368
         5         6         7     1      110.460434      632.624809    ;  uncertainty theta = 0.005178, k = 0.185747
         5         6        13     1      110.350052      632.135965    ;  uncertainty theta = 0.005277, k = 0.191746
         5         6        25     1      102.870018      925.017242    ;  uncertainty theta = 0.007229, k = 0.531227
         6         5        31     1      117.291641      301.371185    ;  uncertainty theta = 0.006714, k = 0.480634
         6         7         8     1      117.074219      374.316405    ;  uncertainty theta = 0.007313, k = 0.169097
         6         7        12     1      117.074219      374.316405    ;  uncertainty theta = 0.007313, k = 0.169097
         6        13        14     1      117.208862      370.997603    ;  uncertainty theta = 0.007331, k = 0.187124
         6        13        24     1      116.480873      372.616017    ;  uncertainty theta = 0.006953, k = 0.141697
         6        25        26     1      125.519859      411.082661    ;  uncertainty theta = 0.008567, k = 0.131742
         7         6        13     1      113.149841      513.663058    ;  uncertainty theta = 0.011126, k = 0.357337
         7         6        25     1      109.141335      488.728114    ;  uncertainty theta = 0.009732, k = 0.152365
         7         8         9     1      121.038895      513.256252    ;  uncertainty theta = 0.003562, k = 0.078827
         7         8        32     1      118.396080      273.185271    ;  uncertainty theta = 0.004089, k = 0.068593
         7        12        11     1      121.038895      513.256252    ;  uncertainty theta = 0.003562, k = 0.078827
         7        12        36     1      118.396095      273.185271    ;  uncertainty theta = 0.004089, k = 0.068593
         8         7        12     1      123.006119      449.964984    ;  uncertainty theta = 0.007050, k = 0.147704
         8         9        10     1      119.486618      517.107663    ;  uncertainty theta = 0.001936, k = 0.033500
         8         9        33     1      119.692894      282.691587    ;  uncertainty theta = 0.002820, k = 0.049810
         9         8        32     1      120.085548      298.145592    ;  uncertainty theta = 0.002287, k = 0.040415
         9        10        11     1      118.018600      533.452020    ;  uncertainty theta = 0.001323, k = 0.059913
         9        10        34     1      120.465477      288.877473    ;  uncertainty theta = 0.001797, k = 0.017289
        10         9        33     1      120.779457      288.986293    ;  uncertainty theta = 0.001247, k = 0.025032
        10        11        12     1      119.486618      517.107663    ;  uncertainty theta = 0.001936, k = 0.033500
        10        11        35     1      120.779457      288.986261    ;  uncertainty theta = 0.001247, k = 0.025032
        11        10        34     1      120.465477      288.877473    ;  uncertainty theta = 0.001797, k = 0.017289
        11        12        36     1      120.085548      298.145624    ;  uncertainty theta = 0.002287, k = 0.040414
        12        11        35     1      119.692894      282.691555    ;  uncertainty theta = 0.002820, k = 0.049810
        13         6        25     1      109.040543      489.102233    ;  uncertainty theta = 0.008744, k = 0.149460
        13        14        15     1      120.195091      513.704684    ;  uncertainty theta = 0.003805, k = 0.047839
        13        14        37     1      118.534325      272.913268    ;  uncertainty theta = 0.004431, k = 0.064430
        13        24        17     1      122.207863      517.050045    ;  uncertainty theta = 0.002056, k = 0.175045
        13        24        43     1      118.458511      271.147728    ;  uncertainty theta = 0.003806, k = 0.084063
        14        13        24     1      123.391830      433.788151    ;  uncertainty theta = 0.006016, k = 0.164106
        14        15        16     1      120.346130      511.481902    ;  uncertainty theta = 0.002247, k = 0.085215
        14        15        38     1      119.801170      282.297741    ;  uncertainty theta = 0.002463, k = 0.040817
        15        14        37     1      120.271019      300.226707    ;  uncertainty theta = 0.002853, k = 0.028715
        15        16        17     1      120.030228      530.052903    ;  uncertainty theta = 0.001936, k = 0.089435
        15        16        39     1      120.409195      292.600975    ;  uncertainty theta = 0.001468, k = 0.032707
        16        15        38     1      120.328331      284.128369    ;  uncertainty theta = 0.000676, k = 0.033437
        16        17        18     1      119.379715      399.604879    ;  uncertainty theta = 0.001662, k = 0.079784
        16        17        24     1      121.213425      419.729526    ;  uncertainty theta = 0.002103, k = 0.117391
        17        16        39     1      118.149498      268.516800    ;  uncertainty theta = 0.001941, k = 0.099827
        17        18        19     1      120.407631      386.809383    ;  uncertainty theta = 0.003189, k = 0.159327
        17        18        23     1      118.022049      462.781804    ;  uncertainty theta = 0.002201, k = 0.162254
        17        24        43     1      118.111916      272.714526    ;  uncertainty theta = 0.003712, k = 0.047510
        18        17        24     1      118.313095      410.137309    ;  uncertainty theta = 0.002930, k = 0.169529
        18        19        20     1      122.132462      616.520853    ;  uncertainty theta = 0.002497, k = 0.062745
        18        19        40     1      120.481468      255.690818    ;  uncertainty theta = 0.004883, k = 0.177302
        18        23        22     1      116.030128      461.440085    ;  uncertainty theta = 0.003885, k = 0.229738
        19        18        23     1      120.582092      496.585436    ;  uncertainty theta = 0.002343, k = 0.142618
        19        20        21     1      115.918495      444.859574    ;  uncertainty theta = 0.004049, k = 0.115586
        20        19        40     1      117.263809      351.130498    ;  uncertainty theta = 0.002500, k = 0.059947
        20        21        22     1      120.223282      607.441389    ;  uncertainty theta = 0.003911, k = 0.111597
        20        21        41     1      117.472717      341.227749    ;  uncertainty theta = 0.001923, k = 0.091592
        21        22        23     1      121.228737      616.715254    ;  uncertainty theta = 0.003936, k = 0.127243
        21        22        42     1      122.058914      276.101130    ;  uncertainty theta = 0.001731, k = 0.086662
        22        21        41     1      122.072739      272.407857    ;  uncertainty theta = 0.002082, k = 0.090096
        23        22        42     1      117.059128      331.796352    ;  uncertainty theta = 0.001207, k = 0.132255
        27         1        28     1      107.627052      325.730906    ;  uncertainty theta = 0.003369, k = 0.100967
        27         1        29     1      107.627052      325.730906    ;  uncertainty theta = 0.003369, k = 0.100967
        28         1        29     1      107.627052      325.730906    ;  uncertainty theta = 0.003369, k = 0.100967
        30         4        44     1      112.418320      264.652971    ;  uncertainty theta = 0.015777, k = 0.354183

[ dihedrals ] ; propers for gromacs 4.5 or higher, use funct 9
;       ai        aj        ak        al funct           phase               k        pn
         1         2         3         4     9        0.000000        0.020220         1    ;  uncertainty k = 0.657937
         1         2         3         4     9      180.000000        6.877463         2    ;  uncertainty k = 0.678113
         1         2         3         4     9        0.000000        0.933687         3    ;  uncertainty k = 0.728898
         1         2         3         4     9      180.000000        0.009158         4    ;  uncertainty k = 0.300485
         1         2         3         5     9        0.000000       -0.356115         1    ;  uncertainty k = 2.518191
         1         2         3         5     9      180.000000        8.283854         2    ;  uncertainty k = 0.415941
         1         2         3         5     9        0.000000        0.272445         3    ;  uncertainty k = 0.120757
         1         2         3         5     9      180.000000       -0.125980         4    ;  uncertainty k = 0.245883
         1         2        25         6     9        0.000000        5.315178         1    ;  uncertainty k = 1.998701
         1         2        25         6     9      180.000000        4.608340         2    ;  uncertainty k = 1.496939
         1         2        25         6     9        0.000000        1.271077         3    ;  uncertainty k = 0.828356
         1         2        25         6     9      180.000000        0.033156         4    ;  uncertainty k = 0.568101
         1         2        25        26     9        0.000000       -0.515841         1    ;  uncertainty k = 3.156148
         1         2        25        26     9      180.000000        8.416191         2    ;  uncertainty k = 0.470256
         1         2        25        26     9        0.000000        0.571768         3    ;  uncertainty k = 0.526356
         1         2        25        26     9      180.000000        0.206425         4    ;  uncertainty k = 0.242867
         2         3         4        30     9        0.000000        7.495475         1    ;  uncertainty k = 2.018544
         2         3         4        30     9      180.000000        9.518865         2    ;  uncertainty k = 0.609488
         2         3         4        30     9        0.000000        1.009625         3    ;  uncertainty k = 0.533193
         2         3         4        30     9      180.000000       -0.962191         4    ;  uncertainty k = 0.242201
         2         3         4        44     9        0.000000        7.495473         1    ;  uncertainty k = 2.018546
         2         3         4        44     9      180.000000        9.518867         2    ;  uncertainty k = 0.609488
         2         3         4        44     9        0.000000        1.009626         3    ;  uncertainty k = 0.533193
         2         3         4        44     9      180.000000       -0.962190         4    ;  uncertainty k = 0.242200
         2         3         5         6     9        0.000000        1.216637         1    ;  uncertainty k = 1.851010
         2         3         5         6     9      180.000000       14.836933         2    ;  uncertainty k = 0.431548
         2         3         5         6     9        0.000000       -0.181362         3    ;  uncertainty k = 0.984649
         2         3         5         6     9      180.000000       -0.541452         4    ;  uncertainty k = 0.214128
         2         3         5        31     9        0.000000        4.192861         1    ;  uncertainty k = 3.453401
         2         3         5        31     9      180.000000       10.610634         2    ;  uncertainty k = 0.634114
         2         3         5        31     9        0.000000        0.940964         3    ;  uncertainty k = 0.791708
         2         3         5        31     9      180.000000       -0.427268         4    ;  uncertainty k = 0.191048
         2        25         6         5     9        0.000000        0.026898         1    ;  uncertainty k = 2.722767
         2        25         6         5     9      180.000000        6.600280         2    ;  uncertainty k = 0.954493
         2        25         6         5     9        0.000000        0.270507         3    ;  uncertainty k = 0.664803
         2        25         6         5     9      180.000000        0.250183         4    ;  uncertainty k = 0.591147
         2        25         6         7     9        0.000000       -2.102597         1    ;  uncertainty k = 3.102238
         2        25         6         7     9      180.000000        1.474984         2    ;  uncertainty k = 1.103387
         2        25         6         7     9        0.000000        1.021732         3    ;  uncertainty k = 0.532805
         2        25         6         7     9      180.000000        0.737330         4    ;  uncertainty k = 0.291002
         2        25         6        13     9        0.000000       -2.026784         1    ;  uncertainty k = 3.130871
         2        25         6        13     9      180.000000        1.501680         2    ;  uncertainty k = 1.074273
         2        25         6        13     9        0.000000        1.048385         3    ;  uncertainty k = 0.549111
         2        25         6        13     9      180.000000        0.737802         4    ;  uncertainty k = 0.272028
         3         2         1        27     9        0.000000       -0.396418         1    ;  uncertainty k = 0.524313
         3         2         1        27     9      180.000000       -1.104407         2    ;  uncertainty k = 0.426496
         3         2         1        27     9        0.000000        0.442754         3    ;  uncertainty k = 0.213660
         3         2         1        27     9      180.000000        0.194733         4    ;  uncertainty k = 0.049391
         3         2         1        28     9        0.000000       -0.396418         1    ;  uncertainty k = 0.524313
         3         2         1        28     9      180.000000       -1.104407         2    ;  uncertainty k = 0.426496
         3         2         1        28     9        0.000000        0.442754         3    ;  uncertainty k = 0.213660
         3         2         1        28     9      180.000000        0.194733         4    ;  uncertainty k = 0.049391
         3         2         1        29     9        0.000000       -0.396418         1    ;  uncertainty k = 0.524313
         3         2         1        29     9      180.000000       -1.104407         2    ;  uncertainty k = 0.426496
         3         2         1        29     9        0.000000        0.442754         3    ;  uncertainty k = 0.213660
         3         2         1        29     9      180.000000        0.194733         4    ;  uncertainty k = 0.049391
         3         2        25         6     9        0.000000        3.107150         1    ;  uncertainty k = 1.849250
         3         2        25         6     9      180.000000        3.066216         2    ;  uncertainty k = 0.882201
         3         2        25         6     9        0.000000       -0.285893         3    ;  uncertainty k = 0.712736
         3         2        25         6     9      180.000000        0.753329         4    ;  uncertainty k = 0.259714
         3         2        25        26     9        0.000000        0.406781         1    ;  uncertainty k = 2.598331
         3         2        25        26     9      180.000000        7.636295         2    ;  uncertainty k = 0.797349
         3         2        25        26     9        0.000000        0.506697         3    ;  uncertainty k = 0.484035
         3         2        25        26     9      180.000000        0.070886         4    ;  uncertainty k = 0.264122
         3         5         6         7     9        0.000000        0.091811         1    ;  uncertainty k = 0.741142
         3         5         6         7     9      180.000000        1.014766         2    ;  uncertainty k = 0.553248
         3         5         6         7     9        0.000000        0.643088         3    ;  uncertainty k = 0.282748
         3         5         6         7     9      180.000000        0.484815         4    ;  uncertainty k = 0.293264
         3         5         6        13     9        0.000000        0.061871         1    ;  uncertainty k = 0.777593
         3         5         6        13     9      180.000000        0.999704         2    ;  uncertainty k = 0.537249
         3         5         6        13     9        0.000000        0.669381         3    ;  uncertainty k = 0.256511
         3         5         6        13     9      180.000000        0.502279         4    ;  uncertainty k = 0.305810
         3         5         6        25     9        0.000000        2.020599         1    ;  uncertainty k = 0.690692
         3         5         6        25     9      180.000000        2.318166         2    ;  uncertainty k = 1.059665
         3         5         6        25     9        0.000000        0.199857         3    ;  uncertainty k = 0.699828
         3         5         6        25     9      180.000000        0.438068         4    ;  uncertainty k = 0.468952
         4         3         2        25     9        0.000000       -0.586686         1    ;  uncertainty k = 0.774775
         4         3         2        25     9      180.000000        6.636751         2    ;  uncertainty k = 1.298463
         4         3         2        25     9        0.000000        0.201670         3    ;  uncertainty k = 0.743074
         4         3         2        25     9      180.000000       -0.088174         4    ;  uncertainty k = 0.478529
         4         3         5         6     9        0.000000        2.188014         1    ;  uncertainty k = 1.893592
         4         3         5         6     9      180.000000       10.144535         2    ;  uncertainty k = 0.979797
         4         3         5         6     9        0.000000        0.434811         3    ;  uncertainty k = 0.470363
         4         3         5         6     9      180.000000       -0.420942         4    ;  uncertainty k = 0.555914
         4         3         5        31     9        0.000000        2.256416         1    ;  uncertainty k = 2.728265
         4         3         5        31     9      180.000000        7.437433         2    ;  uncertainty k = 1.129202
         4         3         5        31     9        0.000000        0.944499         3    ;  uncertainty k = 0.181481
         4         3         5        31     9      180.000000       -0.270289         4    ;  uncertainty k = 0.314795
         5         3         2        25     9        0.000000       -0.153039         1    ;  uncertainty k = 1.721869
         5         3         2        25     9      180.000000        8.631896         2    ;  uncertainty k = 0.890565
         5         3         2        25     9        0.000000       -1.128578         3    ;  uncertainty k = 1.132200
         5         3         2        25     9      180.000000        0.000351         4    ;  uncertainty k = 0.465973
         5         3         4        30     9        0.000000        5.761295         1    ;  uncertainty k = 1.326850
         5         3         4        30     9      180.000000       10.436708         2    ;  uncertainty k = 0.346046
         5         3         4        30     9        0.000000        1.485194         3    ;  uncertainty k = 0.455012
         5         3         4        30     9      180.000000       -0.773238         4    ;  uncertainty k = 0.306951
         5         3         4        44     9        0.000000        5.761296         1    ;  uncertainty k = 1.326851
         5         3         4        44     9      180.000000       10.436706         2    ;  uncertainty k = 0.346045
         5         3         4        44     9        0.000000        1.485193         3    ;  uncertainty k = 0.455012
         5         3         4        44     9      180.000000       -0.773239         4    ;  uncertainty k = 0.306951
         5         6         7         8     9        0.000000       -1.006359         1    ;  uncertainty k = 1.282049
         5         6         7         8     9      180.000000        2.605369         2    ;  uncertainty k = 0.522487
         5         6         7         8     9        0.000000        0.536044         3    ;  uncertainty k = 0.227425
         5         6         7         8     9      180.000000        0.333205         4    ;  uncertainty k = 0.173230
         5         6         7        12     9        0.000000       -1.006359         1    ;  uncertainty k = 1.282049
         5         6         7        12     9      180.000000        2.605369         2    ;  uncertainty k = 0.522487
         5         6         7        12     9        0.000000        0.536044         3    ;  uncertainty k = 0.227425
         5         6         7        12     9      180.000000        0.333205         4    ;  uncertainty k = 0.173230
         5         6        13        14     9        0.000000       -1.022747         1    ;  uncertainty k = 1.222256
         5         6        13        14     9      180.000000        2.643887         2    ;  uncertainty k = 0.562229
         5         6        13        14     9        0.000000        0.531200         3    ;  uncertainty k = 0.212813
         5         6        13        14     9      180.000000        0.334975         4    ;  uncertainty k = 0.185055
         5         6        13        24     9        0.000000       -0.877056         1    ;  uncertainty k = 1.123058
         5         6        13        24     9      180.000000        2.618825         2    ;  uncertainty k = 0.643796
         5         6        13        24     9        0.000000        0.442386         3    ;  uncertainty k = 0.204713
         5         6        13        24     9      180.000000        0.325880         4    ;  uncertainty k = 0.200321
         5         6        25        26     9        0.000000       -1.351475         1    ;  uncertainty k = 2.878365
         5         6        25        26     9      180.000000        2.586288         2    ;  uncertainty k = 1.299806
         5         6        25        26     9        0.000000        0.299897         3    ;  uncertainty k = 0.631686
         5         6        25        26     9      180.000000        0.356820         4    ;  uncertainty k = 0.111975
         6         7         8         9     9        0.000000        0.032929         1    ;  uncertainty k = 0.381328
         6         7         8         9     9      180.000000        8.668432         2    ;  uncertainty k = 0.351930
         6         7         8         9     9        0.000000        1.456047         3    ;  uncertainty k = 0.364144
         6         7         8         9     9      180.000000        1.853281         4    ;  uncertainty k = 0.176603
         6         7         8        32     9        0.000000       -0.276887         1    ;  uncertainty k = 0.183727
         6         7         8        32     9      180.000000        6.938092         2    ;  uncertainty k = 0.459858
         6         7         8        32     9        0.000000        0.623177         3    ;  uncertainty k = 0.398127
         6         7         8        32     9      180.000000        1.065176         4    ;  uncertainty k = 0.272844
         6         7        12        11     9        0.000000        0.032929         1    ;  uncertainty k = 0.381328
         6         7        12        11     9      180.000000        8.668432         2    ;  uncertainty k = 0.351930
         6         7        12        11     9        0.000000        1.456047         3    ;  uncertainty k = 0.364144
         6         7        12        11     9      180.000000        1.853281         4    ;  uncertainty k = 0.176603
         6         7        12        36     9        0.000000       -0.276887         1    ;  uncertainty k = 0.183726
         6         7        12        36     9      180.000000        6.938093         2    ;  uncertainty k = 0.459858
         6         7        12        36     9        0.000000        0.623177         3    ;  uncertainty k = 0.398126
         6         7        12        36     9      180.000000        1.065175         4    ;  uncertainty k = 0.272845
         6        13        14        15     9        0.000000        0.045388         1    ;  uncertainty k = 0.357836
         6        13        14        15     9      180.000000        8.749224         2    ;  uncertainty k = 0.399068
         6        13        14        15     9        0.000000        1.452909         3    ;  uncertainty k = 0.372610
         6        13        14        15     9      180.000000        1.875644         4    ;  uncertainty k = 0.160710
         6        13        14        37     9        0.000000       -0.293330         1    ;  uncertainty k = 0.194725
         6        13        14        37     9      180.000000        6.905483         2    ;  uncertainty k = 0.443177
         6        13        14        37     9        0.000000        0.630463         3    ;  uncertainty k = 0.373841
         6        13        14        37     9      180.000000        1.056046         4    ;  uncertainty k = 0.260765
         6        13        24        17     9        0.000000        0.197727         1    ;  uncertainty k = 0.346124
         6        13        24        17     9      180.000000        8.336668         2    ;  uncertainty k = 0.299015
         6        13        24        17     9        0.000000        1.426167         3    ;  uncertainty k = 0.245864
         6        13        24        17     9      180.000000        1.887407         4    ;  uncertainty k = 0.151698
         6        13        24        43     9        0.000000       -0.268529         1    ;  uncertainty k = 0.193093
         6        13        24        43     9      180.000000        7.085187         2    ;  uncertainty k = 0.458479
         6        13        24        43     9        0.000000        0.615231         3    ;  uncertainty k = 0.393314
         6        13        24        43     9      180.000000        1.122017         4    ;  uncertainty k = 0.267784
         7         6         5        31     9        0.000000        2.192743         1    ;  uncertainty k = 1.168889
         7         6         5        31     9      180.000000        0.278657         2    ;  uncertainty k = 1.126461
         7         6         5        31     9        0.000000        0.581789         3    ;  uncertainty k = 0.409016
         7         6         5        31     9      180.000000        0.050893         4    ;  uncertainty k = 0.133681
         7         6        13        14     9        0.000000        0.680881         1    ;  uncertainty k = 0.310505
         7         6        13        14     9      180.000000        1.262797         2    ;  uncertainty k = 0.475239
         7         6        13        14     9        0.000000        0.277081         3    ;  uncertainty k = 0.309514
         7         6        13        14     9      180.000000        0.215437         4    ;  uncertainty k = 0.017794
         7         6        13        24     9        0.000000        0.725956         1    ;  uncertainty k = 0.357917
         7         6        13        24     9      180.000000        1.184712         2    ;  uncertainty k = 0.527646
         7         6        13        24     9        0.000000        0.201273         3    ;  uncertainty k = 0.328064
         7         6        13        24     9      180.000000        0.212428         4    ;  uncertainty k = 0.025793
         7         6        25        26     9        0.000000       -0.742446         1    ;  uncertainty k = 1.309835
         7         6        25        26     9      180.000000        3.252605         2    ;  uncertainty k = 0.704089
         7         6        25        26     9        0.000000        0.415226         3    ;  uncertainty k = 0.232107
         7         6        25        26     9      180.000000        0.072409         4    ;  uncertainty k = 0.180997
         7         8         9        10     9        0.000000        0.005132         1    ;  uncertainty k = 0.242164
         7         8         9        10     9      180.000000       13.352664         2    ;  uncertainty k = 0.284060
         7         8         9        10     9        0.000000       -0.876868         3    ;  uncertainty k = 0.537707
         7         8         9        10     9      180.000000        0.737381         4    ;  uncertainty k = 0.245374
         7         8         9        33     9        0.000000        0.129489         1    ;  uncertainty k = 0.312671
         7         8         9        33     9      180.000000        7.427846         2    ;  uncertainty k = 0.328692
         7         8         9        33     9        0.000000        1.481585         3    ;  uncertainty k = 0.152720
         7         8         9        33     9      180.000000        1.803538         4    ;  uncertainty k = 0.149501
         7        12        11        10     9        0.000000        0.005132         1    ;  uncertainty k = 0.242164
         7        12        11        10     9      180.000000       13.352664         2    ;  uncertainty k = 0.284060
         7        12        11        10     9        0.000000       -0.876868         3    ;  uncertainty k = 0.537707
         7        12        11        10     9      180.000000        0.737381         4    ;  uncertainty k = 0.245374
         7        12        11        35     9        0.000000        0.129490         1    ;  uncertainty k = 0.312672
         7        12        11        35     9      180.000000        7.427846         2    ;  uncertainty k = 0.328691
         7        12        11        35     9        0.000000        1.481584         3    ;  uncertainty k = 0.152719
         7        12        11        35     9      180.000000        1.803538         4    ;  uncertainty k = 0.149501
         8         7         6        13     9        0.000000        0.598409         1    ;  uncertainty k = 0.327190
         8         7         6        13     9      180.000000        1.352126         2    ;  uncertainty k = 0.483211
         8         7         6        13     9        0.000000        0.281953         3    ;  uncertainty k = 0.317529
         8         7         6        13     9      180.000000        0.242029         4    ;  uncertainty k = 0.031127
         8         7         6        25     9        0.000000        0.270089         1    ;  uncertainty k = 1.215594
         8         7         6        25     9      180.000000        0.970682         2    ;  uncertainty k = 0.379853
         8         7         6        25     9        0.000000        0.486667         3    ;  uncertainty k = 0.110642
         8         7         6        25     9      180.000000        0.249509         4    ;  uncertainty k = 0.167504
         8         7        12        11     9        0.000000       -0.240734         1    ;  uncertainty k = 0.377669
         8         7        12        11     9      180.000000       12.023573         2    ;  uncertainty k = 0.322594
         8         7        12        11     9        0.000000       -0.630710         3    ;  uncertainty k = 0.226694
         8         7        12        11     9      180.000000        0.783826         4    ;  uncertainty k = 0.301902
         8         7        12        36     9        0.000000        0.252148         1    ;  uncertainty k = 0.138567
         8         7        12        36     9      180.000000        7.620992         2    ;  uncertainty k = 0.536106
         8         7        12        36     9        0.000000        1.293074         3    ;  uncertainty k = 0.300641
         8         7        12        36     9      180.000000        1.649204         4    ;  uncertainty k = 0.194464
         8         9        10        11     9        0.000000       -0.006370         1    ;  uncertainty k = 0.040989
         8         9        10        11     9      180.000000       14.797851         2    ;  uncertainty k = 0.237722
         8         9        10        11     9        0.000000       -1.169438         3    ;  uncertainty k = 0.405008
         8         9        10        11     9      180.000000        0.534938         4    ;  uncertainty k = 0.272125
         8         9        10        34     9        0.000000        0.023623         1    ;  uncertainty k = 0.110077
         8         9        10        34     9      180.000000        7.495127         2    ;  uncertainty k = 0.205716
         8         9        10        34     9        0.000000        1.458527         3    ;  uncertainty k = 0.253934
         8         9        10        34     9      180.000000        1.798438         4    ;  uncertainty k = 0.212079
         9         8         7        12     9        0.000000       -0.240734         1    ;  uncertainty k = 0.377669
         9         8         7        12     9      180.000000       12.023573         2    ;  uncertainty k = 0.322594
         9         8         7        12     9        0.000000       -0.630710         3    ;  uncertainty k = 0.226694
         9         8         7        12     9      180.000000        0.783826         4    ;  uncertainty k = 0.301902
         9        10        11        12     9        0.000000       -0.006370         1    ;  uncertainty k = 0.040989
         9        10        11        12     9      180.000000       14.797851         2    ;  uncertainty k = 0.237722
         9        10        11        12     9        0.000000       -1.169438         3    ;  uncertainty k = 0.405008
         9        10        11        12     9      180.000000        0.534938         4    ;  uncertainty k = 0.272125
         9        10        11        35     9        0.000000       -0.019978         1    ;  uncertainty k = 0.134329
         9        10        11        35     9      180.000000        7.715563         2    ;  uncertainty k = 0.305080
         9        10        11        35     9        0.000000        1.421882         3    ;  uncertainty k = 0.287489
         9        10        11        35     9      180.000000        1.773059         4    ;  uncertainty k = 0.137712
        10         9         8        32     9        0.000000       -0.004880         1    ;  uncertainty k = 0.143286
        10         9         8        32     9      180.000000        8.039949         2    ;  uncertainty k = 0.374443
        10         9         8        32     9        0.000000        1.349892         3    ;  uncertainty k = 0.280047
        10         9         8        32     9      180.000000        1.833069         4    ;  uncertainty k = 0.108033
        10        11        12        36     9        0.000000       -0.004879         1    ;  uncertainty k = 0.143286
        10        11        12        36     9      180.000000        8.039949         2    ;  uncertainty k = 0.374443
        10        11        12        36     9        0.000000        1.349892         3    ;  uncertainty k = 0.280046
        10        11        12        36     9      180.000000        1.833069         4    ;  uncertainty k = 0.108033
        11        10         9        33     9        0.000000       -0.019978         1    ;  uncertainty k = 0.134330
        11        10         9        33     9      180.000000        7.715563         2    ;  uncertainty k = 0.305081
        11        10         9        33     9        0.000000        1.421883         3    ;  uncertainty k = 0.287490
        11        10         9        33     9      180.000000        1.773059         4    ;  uncertainty k = 0.137712
        12         7         6        13     9        0.000000        0.598409         1    ;  uncertainty k = 0.327190
        12         7         6        13     9      180.000000        1.352126         2    ;  uncertainty k = 0.483211
        12         7         6        13     9        0.000000        0.281953         3    ;  uncertainty k = 0.317529
        12         7         6        13     9      180.000000        0.242029         4    ;  uncertainty k = 0.031127
        12         7         6        25     9        0.000000        0.270089         1    ;  uncertainty k = 1.215594
        12         7         6        25     9      180.000000        0.970682         2    ;  uncertainty k = 0.379853
        12         7         6        25     9        0.000000        0.486667         3    ;  uncertainty k = 0.110642
        12         7         6        25     9      180.000000        0.249509         4    ;  uncertainty k = 0.167504
        12         7         8        32     9        0.000000        0.252150         1    ;  uncertainty k = 0.138569
        12         7         8        32     9      180.000000        7.620993         2    ;  uncertainty k = 0.536108
        12         7         8        32     9        0.000000        1.293074         3    ;  uncertainty k = 0.300641
        12         7         8        32     9      180.000000        1.649203         4    ;  uncertainty k = 0.194464
        12        11        10        34     9        0.000000        0.023623         1    ;  uncertainty k = 0.110077
        12        11        10        34     9      180.000000        7.495127         2    ;  uncertainty k = 0.205716
        12        11        10        34     9        0.000000        1.458527         3    ;  uncertainty k = 0.253934
        12        11        10        34     9      180.000000        1.798438         4    ;  uncertainty k = 0.212079
        13         6         5        31     9        0.000000        2.205861         1    ;  uncertainty k = 1.184625
        13         6         5        31     9      180.000000        0.341479         2    ;  uncertainty k = 1.108372
        13         6         5        31     9        0.000000        0.588745         3    ;  uncertainty k = 0.396437
        13         6         5        31     9      180.000000        0.047090         4    ;  uncertainty k = 0.127424
        13         6        25        26     9        0.000000       -0.410969         1    ;  uncertainty k = 1.456401
        13         6        25        26     9      180.000000        3.315108         2    ;  uncertainty k = 0.698692
        13         6        25        26     9        0.000000        0.453759         3    ;  uncertainty k = 0.241904
        13         6        25        26     9      180.000000        0.075216         4    ;  uncertainty k = 0.190258
        13        14        15        16     9        0.000000       -0.069848         1    ;  uncertainty k = 0.206754
        13        14        15        16     9      180.000000       13.040862         2    ;  uncertainty k = 0.366002
        13        14        15        16     9        0.000000       -0.804311         3    ;  uncertainty k = 0.546808
        13        14        15        16     9      180.000000        0.794296         4    ;  uncertainty k = 0.208149
        13        14        15        38     9        0.000000        0.124027         1    ;  uncertainty k = 0.339916
        13        14        15        38     9      180.000000        7.412379         2    ;  uncertainty k = 0.318289
        13        14        15        38     9        0.000000        1.442760         3    ;  uncertainty k = 0.119571
        13        14        15        38     9      180.000000        1.824307         4    ;  uncertainty k = 0.168166
        13        24        17        16     9        0.000000        0.039067         1    ;  uncertainty k = 0.154029
        13        24        17        16     9      180.000000        9.967495         2    ;  uncertainty k = 0.336151
        13        24        17        16     9        0.000000       -0.136108         3    ;  uncertainty k = 0.257914
        13        24        17        16     9      180.000000        1.113463         4    ;  uncertainty k = 0.262172
        13        24        17        18     9        0.000000        0.282301         1    ;  uncertainty k = 0.271632
        13        24        17        18     9      180.000000        8.488031         2    ;  uncertainty k = 0.413238
        13        24        17        18     9        0.000000        1.286712         3    ;  uncertainty k = 0.338688
        13        24        17        18     9      180.000000        1.775457         4    ;  uncertainty k = 0.130951
        14        13         6        25     9        0.000000        0.346181         1    ;  uncertainty k = 1.176366
        14        13         6        25     9      180.000000        0.996788         2    ;  uncertainty k = 0.370419
        14        13         6        25     9        0.000000        0.469136         3    ;  uncertainty k = 0.121736
        14        13         6        25     9      180.000000        0.258225         4    ;  uncertainty k = 0.169033
        14        13        24        17     9        0.000000       -0.383963         1    ;  uncertainty k = 0.433556
        14        13        24        17     9      180.000000       11.225750         2    ;  uncertainty k = 0.261646
        14        13        24        17     9        0.000000       -0.241779         3    ;  uncertainty k = 0.221503
        14        13        24        17     9      180.000000        0.978929         4    ;  uncertainty k = 0.286633
        14        13        24        43     9        0.000000        0.244496         1    ;  uncertainty k = 0.103303
        14        13        24        43     9      180.000000        7.799061         2    ;  uncertainty k = 0.481175
        14        13        24        43     9        0.000000        1.283455         3    ;  uncertainty k = 0.352871
        14        13        24        43     9      180.000000        1.642382         4    ;  uncertainty k = 0.213042
        14        15        16        17     9        0.000000       -0.055495         1    ;  uncertainty k = 0.184281
        14        15        16        17     9      180.000000       13.506076         2    ;  uncertainty k = 0.250831
        14        15        16        17     9        0.000000       -0.750144         3    ;  uncertainty k = 0.491825
        14        15        16        17     9      180.000000        0.762498         4    ;  uncertainty k = 0.191541
        14        15        16        39     9        0.000000        0.015036         1    ;  uncertainty k = 0.094844
        14        15        16        39     9      180.000000        7.501678         2    ;  uncertainty k = 0.278109
        14        15        16        39     9        0.000000        1.412306         3    ;  uncertainty k = 0.210254
        14        15        16        39     9      180.000000        1.820032         4    ;  uncertainty k = 0.210126
        15        14        13        24     9        0.000000       -0.300081         1    ;  uncertainty k = 0.294604
        15        14        13        24     9      180.000000       11.718911         2    ;  uncertainty k = 0.326722
        15        14        13        24     9        0.000000       -0.582449         3    ;  uncertainty k = 0.158097
        15        14        13        24     9      180.000000        0.862490         4    ;  uncertainty k = 0.258045
        15        16        17        18     9        0.000000        0.154363         1    ;  uncertainty k = 0.389381
        15        16        17        18     9      180.000000        8.647816         2    ;  uncertainty k = 0.438016
        15        16        17        18     9        0.000000        1.181521         3    ;  uncertainty k = 0.359298
        15        16        17        18     9      180.000000        1.782765         4    ;  uncertainty k = 0.092988
        15        16        17        24     9        0.000000        0.046358         1    ;  uncertainty k = 0.102413
        15        16        17        24     9      180.000000       10.698244         2    ;  uncertainty k = 0.253685
        15        16        17        24     9        0.000000       -0.506746         3    ;  uncertainty k = 0.274654
        15        16        17        24     9      180.000000        0.982428         4    ;  uncertainty k = 0.246045
        16        15        14        37     9        0.000000        0.025862         1    ;  uncertainty k = 0.100017
        16        15        14        37     9      180.000000        7.675687         2    ;  uncertainty k = 0.388358
        16        15        14        37     9        0.000000        1.379458         3    ;  uncertainty k = 0.200929
        16        15        14        37     9      180.000000        1.791999         4    ;  uncertainty k = 0.091962
        16        17        18        19     9        0.000000       -0.382222         1    ;  uncertainty k = 0.806797
        16        17        18        19     9      180.000000        3.266331         2    ;  uncertainty k = 0.099717
        16        17        18        19     9        0.000000        0.413989         3    ;  uncertainty k = 0.148534
        16        17        18        19     9      180.000000       -0.194326         4    ;  uncertainty k = 0.123233
        16        17        18        23     9        0.000000        0.207679         1    ;  uncertainty k = 0.716829
        16        17        18        23     9      180.000000        4.666201         2    ;  uncertainty k = 0.205837
        16        17        18        23     9        0.000000        0.562579         3    ;  uncertainty k = 0.261747
        16        17        18        23     9      180.000000        0.034491         4    ;  uncertainty k = 0.024127
        16        17        24        43     9        0.000000        0.147364         1    ;  uncertainty k = 0.164640
        16        17        24        43     9      180.000000        7.364244         2    ;  uncertainty k = 0.702295
        16        17        24        43     9        0.000000        1.360592         3    ;  uncertainty k = 0.142845
        16        17        24        43     9      180.000000        1.612120         4    ;  uncertainty k = 0.229181
        17        16        15        38     9        0.000000       -0.032137         1    ;  uncertainty k = 0.231300
        17        16        15        38     9      180.000000        7.691194         2    ;  uncertainty k = 0.365895
        17        16        15        38     9        0.000000        1.430186         3    ;  uncertainty k = 0.220401
        17        16        15        38     9      180.000000        1.829961         4    ;  uncertainty k = 0.165183
        17        18        19        20     9        0.000000       -0.116837         1    ;  uncertainty k = 0.462622
        17        18        19        20     9      180.000000        6.374367         2    ;  uncertainty k = 0.267453
        17        18        19        20     9        0.000000        0.705414         3    ;  uncertainty k = 0.470252
        17        18        19        20     9      180.000000        1.374318         4    ;  uncertainty k = 0.326418
        17        18        19        40     9        0.000000       -0.597076         1    ;  uncertainty k = 0.633268
        17        18        19        40     9      180.000000        5.347639         2    ;  uncertainty k = 1.048311
        17        18        19        40     9        0.000000        0.719302         3    ;  uncertainty k = 0.136421
        17        18        19        40     9      180.000000        0.802660         4    ;  uncertainty k = 0.271987
        17        18        23        22     9        0.000000       -0.223211         1    ;  uncertainty k = 0.800195
        17        18        23        22     9      180.000000       14.248676         2    ;  uncertainty k = 0.282025
        17        18        23        22     9        0.000000        2.487435         3    ;  uncertainty k = 0.180818
        17        18        23        22     9      180.000000        1.664728         4    ;  uncertainty k = 0.259403
        18        17        16        39     9        0.000000       -0.271957         1    ;  uncertainty k = 0.380917
        18        17        16        39     9      180.000000        7.308347         2    ;  uncertainty k = 0.408300
        18        17        16        39     9        0.000000        0.736763         3    ;  uncertainty k = 0.111053
        18        17        16        39     9      180.000000        1.194771         4    ;  uncertainty k = 0.111700
        18        17        24        43     9        0.000000       -0.159181         1    ;  uncertainty k = 0.208095
        18        17        24        43     9      180.000000        7.362100         2    ;  uncertainty k = 0.294667
        18        17        24        43     9        0.000000        0.854331         3    ;  uncertainty k = 0.136378
        18        17        24        43     9      180.000000        1.333850         4    ;  uncertainty k = 0.110394
        18        19        20        21     9        0.000000       -0.071870         1    ;  uncertainty k = 0.981109
        18        19        20        21     9      180.000000       13.840135         2    ;  uncertainty k = 0.411158
        18        19        20        21     9        0.000000        0.730805         3    ;  uncertainty k = 0.926273
        18        19        20        21     9      180.000000        1.461975         4    ;  uncertainty k = 0.123715
        18        23        22        21     9        0.000000        0.015063         1    ;  uncertainty k = 0.556579
        18        23        22        21     9      180.000000       13.757689         2    ;  uncertainty k = 0.229785
        18        23        22        21     9        0.000000        0.650220         3    ;  uncertainty k = 0.844963
        18        23        22        21     9      180.000000        1.362793         4    ;  uncertainty k = 0.216480
        18        23        22        42     9        0.000000        0.470547         1    ;  uncertainty k = 0.620188
        18        23        22        42     9      180.000000       15.208827         2    ;  uncertainty k = 0.398172
        18        23        22        42     9        0.000000        2.089435         3    ;  uncertainty k = 0.726397
        18        23        22        42     9      180.000000        1.750857         4    ;  uncertainty k = 0.324153
        19        18        17        24     9        0.000000       -0.472706         1    ;  uncertainty k = 0.697983
        19        18        17        24     9      180.000000        3.417882         2    ;  uncertainty k = 0.157534
        19        18        17        24     9        0.000000        0.404859         3    ;  uncertainty k = 0.142317
        19        18        17        24     9      180.000000       -0.193842         4    ;  uncertainty k = 0.132909
        19        18        23        22     9        0.000000       -0.136240         1    ;  uncertainty k = 0.462222
        19        18        23        22     9      180.000000       11.506184         2    ;  uncertainty k = 0.321825
        19        18        23        22     9        0.000000        1.428993         3    ;  uncertainty k = 0.806148
        19        18        23        22     9      180.000000        1.070535         4    ;  uncertainty k = 0.261294
        19        20        21        22     9        0.000000       -0.155404         1    ;  uncertainty k = 0.695296
        19        20        21        22     9      180.000000       14.446014         2    ;  uncertainty k = 0.585035
        19        20        21        22     9        0.000000        0.660778         3    ;  uncertainty k = 0.826416
        19        20        21        22     9      180.000000        1.252057         4    ;  uncertainty k = 0.142062
        19        20        21        41     9        0.000000        0.621540         1    ;  uncertainty k = 0.450732
        19        20        21        41     9      180.000000       15.003941         2    ;  uncertainty k = 0.252359
        19        20        21        41     9        0.000000        2.149036         3    ;  uncertainty k = 0.704523
        19        20        21        41     9      180.000000        1.663396         4    ;  uncertainty k = 0.267681
        20        19        18        23     9        0.000000       -0.571270         1    ;  uncertainty k = 0.479162
        20        19        18        23     9      180.000000       10.702752         2    ;  uncertainty k = 0.724851
        20        19        18        23     9        0.000000       -0.380827         3    ;  uncertainty k = 0.448111
        20        19        18        23     9      180.000000        1.086162         4    ;  uncertainty k = 0.457744
        20        21        22        23     9        0.000000       -0.315510         1    ;  uncertainty k = 0.565191
        20        21        22        23     9      180.000000       15.131270         2    ;  uncertainty k = 0.737100
        20        21        22        23     9        0.000000       -1.537933         3    ;  uncertainty k = 0.673932
        20        21        22        23     9      180.000000        0.903824         4    ;  uncertainty k = 0.451920
        20        21        22        42     9        0.000000       -0.186517         1    ;  uncertainty k = 0.419351
        20        21        22        42     9      180.000000        6.949824         2    ;  uncertainty k = 0.931135
        20        21        22        42     9        0.000000        0.796152         3    ;  uncertainty k = 0.381049
        20        21        22        42     9      180.000000        1.324638         4    ;  uncertainty k = 0.162820
        21        20        19        40     9        0.000000        0.502883         1    ;  uncertainty k = 0.511321
        21        20        19        40     9      180.000000       15.990894         2    ;  uncertainty k = 0.283798
        21        20        19        40     9        0.000000        2.340681         3    ;  uncertainty k = 0.428828
        21        20        19        40     9      180.000000        1.754776         4    ;  uncertainty k = 0.243307
        23        18        17        24     9        0.000000        0.648992         1    ;  uncertainty k = 0.707357
        23        18        17        24     9      180.000000        4.734161         2    ;  uncertainty k = 0.184020
        23        18        17        24     9        0.000000        0.551846         3    ;  uncertainty k = 0.293583
        23        18        17        24     9      180.000000        0.033302         4    ;  uncertainty k = 0.047001
        23        18        19        40     9        0.000000       -0.164379         1    ;  uncertainty k = 0.433163
        23        18        19        40     9      180.000000        5.422686         2    ;  uncertainty k = 0.634789
        23        18        19        40     9        0.000000        0.907802         3    ;  uncertainty k = 0.227868
        23        18        19        40     9      180.000000        1.225237         4    ;  uncertainty k = 0.232479
        23        22        21        41     9        0.000000       -0.169056         1    ;  uncertainty k = 0.293047
        23        22        21        41     9      180.000000        7.161636         2    ;  uncertainty k = 0.771319
        23        22        21        41     9        0.000000        0.799596         3    ;  uncertainty k = 0.284793
        23        22        21        41     9      180.000000        1.334690         4    ;  uncertainty k = 0.163176
        24        13         6        25     9        0.000000        0.472401         1    ;  uncertainty k = 1.223302
        24        13         6        25     9      180.000000        0.964479         2    ;  uncertainty k = 0.375869
        24        13         6        25     9        0.000000        0.394089         3    ;  uncertainty k = 0.094355
        24        13         6        25     9      180.000000        0.258167         4    ;  uncertainty k = 0.158053
        24        13        14        37     9        0.000000        0.312207         1    ;  uncertainty k = 0.205969
        24        13        14        37     9      180.000000        7.585192         2    ;  uncertainty k = 0.584073
        24        13        14        37     9        0.000000        1.279381         3    ;  uncertainty k = 0.337349
        24        13        14        37     9      180.000000        1.646233         4    ;  uncertainty k = 0.205568
        24        17        16        39     9        0.000000        0.199902         1    ;  uncertainty k = 0.051789
        24        17        16        39     9      180.000000        6.909598         2    ;  uncertainty k = 0.490327
        24        17        16        39     9        0.000000        1.347895         3    ;  uncertainty k = 0.228074
        24        17        16        39     9      180.000000        1.610835         4    ;  uncertainty k = 0.267717
        25         2         1        27     9        0.000000        0.248591         1    ;  uncertainty k = 0.444249
        25         2         1        27     9      180.000000        0.083806         2    ;  uncertainty k = 0.256009
        25         2         1        27     9        0.000000        0.361519         3    ;  uncertainty k = 0.229559
        25         2         1        27     9      180.000000        0.309824         4    ;  uncertainty k = 0.070542
        25         2         1        28     9        0.000000        0.248591         1    ;  uncertainty k = 0.444249
        25         2         1        28     9      180.000000        0.083806         2    ;  uncertainty k = 0.256009
        25         2         1        28     9        0.000000        0.361519         3    ;  uncertainty k = 0.229559
        25         2         1        28     9      180.000000        0.309824         4    ;  uncertainty k = 0.070542
        25         2         1        29     9        0.000000        0.248591         1    ;  uncertainty k = 0.444249
        25         2         1        29     9      180.000000        0.083806         2    ;  uncertainty k = 0.256009
        25         2         1        29     9        0.000000        0.361519         3    ;  uncertainty k = 0.229559
        25         2         1        29     9      180.000000        0.309824         4    ;  uncertainty k = 0.070542
        25         6         5        31     9        0.000000       -0.290074         1    ;  uncertainty k = 2.574717
        25         6         5        31     9      180.000000        0.241721         2    ;  uncertainty k = 1.828814
        25         6         5        31     9        0.000000        0.369689         3    ;  uncertainty k = 0.455815
        25         6         5        31     9      180.000000       -0.040549         4    ;  uncertainty k = 0.160948
        32         8         9        33     9        0.000000       -0.156460         1    ;  uncertainty k = 0.354103
        32         8         9        33     9      180.000000        7.863235         2    ;  uncertainty k = 0.315073
        32         8         9        33     9        0.000000       -0.450842         3    ;  uncertainty k = 0.303952
        32         8         9        33     9      180.000000        0.185726         4    ;  uncertainty k = 0.168830
        33         9        10        34     9        0.000000       -0.049616         1    ;  uncertainty k = 0.148336
        33         9        10        34     9      180.000000        7.798625         2    ;  uncertainty k = 0.386263
        33         9        10        34     9        0.000000       -0.413767         3    ;  uncertainty k = 0.291377
        33         9        10        34     9      180.000000        0.047027         4    ;  uncertainty k = 0.170118
        34        10        11        35     9        0.000000       -0.049616         1    ;  uncertainty k = 0.148337
        34        10        11        35     9      180.000000        7.798625         2    ;  uncertainty k = 0.386262
        34        10        11        35     9        0.000000       -0.413767         3    ;  uncertainty k = 0.291378
        34        10        11        35     9      180.000000        0.047026         4    ;  uncertainty k = 0.170118
        35        11        12        36     9        0.000000       -0.156458         1    ;  uncertainty k = 0.354101
        35        11        12        36     9      180.000000        7.863233         2    ;  uncertainty k = 0.315071
        35        11        12        36     9        0.000000       -0.450842         3    ;  uncertainty k = 0.303952
        35        11        12        36     9      180.000000        0.185726         4    ;  uncertainty k = 0.168830
        37        14        15        38     9        0.000000       -0.178596         1    ;  uncertainty k = 0.354902
        37        14        15        38     9      180.000000        7.845796         2    ;  uncertainty k = 0.317773
        37        14        15        38     9        0.000000       -0.467410         3    ;  uncertainty k = 0.311066
        37        14        15        38     9      180.000000        0.155476         4    ;  uncertainty k = 0.194115
        38        15        16        39     9        0.000000       -0.130519         1    ;  uncertainty k = 0.246910
        38        15        16        39     9      180.000000        8.021818         2    ;  uncertainty k = 0.308085
        38        15        16        39     9        0.000000       -0.442143         3    ;  uncertainty k = 0.253279
        38        15        16        39     9      180.000000        0.148597         4    ;  uncertainty k = 0.151594
        41        21        22        42     9        0.000000       -0.303929         1    ;  uncertainty k = 0.756757
        41        21        22        42     9      180.000000        5.915995         2    ;  uncertainty k = 0.532315
        41        21        22        42     9        0.000000        0.141600         3    ;  uncertainty k = 0.215844
        41        21        22        42     9      180.000000        0.230666         4    ;  uncertainty k = 0.105615

[ dihedrals ] ; impropers
;       ai        aj        ak        al funct           phase               k        pn
         2         1         3        25     4      180.000000        1.980029         2    ;  uncertainty k = 0.475019
         2         3        25         1     4      180.000000        1.980029         2    ;  uncertainty k = 0.475019
         2        25         1         3     4      180.000000        1.980029         2    ;  uncertainty k = 0.475019
         3         2         4         5     4      180.000000       30.576100         2    ;  uncertainty k = 0.126950
         3         4         5         2     4      180.000000       30.576100         2    ;  uncertainty k = 0.126950
         3         5         2         4     4      180.000000       30.576100         2    ;  uncertainty k = 0.126950
         4         3        30        44     4      180.000000        0.162942         2    ;  uncertainty k = 0.364350
         4        30        44         3     4      180.000000        0.162942         2    ;  uncertainty k = 0.364350
         4        44         3        30     4      180.000000        0.162942         2    ;  uncertainty k = 0.364350
         7         6         8        12     4      180.000000        9.903187         2    ;  uncertainty k = 0.263109
         7         8        12         6     4      180.000000        9.903187         2    ;  uncertainty k = 0.263109
         7        12         6         8     4      180.000000        9.903187         2    ;  uncertainty k = 0.263109
         8         7         9        32     4      180.000000        4.262961         2    ;  uncertainty k = 0.194702
         8         9        32         7     4      180.000000        4.262961         2    ;  uncertainty k = 0.194702
         8        32         7         9     4      180.000000        4.262961         2    ;  uncertainty k = 0.194702
         9         8        10        33     4      180.000000        4.374957         2    ;  uncertainty k = 0.132607
         9        10        33         8     4      180.000000        4.374957         2    ;  uncertainty k = 0.132607
         9        33         8        10     4      180.000000        4.374957         2    ;  uncertainty k = 0.132607
        10         9        11        34     4      180.000000        4.945480         2    ;  uncertainty k = 0.161840
        10        11        34         9     4      180.000000        4.945480         2    ;  uncertainty k = 0.161840
        10        34         9        11     4      180.000000        4.945480         2    ;  uncertainty k = 0.161840
        11        10        12        35     4      180.000000        4.374960         2    ;  uncertainty k = 0.132607
        11        12        35        10     4      180.000000        4.374960         2    ;  uncertainty k = 0.132607
        11        35        10        12     4      180.000000        4.374960         2    ;  uncertainty k = 0.132607
        12         7        11        36     4      180.000000        4.262962         2    ;  uncertainty k = 0.194702
        12        11        36         7     4      180.000000        4.262962         2    ;  uncertainty k = 0.194702
        12        36         7        11     4      180.000000        4.262962         2    ;  uncertainty k = 0.194702
        13         6        14        24     4      180.000000        9.927362         2    ;  uncertainty k = 0.226084
        13        14        24         6     4      180.000000        9.927362         2    ;  uncertainty k = 0.226084
        13        24         6        14     4      180.000000        9.927362         2    ;  uncertainty k = 0.226084
        14        13        15        37     4      180.000000        4.278449         2    ;  uncertainty k = 0.182443
        14        15        37        13     4      180.000000        4.278449         2    ;  uncertainty k = 0.182443
        14        37        13        15     4      180.000000        4.278449         2    ;  uncertainty k = 0.182443
        15        14        16        38     4      180.000000        4.003371         2    ;  uncertainty k = 0.162717
        15        16        38        14     4      180.000000        4.003371         2    ;  uncertainty k = 0.162717
        15        38        14        16     4      180.000000        4.003371         2    ;  uncertainty k = 0.162717
        16        15        17        39     4      180.000000        4.846558         2    ;  uncertainty k = 0.128005
        16        17        39        15     4      180.000000        4.846558         2    ;  uncertainty k = 0.128005
        16        39        15        17     4      180.000000        4.846558         2    ;  uncertainty k = 0.128005
        17        16        18        24     4      180.000000       11.568127         2    ;  uncertainty k = 0.055396
        17        18        24        16     4      180.000000       11.568127         2    ;  uncertainty k = 0.055396
        17        24        16        18     4      180.000000       11.568127         2    ;  uncertainty k = 0.055396
        18        17        19        23     4      180.000000       23.416862         2    ;  uncertainty k = 0.086406
        18        19        23        17     4      180.000000       23.416862         2    ;  uncertainty k = 0.086406
        18        23        17        19     4      180.000000       23.416862         2    ;  uncertainty k = 0.086406
        19        18        20        40     4      180.000000       12.156502         2    ;  uncertainty k = 0.017263
        19        20        40        18     4      180.000000       12.156502         2    ;  uncertainty k = 0.017263
        19        40        18        20     4      180.000000       12.156502         2    ;  uncertainty k = 0.017263
        21        20        22        41     4      180.000000       11.407722         2    ;  uncertainty k = 0.083953
        21        22        41        20     4      180.000000       11.407722         2    ;  uncertainty k = 0.083953
        21        41        20        22     4      180.000000       11.407722         2    ;  uncertainty k = 0.083953
        22        21        23        42     4      180.000000       12.179489         2    ;  uncertainty k = 0.063827
        22        23        42        21     4      180.000000       12.179489         2    ;  uncertainty k = 0.063827
        22        42        21        23     4      180.000000       12.179489         2    ;  uncertainty k = 0.063827
        24        13        17        43     4      180.000000        4.933173         2    ;  uncertainty k = 0.316359
        24        17        43        13     4      180.000000        4.933173         2    ;  uncertainty k = 0.316359
        24        43        13        17     4      180.000000        4.933173         2    ;  uncertainty k = 0.316359
        25         2         6        26     4      180.000000       49.868697         2    ;  uncertainty k = 0.032116
        25         6        26         2     4      180.000000       49.868697         2    ;  uncertainty k = 0.032116
        25        26         2         6     4      180.000000       49.868697         2    ;  uncertainty k = 0.032116

[ pairs ]
;       ai        aj funct
         1         4     1
         1         5     1
         1         6     1
         1        26     1
         2         7     1
         2        13     1
         2        30     1
         2        31     1
         2        44     1
         3         7     1
         3        13     1
         3        26     1
         3        27     1
         3        28     1
         3        29     1
         4         6     1
         4        25     1
         4        31     1
         5         8     1
         5        12     1
         5        14     1
         5        24     1
         5        26     1
         5        30     1
         5        44     1
         6         9     1
         6        11     1
         6        15     1
         6        17     1
         6        32     1
         6        36     1
         6        37     1
         6        43     1
         7        10     1
         7        14     1
         7        24     1
         7        26     1
         7        31     1
         7        33     1
         7        35     1
         8        11     1
         8        13     1
         8        25     1
         8        34     1
         8        36     1
         9        12     1
         9        35     1
        10        32     1
        10        36     1
        11        33     1
        12        13     1
        12        25     1
        12        32     1
        12        34     1
        13        16     1
        13        18     1
        13        26     1
        13        31     1
        13        38     1
        14        17     1
        14        25     1
        14        39     1
        14        43     1
        15        18     1
        15        24     1
        16        19     1
        16        23     1
        16        37     1
        16        43     1
        17        20     1
        17        22     1
        17        38     1
        17        40     1
        18        21     1
        18        39     1
        18        42     1
        18        43     1
        19        22     1
        19        24     1
        19        41     1
        20        23     1
        20        42     1
        21        40     1
        23        24     1
        23        40     1
        23        41     1
        24        25     1
        24        37     1
        24        39     1
        25        27     1
        25        28     1
        25        29     1
        25        31     1
        32        33     1
        33        34     1
        34        35     1
        35        36     1
        37        38     1
        38        39     1
        41        42     1
