; ITP file created by ByteFF-joint-25, 2026-02-18 03:15:25.450550

[ atomtypes ]
;name           bonded.type        at.num        mass        charge   ptype           sigma         epsilon
 c0bf                                   6      0.0000       0.00000       A     3.39790e-01     4.50985e-01    ;  uncertainty sigma = 0.000004, epsilon = 0.000763
 o1bf                                   8      0.0000       0.00000       A     3.15646e-01     3.03088e-01    ;  uncertainty sigma = 0.000024, epsilon = 0.000735
 c2bf                                   6      0.0000       0.00000       A     3.31535e-01     4.13386e-01    ;  uncertainty sigma = 0.000006, epsilon = 0.000549
 c3bf                                   6      0.0000       0.00000       A     3.31516e-01     4.13224e-01    ;  uncertainty sigma = 0.000004, epsilon = 0.000513
 c4bf                                   6      0.0000       0.00000       A     3.31522e-01     4.13496e-01    ;  uncertainty sigma = 0.000006, epsilon = 0.000549
 c5bf                                   6      0.0000       0.00000       A     3.31521e-01     4.13193e-01    ;  uncertainty sigma = 0.000004, epsilon = 0.000399
 c6bf                                   6      0.0000       0.00000       A     3.31501e-01     4.13596e-01    ;  uncertainty sigma = 0.000009, epsilon = 0.000503
 c7bf                                   6      0.0000       0.00000       A     3.31513e-01     4.13269e-01    ;  uncertainty sigma = 0.000005, epsilon = 0.000649
 c8bf                                   6      0.0000       0.00000       A     3.31522e-01     4.13312e-01    ;  uncertainty sigma = 0.000003, epsilon = 0.000635
 c9bf                                   6      0.0000       0.00000       A     3.31510e-01     4.13156e-01    ;  uncertainty sigma = 0.000002, epsilon = 0.000626
 c10bf                                  6      0.0000       0.00000       A     3.31582e-01     4.13992e-01    ;  uncertainty sigma = 0.000025, epsilon = 0.001348
 c11bf                                  6      0.0000       0.00000       A     3.39797e-01     4.51347e-01    ;  uncertainty sigma = 0.000040, epsilon = 0.003032
 c12bf                                  6      0.0000       0.00000       A     3.31581e-01     4.13815e-01    ;  uncertainty sigma = 0.000032, epsilon = 0.001364
 c13bf                                  6      0.0000       0.00000       A     3.31512e-01     4.13187e-01    ;  uncertainty sigma = 0.000002, epsilon = 0.000604
 c14bf                                  6      0.0000       0.00000       A     3.31520e-01     4.13286e-01    ;  uncertainty sigma = 0.000002, epsilon = 0.000576
 c15bf                                  6      0.0000       0.00000       A     3.31518e-01     4.13337e-01    ;  uncertainty sigma = 0.000003, epsilon = 0.000580
 c16bf                                  6      0.0000       0.00000       A     3.31520e-01     4.13286e-01    ;  uncertainty sigma = 0.000002, epsilon = 0.000576
 c17bf                                  6      0.0000       0.00000       A     3.31512e-01     4.13187e-01    ;  uncertainty sigma = 0.000002, epsilon = 0.000604
 n18bf                                  7      0.0000       0.00000       A     3.27488e-01     6.57271e-01    ;  uncertainty sigma = 0.000130, epsilon = 0.010556
 c19bf                                  6      0.0000       0.00000       A     3.31512e-01     4.12381e-01    ;  uncertainty sigma = 0.000058, epsilon = 0.001500
 n20bf                                  7      0.0000       0.00000       A     3.36544e-01     4.71564e-01    ;  uncertainty sigma = 0.000086, epsilon = 0.005524
 n21bf                                  7      0.0000       0.00000       A     3.18098e-01     6.83124e-01    ;  uncertainty sigma = 0.000073, epsilon = 0.006424
 c22bf                                  6      0.0000       0.00000       A     3.39732e-01     4.51256e-01    ;  uncertainty sigma = 0.000013, epsilon = 0.001265
 c23bf                                  6      0.0000       0.00000       A     3.31544e-01     4.14220e-01    ;  uncertainty sigma = 0.000018, epsilon = 0.000894
 o24bf                                  8      0.0000       0.00000       A     3.04823e-01     6.12187e-01    ;  uncertainty sigma = 0.000062, epsilon = 0.001949
 c25bf                                  6      0.0000       0.00000       A     3.31517e-01     4.13162e-01    ;  uncertainty sigma = 0.000019, epsilon = 0.001030
 c26bf                                  6      0.0000       0.00000       A     3.31522e-01     4.13496e-01    ;  uncertainty sigma = 0.000006, epsilon = 0.000549
 c27bf                                  6      0.0000       0.00000       A     3.31516e-01     4.13224e-01    ;  uncertainty sigma = 0.000004, epsilon = 0.000513
 h28bf                                  1      0.0000       0.00000       A     2.42205e-01     8.67538e-02    ;  uncertainty sigma = 0.000015, epsilon = 0.000624
 h29bf                                  1      0.0000       0.00000       A     2.42205e-01     8.67538e-02    ;  uncertainty sigma = 0.000015, epsilon = 0.000624
 h30bf                                  1      0.0000       0.00000       A     2.42205e-01     8.67538e-02    ;  uncertainty sigma = 0.000015, epsilon = 0.000624
 h31bf                                  1      0.0000       0.00000       A     2.62560e-01     6.71256e-02    ;  uncertainty sigma = 0.000008, epsilon = 0.000419
 h32bf                                  1      0.0000       0.00000       A     2.62569e-01     6.70401e-02    ;  uncertainty sigma = 0.000011, epsilon = 0.000552
 h33bf                                  1      0.0000       0.00000       A     2.62562e-01     6.70409e-02    ;  uncertainty sigma = 0.000012, epsilon = 0.000506
 h34bf                                  1      0.0000       0.00000       A     2.62564e-01     6.70136e-02    ;  uncertainty sigma = 0.000010, epsilon = 0.000418
 h35bf                                  1      0.0000       0.00000       A     2.62558e-01     6.70851e-02    ;  uncertainty sigma = 0.000008, epsilon = 0.000420
 h36bf                                  1      0.0000       0.00000       A     2.62558e-01     6.70851e-02    ;  uncertainty sigma = 0.000008, epsilon = 0.000420
 h37bf                                  1      0.0000       0.00000       A     2.62558e-01     6.70264e-02    ;  uncertainty sigma = 0.000011, epsilon = 0.000445
 h38bf                                  1      0.0000       0.00000       A     2.62552e-01     6.70647e-02    ;  uncertainty sigma = 0.000011, epsilon = 0.000453
 h39bf                                  1      0.0000       0.00000       A     2.62558e-01     6.70264e-02    ;  uncertainty sigma = 0.000011, epsilon = 0.000445
 h40bf                                  1      0.0000       0.00000       A     2.62558e-01     6.70851e-02    ;  uncertainty sigma = 0.000008, epsilon = 0.000420
 h41bf                                  1      0.0000       0.00000       A     1.10548e-01     4.04870e-02    ;  uncertainty sigma = 0.000082, epsilon = 0.001718
 h42bf                                  1      0.0000       0.00000       A     1.10696e-01     4.12785e-02    ;  uncertainty sigma = 0.000128, epsilon = 0.001560
 h43bf                                  1      0.0000       0.00000       A     2.42208e-01     8.66970e-02    ;  uncertainty sigma = 0.000028, epsilon = 0.000664
 h44bf                                  1      0.0000       0.00000       A     2.42208e-01     8.66970e-02    ;  uncertainty sigma = 0.000028, epsilon = 0.000664
 h45bf                                  1      0.0000       0.00000       A     2.42208e-01     8.66970e-02    ;  uncertainty sigma = 0.000028, epsilon = 0.000664
 h46bf                                  1      0.0000       0.00000       A     2.62550e-01     6.72378e-02    ;  uncertainty sigma = 0.000014, epsilon = 0.000655
 h47bf                                  1      0.0000       0.00000       A     2.62569e-01     6.70401e-02    ;  uncertainty sigma = 0.000011, epsilon = 0.000552
 h48bf                                  1      0.0000       0.00000       A     2.62560e-01     6.71256e-02    ;  uncertainty sigma = 0.000008, epsilon = 0.000419
 h49bf                                  1      0.0000       0.00000       A     1.10696e-01     4.12786e-02    ;  uncertainty sigma = 0.000128, epsilon = 0.001559

[ moleculetype ]
;name             nrexcl
 MOL                   3

[ atoms ]
;       nr            type      resi   res      atom      cgnr      charge          mass ; qtot
         1            c0bf         1   UNL        c0         1     0.12074       12.0110 ; qtot    0.121
         2            o1bf         1   UNL        o1         2    -0.32487       15.9990 ; qtot   -0.204
         3            c2bf         1   UNL        c2         3     0.13702       12.0110 ; qtot   -0.067
         4            c3bf         1   UNL        c3         4    -0.19303       12.0110 ; qtot   -0.260
         5            c4bf         1   UNL        c4         5    -0.08559       12.0110 ; qtot   -0.346
         6            c5bf         1   UNL        c5         6    -0.07061       12.0110 ; qtot   -0.416
         7            c6bf         1   UNL        c6         7    -0.00689       12.0110 ; qtot   -0.423
         8            c7bf         1   UNL        c7         8    -0.09500       12.0110 ; qtot   -0.518
         9            c8bf         1   UNL        c8         9    -0.11062       12.0110 ; qtot   -0.629
        10            c9bf         1   UNL        c9        10    -0.09262       12.0110 ; qtot   -0.721
        11           c10bf         1   UNL       c10        11    -0.14026       12.0110 ; qtot   -0.862
        12           c11bf         1   UNL       c11        12     0.09098       12.0110 ; qtot   -0.771
        13           c12bf         1   UNL       c12        13    -0.15384       12.0110 ; qtot   -0.925
        14           c13bf         1   UNL       c13        14    -0.09654       12.0110 ; qtot   -1.021
        15           c14bf         1   UNL       c14        15    -0.11798       12.0110 ; qtot   -1.139
        16           c15bf         1   UNL       c15        16    -0.09151       12.0110 ; qtot   -1.231
        17           c16bf         1   UNL       c16        17    -0.11798       12.0110 ; qtot   -1.349
        18           c17bf         1   UNL       c17        18    -0.09654       12.0110 ; qtot   -1.445
        19           n18bf         1   UNL       n18        19    -0.38173       14.0070 ; qtot   -1.827
        20           c19bf         1   UNL       c19        20     0.46212       12.0110 ; qtot   -1.365
        21           n20bf         1   UNL       n20        21    -0.47751       14.0070 ; qtot   -1.842
        22           n21bf         1   UNL       n21        22    -0.41674       14.0070 ; qtot   -2.259
        23           c22bf         1   UNL       c22        23     0.07531       12.0110 ; qtot   -2.184
        24           c23bf         1   UNL       c23        24     0.70308       12.0110 ; qtot   -1.481
        25           o24bf         1   UNL       o24        25    -0.44106       15.9990 ; qtot   -1.922
        26           c25bf         1   UNL       c25        26    -0.08200       12.0110 ; qtot   -2.004
        27           c26bf         1   UNL       c26        27    -0.08559       12.0110 ; qtot   -2.089
        28           c27bf         1   UNL       c27        28    -0.19303       12.0110 ; qtot   -2.282
        29           h28bf         1   UNL       h28        29     0.04263        1.0080 ; qtot   -2.240
        30           h29bf         1   UNL       h29        30     0.04263        1.0080 ; qtot   -2.197
        31           h30bf         1   UNL       h30        31     0.04263        1.0080 ; qtot   -2.154
        32           h31bf         1   UNL       h31        32     0.14051        1.0080 ; qtot   -2.014
        33           h32bf         1   UNL       h32        33     0.13778        1.0080 ; qtot   -1.876
        34           h33bf         1   UNL       h33        34     0.13653        1.0080 ; qtot   -1.740
        35           h34bf         1   UNL       h34        35     0.14845        1.0080 ; qtot   -1.591
        36           h35bf         1   UNL       h35        36     0.14740        1.0080 ; qtot   -1.444
        37           h36bf         1   UNL       h36        37     0.14519        1.0080 ; qtot   -1.299
        38           h37bf         1   UNL       h37        38     0.14717        1.0080 ; qtot   -1.151
        39           h38bf         1   UNL       h38        39     0.13386        1.0080 ; qtot   -1.018
        40           h39bf         1   UNL       h39        40     0.14717        1.0080 ; qtot   -0.870
        41           h40bf         1   UNL       h40        41     0.14519        1.0080 ; qtot   -0.725
        42           h41bf         1   UNL       h41        42     0.35440        1.0080 ; qtot   -0.371
        43           h42bf         1   UNL       h42        43     0.33582        1.0080 ; qtot   -0.035
        44           h43bf         1   UNL       h43        44     0.09057        1.0080 ; qtot    0.056
        45           h44bf         1   UNL       h44        45     0.09057        1.0080 ; qtot    0.146
        46           h45bf         1   UNL       h45        46     0.09057        1.0080 ; qtot    0.237
        47           h46bf         1   UNL       h46        47     0.14913        1.0080 ; qtot    0.386
        48           h47bf         1   UNL       h47        48     0.13778        1.0080 ; qtot    0.524
        49           h48bf         1   UNL       h48        49     0.14051        1.0080 ; qtot    0.664
        50           h49bf         1   UNL       h49        50     0.33580        1.0080 ; qtot    1.000

[ bonds ]
;       ai        aj funct               r               k
         1         2     1        0.141873   253422.305859    ;  uncertainty r = 0.000020, k = 2.719231
         1        29     1        0.109623   311224.914502    ;  uncertainty r = 0.000009, k = 1.869772
         1        30     1        0.109623   311224.914502    ;  uncertainty r = 0.000009, k = 1.869772
         1        31     1        0.109623   311224.914502    ;  uncertainty r = 0.000009, k = 1.869772
         2         3     1        0.136433   322333.889062    ;  uncertainty r = 0.000040, k = 2.819296
         3         4     1        0.139853   363890.580371    ;  uncertainty r = 0.000018, k = 3.392293
         3        28     1        0.139853   363890.580371    ;  uncertainty r = 0.000018, k = 3.392292
         4         5     1        0.139225   365046.313330    ;  uncertainty r = 0.000036, k = 2.319882
         4        32     1        0.108832   337587.127881    ;  uncertainty r = 0.000025, k = 0.479880
         5         6     1        0.140126   347577.015234    ;  uncertainty r = 0.000015, k = 1.063700
         5        33     1        0.108775   334128.483936    ;  uncertainty r = 0.000014, k = 1.136941
         6         7     1        0.147839   271523.034521    ;  uncertainty r = 0.000049, k = 6.165996
         6        27     1        0.140126   347577.015234    ;  uncertainty r = 0.000015, k = 1.063688
         7         8     1        0.140130   347360.179639    ;  uncertainty r = 0.000009, k = 0.676331
         7        26     1        0.139859   338921.927051    ;  uncertainty r = 0.000048, k = 2.810651
         8         9     1        0.139322   371310.132129    ;  uncertainty r = 0.000027, k = 2.710990
         8        34     1        0.108820   334865.306152    ;  uncertainty r = 0.000023, k = 0.943338
         9        10     1        0.139488   369019.402344    ;  uncertainty r = 0.000030, k = 1.373568
         9        35     1        0.108768   333105.365186    ;  uncertainty r = 0.000026, k = 1.115182
        10        11     1        0.139695   350457.473486    ;  uncertainty r = 0.000039, k = 5.364875
        10        36     1        0.108776   332840.519824    ;  uncertainty r = 0.000030, k = 2.464989
        11        12     1        0.150929   204061.282397    ;  uncertainty r = 0.000155, k = 19.693892
        11        26     1        0.139500   344072.225732    ;  uncertainty r = 0.000079, k = 6.005864
        12        13     1        0.150975   204394.043701    ;  uncertainty r = 0.000149, k = 20.066183
        12        19     1        0.150101   230544.733203    ;  uncertainty r = 0.000269, k = 76.803661
        12        24     1        0.153936   175864.061719    ;  uncertainty r = 0.000150, k = 17.945455
        13        14     1        0.139869   349456.955078    ;  uncertainty r = 0.000058, k = 6.929869
        13        18     1        0.139869   349456.955078    ;  uncertainty r = 0.000058, k = 6.929867
        14        15     1        0.139524   365940.393066    ;  uncertainty r = 0.000032, k = 1.462857
        14        37     1        0.108797   332693.323926    ;  uncertainty r = 0.000026, k = 2.526486
        15        16     1        0.139549   373468.937207    ;  uncertainty r = 0.000012, k = 2.413551
        15        38     1        0.108791   333723.950586    ;  uncertainty r = 0.000024, k = 1.087683
        16        17     1        0.139549   373468.937207    ;  uncertainty r = 0.000012, k = 2.413551
        16        39     1        0.108841   334503.956055    ;  uncertainty r = 0.000012, k = 0.652759
        17        18     1        0.139524   365940.393066    ;  uncertainty r = 0.000032, k = 1.462857
        17        40     1        0.108791   333723.950586    ;  uncertainty r = 0.000024, k = 1.087653
        18        41     1        0.108797   332693.298389    ;  uncertainty r = 0.000026, k = 2.526502
        19        20     1        0.133641   523376.825586    ;  uncertainty r = 0.000100, k = 44.740972
        19        42     1        0.101501   429624.683203    ;  uncertainty r = 0.000023, k = 4.106232
        20        21     1        0.132957   308233.523047    ;  uncertainty r = 0.000232, k = 39.227400
        20        22     1        0.135483   280628.367480    ;  uncertainty r = 0.000172, k = 43.937772
        21        43     1        0.101396   420869.540625    ;  uncertainty r = 0.000073, k = 12.258240
        21        50     1        0.101396   420869.540625    ;  uncertainty r = 0.000073, k = 12.258240
        22        23     1        0.146681   260602.881348    ;  uncertainty r = 0.000143, k = 13.029331
        22        24     1        0.142617   296977.454736    ;  uncertainty r = 0.000342, k = 74.592880
        23        44     1        0.109174   309405.446533    ;  uncertainty r = 0.000045, k = 3.044472
        23        45     1        0.109174   309405.446533    ;  uncertainty r = 0.000045, k = 3.044472
        23        46     1        0.109174   309405.446533    ;  uncertainty r = 0.000045, k = 3.044472
        24        25     1        0.119980   628990.240234    ;  uncertainty r = 0.000232, k = 12.942166
        26        47     1        0.108815   333309.968506    ;  uncertainty r = 0.000020, k = 2.085858
        27        28     1        0.139225   365046.313330    ;  uncertainty r = 0.000036, k = 2.319888
        27        48     1        0.108775   334128.432861    ;  uncertainty r = 0.000014, k = 1.136953
        28        49     1        0.108832   337587.102344    ;  uncertainty r = 0.000025, k = 0.479870

[ angles ]
;       ai        aj        ak funct           theta             cth
         1         2         3     1      109.631981      516.615148    ;  uncertainty theta = 0.000926, k = 0.049754
         2         1        29     1      108.813194      446.415230    ;  uncertainty theta = 0.001356, k = 0.024421
         2         1        30     1      108.813194      446.415230    ;  uncertainty theta = 0.001356, k = 0.024421
         2         1        31     1      108.813194      446.415230    ;  uncertainty theta = 0.001356, k = 0.024421
         2         3         4     1      119.731544      420.396874    ;  uncertainty theta = 0.003026, k = 0.055930
         2         3        28     1      119.731544      420.396906    ;  uncertainty theta = 0.003026, k = 0.055929
         3         4         5     1      119.582214      517.763967    ;  uncertainty theta = 0.002613, k = 0.046492
         3         4        32     1      119.827011      270.018254    ;  uncertainty theta = 0.002075, k = 0.039769
         3        28        27     1      119.582214      517.763967    ;  uncertainty theta = 0.002613, k = 0.046492
         3        28        49     1      119.827011      270.018254    ;  uncertainty theta = 0.002075, k = 0.039769
         4         3        28     1      120.166489      375.768988    ;  uncertainty theta = 0.006111, k = 0.104470
         4         5         6     1      122.146530      516.639919    ;  uncertainty theta = 0.001980, k = 0.064288
         4         5        33     1      119.627213      287.673909    ;  uncertainty theta = 0.001559, k = 0.036125
         5         4        32     1      120.788193      281.412880    ;  uncertainty theta = 0.001223, k = 0.055340
         5         6         7     1      120.425461      409.638856    ;  uncertainty theta = 0.002055, k = 0.048528
         5         6        27     1      119.096146      425.203852    ;  uncertainty theta = 0.002737, k = 0.088306
         6         5        33     1      119.139481      278.410865    ;  uncertainty theta = 0.001647, k = 0.070713
         6         7         8     1      121.506226      409.978947    ;  uncertainty theta = 0.002098, k = 0.106347
         6         7        26     1      120.322983      416.359681    ;  uncertainty theta = 0.002864, k = 0.139256
         6        27        28     1      122.146530      516.639919    ;  uncertainty theta = 0.001980, k = 0.064288
         6        27        48     1      119.139481      278.410865    ;  uncertainty theta = 0.001647, k = 0.070713
         7         6        27     1      120.425461      409.638856    ;  uncertainty theta = 0.002055, k = 0.048528
         7         8         9     1      119.842484      535.129425    ;  uncertainty theta = 0.002449, k = 0.066519
         7         8        34     1      119.042076      278.400970    ;  uncertainty theta = 0.000706, k = 0.097337
         7        26        11     1      122.229965      513.019395    ;  uncertainty theta = 0.002734, k = 0.166584
         7        26        47     1      118.950821      283.055427    ;  uncertainty theta = 0.002324, k = 0.095789
         8         7        26     1      119.854660      404.412623    ;  uncertainty theta = 0.004526, k = 0.220072
         8         9        10     1      120.296432      509.064846    ;  uncertainty theta = 0.002468, k = 0.077953
         8         9        35     1      120.395386      284.232943    ;  uncertainty theta = 0.000987, k = 0.052321
         9         8        34     1      120.219772      294.473835    ;  uncertainty theta = 0.001120, k = 0.016578
         9        10        11     1      120.116592      513.097890    ;  uncertainty theta = 0.003985, k = 0.048111
         9        10        36     1      120.331825      300.364767    ;  uncertainty theta = 0.002789, k = 0.028913
        10         9        35     1      119.787987      281.762579    ;  uncertainty theta = 0.002427, k = 0.048475
        10        11        12     1      117.188919      371.073703    ;  uncertainty theta = 0.007117, k = 0.190096
        10        11        26     1      123.441650      432.172833    ;  uncertainty theta = 0.006615, k = 0.179242
        11        10        36     1      118.579468      273.249879    ;  uncertainty theta = 0.004177, k = 0.069831
        11        12        13     1      113.186264      513.960693    ;  uncertainty theta = 0.011306, k = 0.359026
        11        12        19     1      110.363304      633.704774    ;  uncertainty theta = 0.005332, k = 0.196341
        11        12        24     1      109.087914      489.507379    ;  uncertainty theta = 0.008967, k = 0.155641
        11        26        47     1      118.206032      273.517061    ;  uncertainty theta = 0.004015, k = 0.065303
        12        11        26     1      116.625099      373.129792    ;  uncertainty theta = 0.006544, k = 0.114483
        12        13        14     1      117.074219      374.316469    ;  uncertainty theta = 0.007313, k = 0.169097
        12        13        18     1      117.074219      374.316469    ;  uncertainty theta = 0.007313, k = 0.169097
        12        19        20     1      111.750687      594.280584    ;  uncertainty theta = 0.019275, k = 0.459975
        12        19        42     1      117.291641      301.371153    ;  uncertainty theta = 0.006714, k = 0.480634
        12        24        22     1      109.961769      476.265111    ;  uncertainty theta = 0.006613, k = 0.652506
        12        24        25     1      125.519859      411.082565    ;  uncertainty theta = 0.008567, k = 0.131741
        13        12        19     1      110.460434      632.624745    ;  uncertainty theta = 0.005178, k = 0.185747
        13        12        24     1      109.141335      488.728178    ;  uncertainty theta = 0.009732, k = 0.152364
        13        14        15     1      121.038902      513.256220    ;  uncertainty theta = 0.003562, k = 0.078827
        13        14        37     1      118.396080      273.185271    ;  uncertainty theta = 0.004089, k = 0.068593
        13        18        17     1      121.038895      513.256220    ;  uncertainty theta = 0.003562, k = 0.078827
        13        18        41     1      118.396095      273.185271    ;  uncertainty theta = 0.004089, k = 0.068593
        14        13        18     1      123.006119      449.964953    ;  uncertainty theta = 0.007050, k = 0.147705
        14        15        16     1      119.486618      517.107663    ;  uncertainty theta = 0.001936, k = 0.033500
        14        15        38     1      119.692894      282.691555    ;  uncertainty theta = 0.002820, k = 0.049811
        15        14        37     1      120.085548      298.145592    ;  uncertainty theta = 0.002287, k = 0.040414
        15        16        17     1      118.018600      533.452020    ;  uncertainty theta = 0.001323, k = 0.059913
        15        16        39     1      120.465477      288.877473    ;  uncertainty theta = 0.001797, k = 0.017289
        16        15        38     1      120.779457      288.986261    ;  uncertainty theta = 0.001247, k = 0.025031
        16        17        18     1      119.486618      517.107663    ;  uncertainty theta = 0.001936, k = 0.033500
        16        17        40     1      120.779457      288.986261    ;  uncertainty theta = 0.001247, k = 0.025032
        17        16        39     1      120.465477      288.877473    ;  uncertainty theta = 0.001797, k = 0.017289
        17        18        41     1      120.085548      298.145624    ;  uncertainty theta = 0.002287, k = 0.040414
        18        17        40     1      119.692894      282.691555    ;  uncertainty theta = 0.002820, k = 0.049810
        19        12        24     1      102.870018      925.017114    ;  uncertainty theta = 0.007229, k = 0.531228
        19        20        21     1      128.556000      642.790686    ;  uncertainty theta = 0.009936, k = 0.330368
        19        20        22     1      113.193924      702.703298    ;  uncertainty theta = 0.009502, k = 0.274175
        20        19        42     1      119.382568      353.668471    ;  uncertainty theta = 0.010145, k = 0.152610
        20        21        43     1      114.821800      368.001142    ;  uncertainty theta = 0.004224, k = 0.186891
        20        21        50     1      114.821800      368.001142    ;  uncertainty theta = 0.004224, k = 0.186891
        20        22        23     1      118.639038      373.068566    ;  uncertainty theta = 0.007053, k = 0.430286
        20        22        24     1      110.408546      711.107752    ;  uncertainty theta = 0.009881, k = 0.266784
        21        20        22     1      125.899826      536.269401    ;  uncertainty theta = 0.010551, k = 0.299626
        22        23        44     1      107.362183      470.622878    ;  uncertainty theta = 0.002476, k = 0.220754
        22        23        45     1      107.362183      470.622878    ;  uncertainty theta = 0.002476, k = 0.220754
        22        23        46     1      107.362183      470.622878    ;  uncertainty theta = 0.002476, k = 0.220754
        22        24        25     1      125.508827      649.701794    ;  uncertainty theta = 0.010573, k = 0.151492
        23        22        24     1      119.076614      400.263960    ;  uncertainty theta = 0.008080, k = 0.316068
        27        28        49     1      120.788185      281.412880    ;  uncertainty theta = 0.001223, k = 0.055340
        28        27        48     1      119.627213      287.673877    ;  uncertainty theta = 0.001559, k = 0.036125
        29         1        30     1      109.081810      330.154316    ;  uncertainty theta = 0.001818, k = 0.013784
        29         1        31     1      109.081810      330.154316    ;  uncertainty theta = 0.001818, k = 0.013784
        30         1        31     1      109.081810      330.154316    ;  uncertainty theta = 0.001818, k = 0.013784
        43        21        50     1      112.418320      264.652907    ;  uncertainty theta = 0.015777, k = 0.354182
        44        23        45     1      107.627052      325.730937    ;  uncertainty theta = 0.003369, k = 0.100967
        44        23        46     1      107.627052      325.730937    ;  uncertainty theta = 0.003369, k = 0.100967
        45        23        46     1      107.627052      325.730937    ;  uncertainty theta = 0.003369, k = 0.100967

[ dihedrals ] ; propers for gromacs 4.5 or higher, use funct 9
;       ai        aj        ak        al funct           phase               k        pn
         1         2         3         4     9        0.000000        0.400413         1    ;  uncertainty k = 0.462982
         1         2         3         4     9      180.000000        7.890463         2    ;  uncertainty k = 0.089030
         1         2         3         4     9        0.000000        0.684531         3    ;  uncertainty k = 0.050263
         1         2         3         4     9      180.000000        0.303346         4    ;  uncertainty k = 0.031513
         1         2         3        28     9        0.000000        0.400414         1    ;  uncertainty k = 0.462983
         1         2         3        28     9      180.000000        7.890463         2    ;  uncertainty k = 0.089030
         1         2         3        28     9        0.000000        0.684531         3    ;  uncertainty k = 0.050263
         1         2         3        28     9      180.000000        0.303346         4    ;  uncertainty k = 0.031513
         2         3         4         5     9        0.000000        0.052008         1    ;  uncertainty k = 0.318024
         2         3         4         5     9      180.000000        9.938980         2    ;  uncertainty k = 0.447655
         2         3         4         5     9        0.000000        1.205323         3    ;  uncertainty k = 0.261208
         2         3         4         5     9      180.000000        1.592546         4    ;  uncertainty k = 0.128289
         2         3         4        32     9        0.000000       -0.125501         1    ;  uncertainty k = 0.175892
         2         3         4        32     9      180.000000        8.254384         2    ;  uncertainty k = 0.269327
         2         3         4        32     9        0.000000        0.661150         3    ;  uncertainty k = 0.142488
         2         3         4        32     9      180.000000        0.940831         4    ;  uncertainty k = 0.205047
         2         3        28        27     9        0.000000        0.052008         1    ;  uncertainty k = 0.318023
         2         3        28        27     9      180.000000        9.938982         2    ;  uncertainty k = 0.447655
         2         3        28        27     9        0.000000        1.205322         3    ;  uncertainty k = 0.261208
         2         3        28        27     9      180.000000        1.592546         4    ;  uncertainty k = 0.128289
         2         3        28        49     9        0.000000       -0.125500         1    ;  uncertainty k = 0.175891
         2         3        28        49     9      180.000000        8.254385         2    ;  uncertainty k = 0.269326
         2         3        28        49     9        0.000000        0.661150         3    ;  uncertainty k = 0.142488
         2         3        28        49     9      180.000000        0.940831         4    ;  uncertainty k = 0.205046
         3         2         1        29     9        0.000000        0.707837         1    ;  uncertainty k = 0.230900
         3         2         1        29     9      180.000000       -1.440836         2    ;  uncertainty k = 0.116134
         3         2         1        29     9        0.000000        0.934941         3    ;  uncertainty k = 0.055981
         3         2         1        29     9      180.000000        0.291613         4    ;  uncertainty k = 0.061323
         3         2         1        30     9        0.000000        0.707837         1    ;  uncertainty k = 0.230900
         3         2         1        30     9      180.000000       -1.440836         2    ;  uncertainty k = 0.116134
         3         2         1        30     9        0.000000        0.934941         3    ;  uncertainty k = 0.055981
         3         2         1        30     9      180.000000        0.291613         4    ;  uncertainty k = 0.061323
         3         2         1        31     9        0.000000        0.707837         1    ;  uncertainty k = 0.230900
         3         2         1        31     9      180.000000       -1.440836         2    ;  uncertainty k = 0.116134
         3         2         1        31     9        0.000000        0.934941         3    ;  uncertainty k = 0.055981
         3         2         1        31     9      180.000000        0.291613         4    ;  uncertainty k = 0.061323
         3         4         5         6     9        0.000000       -0.154292         1    ;  uncertainty k = 0.247302
         3         4         5         6     9      180.000000       13.959100         2    ;  uncertainty k = 0.233259
         3         4         5         6     9        0.000000       -0.604768         3    ;  uncertainty k = 0.423932
         3         4         5         6     9      180.000000        0.855950         4    ;  uncertainty k = 0.289605
         3         4         5        33     9        0.000000       -0.007687         1    ;  uncertainty k = 0.191320
         3         4         5        33     9      180.000000        8.207949         2    ;  uncertainty k = 0.298407
         3         4         5        33     9        0.000000        1.230791         3    ;  uncertainty k = 0.348409
         3         4         5        33     9      180.000000        1.756338         4    ;  uncertainty k = 0.114592
         3        28        27         6     9        0.000000       -0.154293         1    ;  uncertainty k = 0.247301
         3        28        27         6     9      180.000000       13.959100         2    ;  uncertainty k = 0.233258
         3        28        27         6     9        0.000000       -0.604767         3    ;  uncertainty k = 0.423931
         3        28        27         6     9      180.000000        0.855951         4    ;  uncertainty k = 0.289604
         3        28        27        48     9        0.000000       -0.007689         1    ;  uncertainty k = 0.191322
         3        28        27        48     9      180.000000        8.207948         2    ;  uncertainty k = 0.298408
         3        28        27        48     9        0.000000        1.230790         3    ;  uncertainty k = 0.348410
         3        28        27        48     9      180.000000        1.756338         4    ;  uncertainty k = 0.114592
         4         3        28        27     9        0.000000       -0.010947         1    ;  uncertainty k = 0.250672
         4         3        28        27     9      180.000000        8.945274         2    ;  uncertainty k = 0.591643
         4         3        28        27     9        0.000000       -0.037704         3    ;  uncertainty k = 0.342204
         4         3        28        27     9      180.000000        1.189108         4    ;  uncertainty k = 0.307411
         4         3        28        49     9        0.000000        0.227624         1    ;  uncertainty k = 0.290174
         4         3        28        49     9      180.000000        6.027042         2    ;  uncertainty k = 0.509034
         4         3        28        49     9        0.000000        1.423264         3    ;  uncertainty k = 0.297645
         4         3        28        49     9      180.000000        1.564263         4    ;  uncertainty k = 0.149546
         4         5         6         7     9        0.000000       -0.030399         1    ;  uncertainty k = 0.261105
         4         5         6         7     9      180.000000        8.603482         2    ;  uncertainty k = 0.542840
         4         5         6         7     9        0.000000        1.212588         3    ;  uncertainty k = 0.400731
         4         5         6         7     9      180.000000        1.798222         4    ;  uncertainty k = 0.158722
         4         5         6        27     9        0.000000        0.105194         1    ;  uncertainty k = 0.158564
         4         5         6        27     9      180.000000       11.495771         2    ;  uncertainty k = 0.302687
         4         5         6        27     9        0.000000       -0.548140         3    ;  uncertainty k = 0.335066
         4         5         6        27     9      180.000000        0.837228         4    ;  uncertainty k = 0.281526
         5         4         3        28     9        0.000000       -0.010946         1    ;  uncertainty k = 0.250672
         5         4         3        28     9      180.000000        8.945276         2    ;  uncertainty k = 0.591643
         5         4         3        28     9        0.000000       -0.037703         3    ;  uncertainty k = 0.342204
         5         4         3        28     9      180.000000        1.189108         4    ;  uncertainty k = 0.307411
         5         6         7         8     9        0.000000       -0.433753         1    ;  uncertainty k = 0.422788
         5         6         7         8     9      180.000000        4.051498         2    ;  uncertainty k = 0.080384
         5         6         7         8     9        0.000000        0.300944         3    ;  uncertainty k = 0.108825
         5         6         7         8     9      180.000000       -0.053720         4    ;  uncertainty k = 0.034157
         5         6         7        26     9        0.000000       -0.253121         1    ;  uncertainty k = 0.345551
         5         6         7        26     9      180.000000        4.315190         2    ;  uncertainty k = 0.070366
         5         6         7        26     9        0.000000        0.276056         3    ;  uncertainty k = 0.134605
         5         6         7        26     9      180.000000        0.030842         4    ;  uncertainty k = 0.069799
         5         6        27        28     9        0.000000        0.105192         1    ;  uncertainty k = 0.158565
         5         6        27        28     9      180.000000       11.495767         2    ;  uncertainty k = 0.302688
         5         6        27        28     9        0.000000       -0.548140         3    ;  uncertainty k = 0.335066
         5         6        27        28     9      180.000000        0.837228         4    ;  uncertainty k = 0.281526
         5         6        27        48     9        0.000000        0.047872         1    ;  uncertainty k = 0.197630
         5         6        27        48     9      180.000000        6.801534         2    ;  uncertainty k = 0.581119
         5         6        27        48     9        0.000000        1.371426         3    ;  uncertainty k = 0.269041
         5         6        27        48     9      180.000000        1.575056         4    ;  uncertainty k = 0.229058
         6         5         4        32     9        0.000000        0.068640         1    ;  uncertainty k = 0.118326
         6         5         4        32     9      180.000000        8.156507         2    ;  uncertainty k = 0.368082
         6         5         4        32     9        0.000000        1.389261         3    ;  uncertainty k = 0.317729
         6         5         4        32     9      180.000000        1.887421         4    ;  uncertainty k = 0.157070
         6         7         8         9     9        0.000000        0.039106         1    ;  uncertainty k = 0.250034
         6         7         8         9     9      180.000000        8.951735         2    ;  uncertainty k = 0.550592
         6         7         8         9     9        0.000000        1.162035         3    ;  uncertainty k = 0.432663
         6         7         8         9     9      180.000000        1.721003         4    ;  uncertainty k = 0.164528
         6         7         8        34     9        0.000000       -0.091738         1    ;  uncertainty k = 0.276861
         6         7         8        34     9      180.000000        7.103249         2    ;  uncertainty k = 0.466792
         6         7         8        34     9        0.000000        0.856509         3    ;  uncertainty k = 0.115652
         6         7         8        34     9      180.000000        1.209056         4    ;  uncertainty k = 0.187664
         6         7        26        11     9        0.000000        0.297930         1    ;  uncertainty k = 0.107637
         6         7        26        11     9      180.000000        8.416402         2    ;  uncertainty k = 0.385107
         6         7        26        11     9        0.000000        1.283872         3    ;  uncertainty k = 0.414417
         6         7        26        11     9      180.000000        1.726391         4    ;  uncertainty k = 0.090547
         6         7        26        47     9        0.000000       -0.045937         1    ;  uncertainty k = 0.188134
         6         7        26        47     9      180.000000        7.293990         2    ;  uncertainty k = 0.269885
         6         7        26        47     9        0.000000        0.888075         3    ;  uncertainty k = 0.172490
         6         7        26        47     9      180.000000        1.309405         4    ;  uncertainty k = 0.194090
         6        27        28        49     9        0.000000        0.068638         1    ;  uncertainty k = 0.118325
         6        27        28        49     9      180.000000        8.156510         2    ;  uncertainty k = 0.368083
         6        27        28        49     9        0.000000        1.389261         3    ;  uncertainty k = 0.317729
         6        27        28        49     9      180.000000        1.887420         4    ;  uncertainty k = 0.157070
         7         6         5        33     9        0.000000       -0.360757         1    ;  uncertainty k = 0.439412
         7         6         5        33     9      180.000000        7.070225         2    ;  uncertainty k = 0.436311
         7         6         5        33     9        0.000000        0.811023         3    ;  uncertainty k = 0.146339
         7         6         5        33     9      180.000000        1.132256         4    ;  uncertainty k = 0.218258
         7         6        27        28     9        0.000000       -0.030399         1    ;  uncertainty k = 0.261106
         7         6        27        28     9      180.000000        8.603484         2    ;  uncertainty k = 0.542840
         7         6        27        28     9        0.000000        1.212588         3    ;  uncertainty k = 0.400731
         7         6        27        28     9      180.000000        1.798222         4    ;  uncertainty k = 0.158722
         7         6        27        48     9        0.000000       -0.360757         1    ;  uncertainty k = 0.439412
         7         6        27        48     9      180.000000        7.070224         2    ;  uncertainty k = 0.436311
         7         6        27        48     9        0.000000        0.811023         3    ;  uncertainty k = 0.146338
         7         6        27        48     9      180.000000        1.132255         4    ;  uncertainty k = 0.218257
         7         8         9        10     9        0.000000       -0.067871         1    ;  uncertainty k = 0.265568
         7         8         9        10     9      180.000000       14.025533         2    ;  uncertainty k = 0.251711
         7         8         9        10     9        0.000000       -0.847869         3    ;  uncertainty k = 0.454124
         7         8         9        10     9      180.000000        0.711003         4    ;  uncertainty k = 0.211362
         7         8         9        35     9        0.000000        0.009585         1    ;  uncertainty k = 0.161994
         7         8         9        35     9      180.000000        7.699151         2    ;  uncertainty k = 0.355614
         7         8         9        35     9        0.000000        1.336813         3    ;  uncertainty k = 0.221412
         7         8         9        35     9      180.000000        1.834007         4    ;  uncertainty k = 0.192637
         7        26        11        10     9        0.000000       -0.344305         1    ;  uncertainty k = 0.439889
         7        26        11        10     9      180.000000       11.673468         2    ;  uncertainty k = 0.155366
         7        26        11        10     9        0.000000       -0.280271         3    ;  uncertainty k = 0.237836
         7        26        11        10     9      180.000000        0.946305         4    ;  uncertainty k = 0.209909
         7        26        11        12     9        0.000000        0.034843         1    ;  uncertainty k = 0.231377
         7        26        11        12     9      180.000000        8.478748         2    ;  uncertainty k = 0.384626
         7        26        11        12     9        0.000000        1.322531         3    ;  uncertainty k = 0.283596
         7        26        11        12     9      180.000000        1.855534         4    ;  uncertainty k = 0.128690
         8         7         6        27     9        0.000000       -0.433753         1    ;  uncertainty k = 0.422788
         8         7         6        27     9      180.000000        4.051496         2    ;  uncertainty k = 0.080383
         8         7         6        27     9        0.000000        0.300944         3    ;  uncertainty k = 0.108824
         8         7         6        27     9      180.000000       -0.053720         4    ;  uncertainty k = 0.034157
         8         7        26        11     9        0.000000        0.155448         1    ;  uncertainty k = 0.376445
         8         7        26        11     9      180.000000        9.756862         2    ;  uncertainty k = 0.523028
         8         7        26        11     9        0.000000       -0.097377         3    ;  uncertainty k = 0.300917
         8         7        26        11     9      180.000000        1.117566         4    ;  uncertainty k = 0.313051
         8         7        26        47     9        0.000000        0.112950         1    ;  uncertainty k = 0.165132
         8         7        26        47     9      180.000000        7.211351         2    ;  uncertainty k = 0.678233
         8         7        26        47     9        0.000000        1.430738         3    ;  uncertainty k = 0.121255
         8         7        26        47     9      180.000000        1.634377         4    ;  uncertainty k = 0.236206
         8         9        10        11     9        0.000000       -0.029526         1    ;  uncertainty k = 0.250140
         8         9        10        11     9      180.000000       13.134307         2    ;  uncertainty k = 0.324248
         8         9        10        11     9        0.000000       -0.888436         3    ;  uncertainty k = 0.557313
         8         9        10        11     9      180.000000        0.769130         4    ;  uncertainty k = 0.220931
         8         9        10        36     9        0.000000        0.042125         1    ;  uncertainty k = 0.086626
         8         9        10        36     9      180.000000        7.775274         2    ;  uncertainty k = 0.386825
         8         9        10        36     9        0.000000        1.362284         3    ;  uncertainty k = 0.234682
         8         9        10        36     9      180.000000        1.811590         4    ;  uncertainty k = 0.098599
         9         8         7        26     9        0.000000        0.149594         1    ;  uncertainty k = 0.235587
         9         8         7        26     9      180.000000       10.962270         2    ;  uncertainty k = 0.224909
         9         8         7        26     9        0.000000       -0.415611         3    ;  uncertainty k = 0.359889
         9         8         7        26     9      180.000000        0.969304         4    ;  uncertainty k = 0.292483
         9        10        11        12     9        0.000000        0.040984         1    ;  uncertainty k = 0.352621
         9        10        11        12     9      180.000000        8.805888         2    ;  uncertainty k = 0.399520
         9        10        11        12     9        0.000000        1.443687         3    ;  uncertainty k = 0.363116
         9        10        11        12     9      180.000000        1.863793         4    ;  uncertainty k = 0.164462
         9        10        11        26     9        0.000000       -0.274329         1    ;  uncertainty k = 0.291999
         9        10        11        26     9      180.000000       11.987497         2    ;  uncertainty k = 0.351789
         9        10        11        26     9        0.000000       -0.626495         3    ;  uncertainty k = 0.182580
         9        10        11        26     9      180.000000        0.822246         4    ;  uncertainty k = 0.279200
        10         9         8        34     9        0.000000        0.032972         1    ;  uncertainty k = 0.105436
        10         9         8        34     9      180.000000        7.678407         2    ;  uncertainty k = 0.219449
        10         9         8        34     9        0.000000        1.433723         3    ;  uncertainty k = 0.221969
        10         9         8        34     9      180.000000        1.813466         4    ;  uncertainty k = 0.226875
        10        11        12        13     9        0.000000        0.693921         1    ;  uncertainty k = 0.318572
        10        11        12        13     9      180.000000        1.270418         2    ;  uncertainty k = 0.479803
        10        11        12        13     9        0.000000        0.262144         3    ;  uncertainty k = 0.314566
        10        11        12        13     9      180.000000        0.217016         4    ;  uncertainty k = 0.019053
        10        11        12        19     9        0.000000       -1.025906         1    ;  uncertainty k = 1.201610
        10        11        12        19     9      180.000000        2.621037         2    ;  uncertainty k = 0.558884
        10        11        12        19     9        0.000000        0.532332         3    ;  uncertainty k = 0.211924
        10        11        12        19     9      180.000000        0.331473         4    ;  uncertainty k = 0.181779
        10        11        12        24     9        0.000000        0.342003         1    ;  uncertainty k = 1.184394
        10        11        12        24     9      180.000000        0.986087         2    ;  uncertainty k = 0.376610
        10        11        12        24     9        0.000000        0.469383         3    ;  uncertainty k = 0.110008
        10        11        12        24     9      180.000000        0.252516         4    ;  uncertainty k = 0.170003
        10        11        26        47     9        0.000000        0.269814         1    ;  uncertainty k = 0.112714
        10        11        26        47     9      180.000000        7.801476         2    ;  uncertainty k = 0.501151
        10        11        26        47     9        0.000000        1.306346         3    ;  uncertainty k = 0.364415
        10        11        26        47     9      180.000000        1.639874         4    ;  uncertainty k = 0.191191
        11        10         9        35     9        0.000000        0.130309         1    ;  uncertainty k = 0.335970
        11        10         9        35     9      180.000000        7.387019         2    ;  uncertainty k = 0.314936
        11        10         9        35     9        0.000000        1.444593         3    ;  uncertainty k = 0.134926
        11        10         9        35     9      180.000000        1.815730         4    ;  uncertainty k = 0.167713
        11        12        13        14     9        0.000000        0.604432         1    ;  uncertainty k = 0.306258
        11        12        13        14     9      180.000000        1.338869         2    ;  uncertainty k = 0.482783
        11        12        13        14     9        0.000000        0.282091         3    ;  uncertainty k = 0.315114
        11        12        13        14     9      180.000000        0.240277         4    ;  uncertainty k = 0.026855
        11        12        13        18     9        0.000000        0.604432         1    ;  uncertainty k = 0.306258
        11        12        13        18     9      180.000000        1.338869         2    ;  uncertainty k = 0.482783
        11        12        13        18     9        0.000000        0.282091         3    ;  uncertainty k = 0.315114
        11        12        13        18     9      180.000000        0.240277         4    ;  uncertainty k = 0.026855
        11        12        19        20     9        0.000000        0.066199         1    ;  uncertainty k = 0.766274
        11        12        19        20     9      180.000000        1.001081         2    ;  uncertainty k = 0.551928
        11        12        19        20     9        0.000000        0.663411         3    ;  uncertainty k = 0.261482
        11        12        19        20     9      180.000000        0.495633         4    ;  uncertainty k = 0.301240
        11        12        19        42     9        0.000000        2.215359         1    ;  uncertainty k = 1.158419
        11        12        19        42     9      180.000000        0.335799         2    ;  uncertainty k = 1.110183
        11        12        19        42     9        0.000000        0.587311         3    ;  uncertainty k = 0.400245
        11        12        19        42     9      180.000000        0.046799         4    ;  uncertainty k = 0.131012
        11        12        24        22     9        0.000000       -2.037881         1    ;  uncertainty k = 3.177864
        11        12        24        22     9      180.000000        1.481072         2    ;  uncertainty k = 1.062156
        11        12        24        22     9        0.000000        1.051228         3    ;  uncertainty k = 0.548384
        11        12        24        22     9      180.000000        0.739317         4    ;  uncertainty k = 0.281152
        11        12        24        25     9        0.000000       -0.497889         1    ;  uncertainty k = 1.456442
        11        12        24        25     9      180.000000        3.282057         2    ;  uncertainty k = 0.680876
        11        12        24        25     9        0.000000        0.447933         3    ;  uncertainty k = 0.239946
        11        12        24        25     9      180.000000        0.073708         4    ;  uncertainty k = 0.185546
        12        11        10        36     9        0.000000       -0.295494         1    ;  uncertainty k = 0.178811
        12        11        10        36     9      180.000000        6.909229         2    ;  uncertainty k = 0.444428
        12        11        10        36     9        0.000000        0.631065         3    ;  uncertainty k = 0.378602
        12        11        10        36     9      180.000000        1.058610         4    ;  uncertainty k = 0.260534
        12        11        26        47     9        0.000000       -0.235105         1    ;  uncertainty k = 0.114281
        12        11        26        47     9      180.000000        7.081289         2    ;  uncertainty k = 0.492981
        12        11        26        47     9        0.000000        0.600192         3    ;  uncertainty k = 0.412357
        12        11        26        47     9      180.000000        1.109087         4    ;  uncertainty k = 0.295872
        12        13        14        15     9        0.000000        0.032928         1    ;  uncertainty k = 0.381328
        12        13        14        15     9      180.000000        8.668435         2    ;  uncertainty k = 0.351930
        12        13        14        15     9        0.000000        1.456047         3    ;  uncertainty k = 0.364144
        12        13        14        15     9      180.000000        1.853281         4    ;  uncertainty k = 0.176604
        12        13        14        37     9        0.000000       -0.276888         1    ;  uncertainty k = 0.183727
        12        13        14        37     9      180.000000        6.938092         2    ;  uncertainty k = 0.459858
        12        13        14        37     9        0.000000        0.623176         3    ;  uncertainty k = 0.398126
        12        13        14        37     9      180.000000        1.065174         4    ;  uncertainty k = 0.272845
        12        13        18        17     9        0.000000        0.032928         1    ;  uncertainty k = 0.381328
        12        13        18        17     9      180.000000        8.668435         2    ;  uncertainty k = 0.351930
        12        13        18        17     9        0.000000        1.456047         3    ;  uncertainty k = 0.364144
        12        13        18        17     9      180.000000        1.853281         4    ;  uncertainty k = 0.176604
        12        13        18        41     9        0.000000       -0.276888         1    ;  uncertainty k = 0.183727
        12        13        18        41     9      180.000000        6.938094         2    ;  uncertainty k = 0.459859
        12        13        18        41     9        0.000000        0.623176         3    ;  uncertainty k = 0.398126
        12        13        18        41     9      180.000000        1.065175         4    ;  uncertainty k = 0.272844
        12        19        20        21     9        0.000000        2.188018         1    ;  uncertainty k = 1.893595
        12        19        20        21     9      180.000000       10.144536         2    ;  uncertainty k = 0.979795
        12        19        20        21     9        0.000000        0.434811         3    ;  uncertainty k = 0.470361
        12        19        20        21     9      180.000000       -0.420942         4    ;  uncertainty k = 0.555912
        12        19        20        22     9        0.000000        1.216638         1    ;  uncertainty k = 1.851011
        12        19        20        22     9      180.000000       14.836933         2    ;  uncertainty k = 0.431548
        12        19        20        22     9        0.000000       -0.181364         3    ;  uncertainty k = 0.984648
        12        19        20        22     9      180.000000       -0.541451         4    ;  uncertainty k = 0.214129
        12        24        22        20     9        0.000000        3.107153         1    ;  uncertainty k = 1.849251
        12        24        22        20     9      180.000000        3.066215         2    ;  uncertainty k = 0.882202
        12        24        22        20     9        0.000000       -0.285893         3    ;  uncertainty k = 0.712735
        12        24        22        20     9      180.000000        0.753330         4    ;  uncertainty k = 0.259714
        12        24        22        23     9        0.000000        5.315174         1    ;  uncertainty k = 1.998702
        12        24        22        23     9      180.000000        4.608338         2    ;  uncertainty k = 1.496937
        12        24        22        23     9        0.000000        1.271077         3    ;  uncertainty k = 0.828354
        12        24        22        23     9      180.000000        0.033156         4    ;  uncertainty k = 0.568100
        13        12        11        26     9        0.000000        0.688747         1    ;  uncertainty k = 0.417309
        13        12        11        26     9      180.000000        1.199511         2    ;  uncertainty k = 0.535195
        13        12        11        26     9        0.000000        0.208028         3    ;  uncertainty k = 0.342175
        13        12        11        26     9      180.000000        0.228344         4    ;  uncertainty k = 0.029728
        13        12        19        20     9        0.000000        0.091809         1    ;  uncertainty k = 0.741143
        13        12        19        20     9      180.000000        1.014767         2    ;  uncertainty k = 0.553246
        13        12        19        20     9        0.000000        0.643088         3    ;  uncertainty k = 0.282748
        13        12        19        20     9      180.000000        0.484815         4    ;  uncertainty k = 0.293264
        13        12        19        42     9        0.000000        2.192741         1    ;  uncertainty k = 1.168891
        13        12        19        42     9      180.000000        0.278657         2    ;  uncertainty k = 1.126460
        13        12        19        42     9        0.000000        0.581789         3    ;  uncertainty k = 0.409016
        13        12        19        42     9      180.000000        0.050894         4    ;  uncertainty k = 0.133681
        13        12        24        22     9        0.000000       -2.102596         1    ;  uncertainty k = 3.102235
        13        12        24        22     9      180.000000        1.474984         2    ;  uncertainty k = 1.103387
        13        12        24        22     9        0.000000        1.021732         3    ;  uncertainty k = 0.532804
        13        12        24        22     9      180.000000        0.737330         4    ;  uncertainty k = 0.291002
        13        12        24        25     9        0.000000       -0.742445         1    ;  uncertainty k = 1.309834
        13        12        24        25     9      180.000000        3.252606         2    ;  uncertainty k = 0.704088
        13        12        24        25     9        0.000000        0.415227         3    ;  uncertainty k = 0.232107
        13        12        24        25     9      180.000000        0.072409         4    ;  uncertainty k = 0.180998
        13        14        15        16     9        0.000000        0.005134         1    ;  uncertainty k = 0.242164
        13        14        15        16     9      180.000000       13.352666         2    ;  uncertainty k = 0.284060
        13        14        15        16     9        0.000000       -0.876868         3    ;  uncertainty k = 0.537707
        13        14        15        16     9      180.000000        0.737382         4    ;  uncertainty k = 0.245374
        13        14        15        38     9        0.000000        0.129489         1    ;  uncertainty k = 0.312672
        13        14        15        38     9      180.000000        7.427846         2    ;  uncertainty k = 0.328691
        13        14        15        38     9        0.000000        1.481585         3    ;  uncertainty k = 0.152720
        13        14        15        38     9      180.000000        1.803538         4    ;  uncertainty k = 0.149501
        13        18        17        16     9        0.000000        0.005134         1    ;  uncertainty k = 0.242164
        13        18        17        16     9      180.000000       13.352666         2    ;  uncertainty k = 0.284060
        13        18        17        16     9        0.000000       -0.876868         3    ;  uncertainty k = 0.537707
        13        18        17        16     9      180.000000        0.737382         4    ;  uncertainty k = 0.245374
        13        18        17        40     9        0.000000        0.129491         1    ;  uncertainty k = 0.312672
        13        18        17        40     9      180.000000        7.427845         2    ;  uncertainty k = 0.328691
        13        18        17        40     9        0.000000        1.481584         3    ;  uncertainty k = 0.152720
        13        18        17        40     9      180.000000        1.803539         4    ;  uncertainty k = 0.149501
        14        13        12        19     9        0.000000       -1.006358         1    ;  uncertainty k = 1.282049
        14        13        12        19     9      180.000000        2.605369         2    ;  uncertainty k = 0.522488
        14        13        12        19     9        0.000000        0.536044         3    ;  uncertainty k = 0.227424
        14        13        12        19     9      180.000000        0.333204         4    ;  uncertainty k = 0.173230
        14        13        12        24     9        0.000000        0.270088         1    ;  uncertainty k = 1.215595
        14        13        12        24     9      180.000000        0.970681         2    ;  uncertainty k = 0.379854
        14        13        12        24     9        0.000000        0.486666         3    ;  uncertainty k = 0.110641
        14        13        12        24     9      180.000000        0.249509         4    ;  uncertainty k = 0.167503
        14        13        18        17     9        0.000000       -0.240734         1    ;  uncertainty k = 0.377667
        14        13        18        17     9      180.000000       12.023573         2    ;  uncertainty k = 0.322595
        14        13        18        17     9        0.000000       -0.630710         3    ;  uncertainty k = 0.226695
        14        13        18        17     9      180.000000        0.783826         4    ;  uncertainty k = 0.301902
        14        13        18        41     9        0.000000        0.252150         1    ;  uncertainty k = 0.138567
        14        13        18        41     9      180.000000        7.620993         2    ;  uncertainty k = 0.536107
        14        13        18        41     9        0.000000        1.293074         3    ;  uncertainty k = 0.300641
        14        13        18        41     9      180.000000        1.649203         4    ;  uncertainty k = 0.194464
        14        15        16        17     9        0.000000       -0.006372         1    ;  uncertainty k = 0.040989
        14        15        16        17     9      180.000000       14.797847         2    ;  uncertainty k = 0.237723
        14        15        16        17     9        0.000000       -1.169439         3    ;  uncertainty k = 0.405008
        14        15        16        17     9      180.000000        0.534939         4    ;  uncertainty k = 0.272125
        14        15        16        39     9        0.000000        0.023623         1    ;  uncertainty k = 0.110077
        14        15        16        39     9      180.000000        7.495129         2    ;  uncertainty k = 0.205716
        14        15        16        39     9        0.000000        1.458527         3    ;  uncertainty k = 0.253935
        14        15        16        39     9      180.000000        1.798438         4    ;  uncertainty k = 0.212079
        15        14        13        18     9        0.000000       -0.240734         1    ;  uncertainty k = 0.377667
        15        14        13        18     9      180.000000       12.023573         2    ;  uncertainty k = 0.322595
        15        14        13        18     9        0.000000       -0.630710         3    ;  uncertainty k = 0.226695
        15        14        13        18     9      180.000000        0.783826         4    ;  uncertainty k = 0.301902
        15        16        17        18     9        0.000000       -0.006372         1    ;  uncertainty k = 0.040989
        15        16        17        18     9      180.000000       14.797847         2    ;  uncertainty k = 0.237723
        15        16        17        18     9        0.000000       -1.169439         3    ;  uncertainty k = 0.405008
        15        16        17        18     9      180.000000        0.534939         4    ;  uncertainty k = 0.272125
        15        16        17        40     9        0.000000       -0.019977         1    ;  uncertainty k = 0.134329
        15        16        17        40     9      180.000000        7.715564         2    ;  uncertainty k = 0.305081
        15        16        17        40     9        0.000000        1.421882         3    ;  uncertainty k = 0.287489
        15        16        17        40     9      180.000000        1.773059         4    ;  uncertainty k = 0.137712
        16        15        14        37     9        0.000000       -0.004881         1    ;  uncertainty k = 0.143287
        16        15        14        37     9      180.000000        8.039949         2    ;  uncertainty k = 0.374443
        16        15        14        37     9        0.000000        1.349892         3    ;  uncertainty k = 0.280047
        16        15        14        37     9      180.000000        1.833069         4    ;  uncertainty k = 0.108033
        16        17        18        41     9        0.000000       -0.004880         1    ;  uncertainty k = 0.143288
        16        17        18        41     9      180.000000        8.039949         2    ;  uncertainty k = 0.374443
        16        17        18        41     9        0.000000        1.349893         3    ;  uncertainty k = 0.280047
        16        17        18        41     9      180.000000        1.833068         4    ;  uncertainty k = 0.108032
        17        16        15        38     9        0.000000       -0.019977         1    ;  uncertainty k = 0.134330
        17        16        15        38     9      180.000000        7.715562         2    ;  uncertainty k = 0.305082
        17        16        15        38     9        0.000000        1.421882         3    ;  uncertainty k = 0.287489
        17        16        15        38     9      180.000000        1.773058         4    ;  uncertainty k = 0.137712
        18        13        12        19     9        0.000000       -1.006358         1    ;  uncertainty k = 1.282049
        18        13        12        19     9      180.000000        2.605369         2    ;  uncertainty k = 0.522488
        18        13        12        19     9        0.000000        0.536044         3    ;  uncertainty k = 0.227424
        18        13        12        19     9      180.000000        0.333204         4    ;  uncertainty k = 0.173230
        18        13        12        24     9        0.000000        0.270088         1    ;  uncertainty k = 1.215595
        18        13        12        24     9      180.000000        0.970681         2    ;  uncertainty k = 0.379854
        18        13        12        24     9        0.000000        0.486666         3    ;  uncertainty k = 0.110641
        18        13        12        24     9      180.000000        0.249509         4    ;  uncertainty k = 0.167503
        18        13        14        37     9        0.000000        0.252149         1    ;  uncertainty k = 0.138566
        18        13        14        37     9      180.000000        7.620993         2    ;  uncertainty k = 0.536107
        18        13        14        37     9        0.000000        1.293075         3    ;  uncertainty k = 0.300642
        18        13        14        37     9      180.000000        1.649203         4    ;  uncertainty k = 0.194464
        18        17        16        39     9        0.000000        0.023623         1    ;  uncertainty k = 0.110077
        18        17        16        39     9      180.000000        7.495129         2    ;  uncertainty k = 0.205716
        18        17        16        39     9        0.000000        1.458527         3    ;  uncertainty k = 0.253935
        18        17        16        39     9      180.000000        1.798438         4    ;  uncertainty k = 0.212079
        19        12        11        26     9        0.000000       -0.812418         1    ;  uncertainty k = 1.190585
        19        12        11        26     9      180.000000        2.614922         2    ;  uncertainty k = 0.651823
        19        12        11        26     9        0.000000        0.487180         3    ;  uncertainty k = 0.181040
        19        12        11        26     9      180.000000        0.338572         4    ;  uncertainty k = 0.181116
        19        12        24        22     9        0.000000        0.026898         1    ;  uncertainty k = 2.722771
        19        12        24        22     9      180.000000        6.600281         2    ;  uncertainty k = 0.954493
        19        12        24        22     9        0.000000        0.270507         3    ;  uncertainty k = 0.664803
        19        12        24        22     9      180.000000        0.250183         4    ;  uncertainty k = 0.591147
        19        12        24        25     9        0.000000       -1.351474         1    ;  uncertainty k = 2.878369
        19        12        24        25     9      180.000000        2.586287         2    ;  uncertainty k = 1.299806
        19        12        24        25     9        0.000000        0.299897         3    ;  uncertainty k = 0.631686
        19        12        24        25     9      180.000000        0.356820         4    ;  uncertainty k = 0.111974
        19        20        21        43     9        0.000000        5.761292         1    ;  uncertainty k = 1.326848
        19        20        21        43     9      180.000000       10.436705         2    ;  uncertainty k = 0.346043
        19        20        21        43     9        0.000000        1.485193         3    ;  uncertainty k = 0.455012
        19        20        21        43     9      180.000000       -0.773238         4    ;  uncertainty k = 0.306950
        19        20        21        50     9        0.000000        5.761292         1    ;  uncertainty k = 1.326848
        19        20        21        50     9      180.000000       10.436705         2    ;  uncertainty k = 0.346043
        19        20        21        50     9        0.000000        1.485193         3    ;  uncertainty k = 0.455012
        19        20        21        50     9      180.000000       -0.773238         4    ;  uncertainty k = 0.306950
        19        20        22        23     9        0.000000       -0.356118         1    ;  uncertainty k = 2.518193
        19        20        22        23     9      180.000000        8.283855         2    ;  uncertainty k = 0.415940
        19        20        22        23     9        0.000000        0.272445         3    ;  uncertainty k = 0.120757
        19        20        22        23     9      180.000000       -0.125980         4    ;  uncertainty k = 0.245883
        19        20        22        24     9        0.000000       -0.153039         1    ;  uncertainty k = 1.721867
        19        20        22        24     9      180.000000        8.631893         2    ;  uncertainty k = 0.890565
        19        20        22        24     9        0.000000       -1.128579         3    ;  uncertainty k = 1.132201
        19        20        22        24     9      180.000000        0.000351         4    ;  uncertainty k = 0.465972
        20        19        12        24     9        0.000000        2.020598         1    ;  uncertainty k = 0.690694
        20        19        12        24     9      180.000000        2.318166         2    ;  uncertainty k = 1.059665
        20        19        12        24     9        0.000000        0.199857         3    ;  uncertainty k = 0.699828
        20        19        12        24     9      180.000000        0.438068         4    ;  uncertainty k = 0.468952
        20        22        23        44     9        0.000000       -0.396421         1    ;  uncertainty k = 0.524314
        20        22        23        44     9      180.000000       -1.104408         2    ;  uncertainty k = 0.426496
        20        22        23        44     9        0.000000        0.442755         3    ;  uncertainty k = 0.213660
        20        22        23        44     9      180.000000        0.194734         4    ;  uncertainty k = 0.049390
        20        22        23        45     9        0.000000       -0.396421         1    ;  uncertainty k = 0.524314
        20        22        23        45     9      180.000000       -1.104408         2    ;  uncertainty k = 0.426496
        20        22        23        45     9        0.000000        0.442755         3    ;  uncertainty k = 0.213660
        20        22        23        45     9      180.000000        0.194734         4    ;  uncertainty k = 0.049390
        20        22        23        46     9        0.000000       -0.396421         1    ;  uncertainty k = 0.524314
        20        22        23        46     9      180.000000       -1.104408         2    ;  uncertainty k = 0.426496
        20        22        23        46     9        0.000000        0.442755         3    ;  uncertainty k = 0.213660
        20        22        23        46     9      180.000000        0.194734         4    ;  uncertainty k = 0.049390
        20        22        24        25     9        0.000000        0.406781         1    ;  uncertainty k = 2.598332
        20        22        24        25     9      180.000000        7.636296         2    ;  uncertainty k = 0.797350
        20        22        24        25     9        0.000000        0.506696         3    ;  uncertainty k = 0.484035
        20        22        24        25     9      180.000000        0.070887         4    ;  uncertainty k = 0.264122
        21        20        19        42     9        0.000000        2.256417         1    ;  uncertainty k = 2.728266
        21        20        19        42     9      180.000000        7.437433         2    ;  uncertainty k = 1.129202
        21        20        19        42     9        0.000000        0.944499         3    ;  uncertainty k = 0.181482
        21        20        19        42     9      180.000000       -0.270290         4    ;  uncertainty k = 0.314797
        21        20        22        23     9        0.000000        0.020222         1    ;  uncertainty k = 0.657934
        21        20        22        23     9      180.000000        6.877463         2    ;  uncertainty k = 0.678114
        21        20        22        23     9        0.000000        0.933687         3    ;  uncertainty k = 0.728897
        21        20        22        23     9      180.000000        0.009158         4    ;  uncertainty k = 0.300485
        21        20        22        24     9        0.000000       -0.586688         1    ;  uncertainty k = 0.774775
        21        20        22        24     9      180.000000        6.636752         2    ;  uncertainty k = 1.298464
        21        20        22        24     9        0.000000        0.201670         3    ;  uncertainty k = 0.743074
        21        20        22        24     9      180.000000       -0.088175         4    ;  uncertainty k = 0.478530
        22        20        19        42     9        0.000000        4.192860         1    ;  uncertainty k = 3.453399
        22        20        19        42     9      180.000000       10.610631         2    ;  uncertainty k = 0.634115
        22        20        19        42     9        0.000000        0.940963         3    ;  uncertainty k = 0.791708
        22        20        19        42     9      180.000000       -0.427268         4    ;  uncertainty k = 0.191048
        22        20        21        43     9        0.000000        7.495468         1    ;  uncertainty k = 2.018544
        22        20        21        43     9      180.000000        9.518868         2    ;  uncertainty k = 0.609487
        22        20        21        43     9        0.000000        1.009624         3    ;  uncertainty k = 0.533193
        22        20        21        43     9      180.000000       -0.962190         4    ;  uncertainty k = 0.242200
        22        20        21        50     9        0.000000        7.495468         1    ;  uncertainty k = 2.018544
        22        20        21        50     9      180.000000        9.518868         2    ;  uncertainty k = 0.609487
        22        20        21        50     9        0.000000        1.009624         3    ;  uncertainty k = 0.533193
        22        20        21        50     9      180.000000       -0.962190         4    ;  uncertainty k = 0.242200
        23        22        24        25     9        0.000000       -0.515838         1    ;  uncertainty k = 3.156146
        23        22        24        25     9      180.000000        8.416191         2    ;  uncertainty k = 0.470257
        23        22        24        25     9        0.000000        0.571767         3    ;  uncertainty k = 0.526357
        23        22        24        25     9      180.000000        0.206425         4    ;  uncertainty k = 0.242867
        24        12        11        26     9        0.000000        0.320604         1    ;  uncertainty k = 1.213904
        24        12        11        26     9      180.000000        0.986934         2    ;  uncertainty k = 0.365423
        24        12        11        26     9        0.000000        0.423506         3    ;  uncertainty k = 0.099844
        24        12        11        26     9      180.000000        0.257888         4    ;  uncertainty k = 0.166690
        24        12        19        42     9        0.000000       -0.290077         1    ;  uncertainty k = 2.574721
        24        12        19        42     9      180.000000        0.241722         2    ;  uncertainty k = 1.828814
        24        12        19        42     9        0.000000        0.369688         3    ;  uncertainty k = 0.455814
        24        12        19        42     9      180.000000       -0.040548         4    ;  uncertainty k = 0.160948
        24        22        23        44     9        0.000000        0.248591         1    ;  uncertainty k = 0.444250
        24        22        23        44     9      180.000000        0.083806         2    ;  uncertainty k = 0.256011
        24        22        23        44     9        0.000000        0.361519         3    ;  uncertainty k = 0.229559
        24        22        23        44     9      180.000000        0.309824         4    ;  uncertainty k = 0.070542
        24        22        23        45     9        0.000000        0.248591         1    ;  uncertainty k = 0.444250
        24        22        23        45     9      180.000000        0.083806         2    ;  uncertainty k = 0.256011
        24        22        23        45     9        0.000000        0.361519         3    ;  uncertainty k = 0.229559
        24        22        23        45     9      180.000000        0.309824         4    ;  uncertainty k = 0.070542
        24        22        23        46     9        0.000000        0.248591         1    ;  uncertainty k = 0.444250
        24        22        23        46     9      180.000000        0.083806         2    ;  uncertainty k = 0.256011
        24        22        23        46     9        0.000000        0.361519         3    ;  uncertainty k = 0.229559
        24        22        23        46     9      180.000000        0.309824         4    ;  uncertainty k = 0.070542
        26         7         6        27     9        0.000000       -0.253121         1    ;  uncertainty k = 0.345551
        26         7         6        27     9      180.000000        4.315190         2    ;  uncertainty k = 0.070367
        26         7         6        27     9        0.000000        0.276057         3    ;  uncertainty k = 0.134605
        26         7         6        27     9      180.000000        0.030842         4    ;  uncertainty k = 0.069799
        26         7         8        34     9        0.000000        0.172206         1    ;  uncertainty k = 0.164330
        26         7         8        34     9      180.000000        7.068693         2    ;  uncertainty k = 0.445571
        26         7         8        34     9        0.000000        1.403843         3    ;  uncertainty k = 0.253334
        26         7         8        34     9      180.000000        1.591628         4    ;  uncertainty k = 0.257420
        26        11        10        36     9        0.000000        0.312629         1    ;  uncertainty k = 0.190292
        26        11        10        36     9      180.000000        7.595632         2    ;  uncertainty k = 0.551731
        26        11        10        36     9        0.000000        1.287661         3    ;  uncertainty k = 0.350844
        26        11        10        36     9      180.000000        1.645475         4    ;  uncertainty k = 0.209409
        27         6         5        33     9        0.000000        0.047871         1    ;  uncertainty k = 0.197630
        27         6         5        33     9      180.000000        6.801534         2    ;  uncertainty k = 0.581119
        27         6         5        33     9        0.000000        1.371426         3    ;  uncertainty k = 0.269041
        27         6         5        33     9      180.000000        1.575057         4    ;  uncertainty k = 0.229059
        28         3         4        32     9        0.000000        0.227623         1    ;  uncertainty k = 0.290175
        28         3         4        32     9      180.000000        6.027042         2    ;  uncertainty k = 0.509034
        28         3         4        32     9        0.000000        1.423263         3    ;  uncertainty k = 0.297645
        28         3         4        32     9      180.000000        1.564263         4    ;  uncertainty k = 0.149546
        32         4         5        33     9        0.000000       -0.029060         1    ;  uncertainty k = 0.173164
        32         4         5        33     9      180.000000        7.711512         2    ;  uncertainty k = 0.401070
        32         4         5        33     9        0.000000       -0.445202         3    ;  uncertainty k = 0.226419
        32         4         5        33     9      180.000000        0.212590         4    ;  uncertainty k = 0.155596
        34         8         9        35     9        0.000000       -0.091342         1    ;  uncertainty k = 0.201671
        34         8         9        35     9      180.000000        7.955100         2    ;  uncertainty k = 0.286442
        34         8         9        35     9        0.000000       -0.501359         3    ;  uncertainty k = 0.277133
        34         8         9        35     9      180.000000        0.117607         4    ;  uncertainty k = 0.149001
        35         9        10        36     9        0.000000       -0.162734         1    ;  uncertainty k = 0.342356
        35         9        10        36     9      180.000000        7.812447         2    ;  uncertainty k = 0.315879
        35         9        10        36     9        0.000000       -0.476482         3    ;  uncertainty k = 0.316090
        35         9        10        36     9      180.000000        0.149753         4    ;  uncertainty k = 0.190255
        37        14        15        38     9        0.000000       -0.156459         1    ;  uncertainty k = 0.354101
        37        14        15        38     9      180.000000        7.863237         2    ;  uncertainty k = 0.315071
        37        14        15        38     9        0.000000       -0.450842         3    ;  uncertainty k = 0.303952
        37        14        15        38     9      180.000000        0.185726         4    ;  uncertainty k = 0.168830
        38        15        16        39     9        0.000000       -0.049616         1    ;  uncertainty k = 0.148336
        38        15        16        39     9      180.000000        7.798626         2    ;  uncertainty k = 0.386263
        38        15        16        39     9        0.000000       -0.413767         3    ;  uncertainty k = 0.291377
        38        15        16        39     9      180.000000        0.047026         4    ;  uncertainty k = 0.170119
        39        16        17        40     9        0.000000       -0.049615         1    ;  uncertainty k = 0.148337
        39        16        17        40     9      180.000000        7.798627         2    ;  uncertainty k = 0.386263
        39        16        17        40     9        0.000000       -0.413767         3    ;  uncertainty k = 0.291377
        39        16        17        40     9      180.000000        0.047026         4    ;  uncertainty k = 0.170119
        40        17        18        41     9        0.000000       -0.156460         1    ;  uncertainty k = 0.354102
        40        17        18        41     9      180.000000        7.863234         2    ;  uncertainty k = 0.315072
        40        17        18        41     9        0.000000       -0.450842         3    ;  uncertainty k = 0.303952
        40        17        18        41     9      180.000000        0.185726         4    ;  uncertainty k = 0.168830
        48        27        28        49     9        0.000000       -0.029061         1    ;  uncertainty k = 0.173165
        48        27        28        49     9      180.000000        7.711511         2    ;  uncertainty k = 0.401070
        48        27        28        49     9        0.000000       -0.445203         3    ;  uncertainty k = 0.226419
        48        27        28        49     9      180.000000        0.212589         4    ;  uncertainty k = 0.155596

[ dihedrals ] ; impropers
;       ai        aj        ak        al funct           phase               k        pn
         3         2         4        28     4      180.000000       20.193078         2    ;  uncertainty k = 0.061890
         3         4        28         2     4      180.000000       20.193078         2    ;  uncertainty k = 0.061890
         3        28         2         4     4      180.000000       20.193078         2    ;  uncertainty k = 0.061890
         4         3         5        32     4      180.000000        2.029933         2    ;  uncertainty k = 0.277645
         4         5        32         3     4      180.000000        2.029933         2    ;  uncertainty k = 0.277645
         4        32         3         5     4      180.000000        2.029933         2    ;  uncertainty k = 0.277645
         5         4         6        33     4      180.000000        4.072910         2    ;  uncertainty k = 0.034077
         5         6        33         4     4      180.000000        4.072910         2    ;  uncertainty k = 0.034077
         5        33         4         6     4      180.000000        4.072910         2    ;  uncertainty k = 0.034077
         6         5         7        27     4      180.000000       12.765365         2    ;  uncertainty k = 0.044205
         6         7        27         5     4      180.000000       12.765365         2    ;  uncertainty k = 0.044205
         6        27         5         7     4      180.000000       12.765365         2    ;  uncertainty k = 0.044205
         7         6         8        26     4      180.000000       15.733022         2    ;  uncertainty k = 0.059183
         7         8        26         6     4      180.000000       15.733022         2    ;  uncertainty k = 0.059183
         7        26         6         8     4      180.000000       15.733022         2    ;  uncertainty k = 0.059183
         8         7         9        34     4      180.000000        4.524271         2    ;  uncertainty k = 0.116367
         8         9        34         7     4      180.000000        4.524271         2    ;  uncertainty k = 0.116367
         8        34         7         9     4      180.000000        4.524271         2    ;  uncertainty k = 0.116367
         9         8        10        35     4      180.000000        4.097222         2    ;  uncertainty k = 0.151129
         9        10        35         8     4      180.000000        4.097222         2    ;  uncertainty k = 0.151129
         9        35         8        10     4      180.000000        4.097222         2    ;  uncertainty k = 0.151129
        10         9        11        36     4      180.000000        4.098999         2    ;  uncertainty k = 0.199476
        10        11        36         9     4      180.000000        4.098999         2    ;  uncertainty k = 0.199476
        10        36         9        11     4      180.000000        4.098999         2    ;  uncertainty k = 0.199476
        11        10        12        26     4      180.000000       10.165197         2    ;  uncertainty k = 0.227302
        11        12        26        10     4      180.000000       10.165197         2    ;  uncertainty k = 0.227302
        11        26        10        12     4      180.000000       10.165197         2    ;  uncertainty k = 0.227302
        13        12        14        18     4      180.000000        9.903188         2    ;  uncertainty k = 0.263109
        13        14        18        12     4      180.000000        9.903188         2    ;  uncertainty k = 0.263109
        13        18        12        14     4      180.000000        9.903188         2    ;  uncertainty k = 0.263109
        14        13        15        37     4      180.000000        4.262961         2    ;  uncertainty k = 0.194702
        14        15        37        13     4      180.000000        4.262961         2    ;  uncertainty k = 0.194702
        14        37        13        15     4      180.000000        4.262961         2    ;  uncertainty k = 0.194702
        15        14        16        38     4      180.000000        4.374957         2    ;  uncertainty k = 0.132607
        15        16        38        14     4      180.000000        4.374957         2    ;  uncertainty k = 0.132607
        15        38        14        16     4      180.000000        4.374957         2    ;  uncertainty k = 0.132607
        16        15        17        39     4      180.000000        4.945481         2    ;  uncertainty k = 0.161841
        16        17        39        15     4      180.000000        4.945481         2    ;  uncertainty k = 0.161841
        16        39        15        17     4      180.000000        4.945481         2    ;  uncertainty k = 0.161841
        17        16        18        40     4      180.000000        4.374956         2    ;  uncertainty k = 0.132609
        17        18        40        16     4      180.000000        4.374956         2    ;  uncertainty k = 0.132609
        17        40        16        18     4      180.000000        4.374956         2    ;  uncertainty k = 0.132609
        18        13        17        41     4      180.000000        4.262963         2    ;  uncertainty k = 0.194702
        18        17        41        13     4      180.000000        4.262963         2    ;  uncertainty k = 0.194702
        18        41        13        17     4      180.000000        4.262963         2    ;  uncertainty k = 0.194702
        20        19        21        22     4      180.000000       30.576089         2    ;  uncertainty k = 0.126950
        20        21        22        19     4      180.000000       30.576089         2    ;  uncertainty k = 0.126950
        20        22        19        21     4      180.000000       30.576089         2    ;  uncertainty k = 0.126950
        21        20        43        50     4      180.000000        0.162943         2    ;  uncertainty k = 0.364352
        21        43        50        20     4      180.000000        0.162943         2    ;  uncertainty k = 0.364352
        21        50        20        43     4      180.000000        0.162943         2    ;  uncertainty k = 0.364352
        22        20        23        24     4      180.000000        1.980025         2    ;  uncertainty k = 0.475021
        22        23        24        20     4      180.000000        1.980025         2    ;  uncertainty k = 0.475021
        22        24        20        23     4      180.000000        1.980025         2    ;  uncertainty k = 0.475021
        24        12        22        25     4      180.000000       49.868697         2    ;  uncertainty k = 0.032116
        24        22        25        12     4      180.000000       49.868697         2    ;  uncertainty k = 0.032116
        24        25        12        22     4      180.000000       49.868697         2    ;  uncertainty k = 0.032116
        26         7        11        47     4      180.000000        4.441349         2    ;  uncertainty k = 0.299464
        26        11        47         7     4      180.000000        4.441349         2    ;  uncertainty k = 0.299464
        26        47         7        11     4      180.000000        4.441349         2    ;  uncertainty k = 0.299464
        27         6        28        48     4      180.000000        4.072913         2    ;  uncertainty k = 0.034076
        27        28        48         6     4      180.000000        4.072913         2    ;  uncertainty k = 0.034076
        27        48         6        28     4      180.000000        4.072913         2    ;  uncertainty k = 0.034076
        28         3        27        49     4      180.000000        2.029933         2    ;  uncertainty k = 0.277644
        28        27        49         3     4      180.000000        2.029933         2    ;  uncertainty k = 0.277644
        28        49         3        27     4      180.000000        2.029933         2    ;  uncertainty k = 0.277644

[ pairs ]
;       ai        aj funct
         1         4     1
         1        28     1
         2         5     1
         2        27     1
         2        32     1
         2        49     1
         3         6     1
         3        29     1
         3        30     1
         3        31     1
         3        33     1
         3        48     1
         4         7     1
         4        27     1
         4        49     1
         5         8     1
         5        26     1
         5        28     1
         5        48     1
         6         9     1
         6        11     1
         6        32     1
         6        34     1
         6        47     1
         6        49     1
         7        10     1
         7        12     1
         7        28     1
         7        33     1
         7        35     1
         7        48     1
         8        11     1
         8        27     1
         8        36     1
         8        47     1
         9        12     1
         9        26     1
        10        13     1
        10        19     1
        10        24     1
        10        34     1
        10        47     1
        11        14     1
        11        18     1
        11        20     1
        11        22     1
        11        25     1
        11        35     1
        11        42     1
        12        15     1
        12        17     1
        12        21     1
        12        23     1
        12        36     1
        12        37     1
        12        41     1
        12        47     1
        13        16     1
        13        20     1
        13        22     1
        13        25     1
        13        26     1
        13        38     1
        13        40     1
        13        42     1
        14        17     1
        14        19     1
        14        24     1
        14        39     1
        14        41     1
        15        18     1
        15        40     1
        16        37     1
        16        41     1
        17        38     1
        18        19     1
        18        24     1
        18        37     1
        18        39     1
        19        23     1
        19        25     1
        19        26     1
        19        43     1
        19        50     1
        20        25     1
        20        44     1
        20        45     1
        20        46     1
        21        23     1
        21        24     1
        21        42     1
        22        42     1
        22        43     1
        22        50     1
        23        25     1
        24        26     1
        24        42     1
        24        44     1
        24        45     1
        24        46     1
        26        27     1
        26        34     1
        26        36     1
        27        33     1
        28        32     1
        32        33     1
        34        35     1
        35        36     1
        37        38     1
        38        39     1
        39        40     1
        40        41     1
        48        49     1
