; ITP file created by ByteFF-joint-25, 2026-02-18 03:15:40.760740

[ atomtypes ]
;name           bonded.type        at.num        mass        charge   ptype           sigma         epsilon
 c0bf                                   6      0.0000       0.00000       A     3.39778e-01     4.51009e-01    ;  uncertainty sigma = 0.000006, epsilon = 0.000505
 c1bf                                   6      0.0000       0.00000       A     3.39775e-01     4.50621e-01    ;  uncertainty sigma = 0.000005, epsilon = 0.000534
 o2bf                                   8      0.0000       0.00000       A     3.15635e-01     3.03828e-01    ;  uncertainty sigma = 0.000025, epsilon = 0.000389
 c3bf                                   6      0.0000       0.00000       A     3.31515e-01     4.13410e-01    ;  uncertainty sigma = 0.000005, epsilon = 0.000700
 c4bf                                   6      0.0000       0.00000       A     3.31514e-01     4.13323e-01    ;  uncertainty sigma = 0.000002, epsilon = 0.000728
 c5bf                                   6      0.0000       0.00000       A     3.31523e-01     4.13469e-01    ;  uncertainty sigma = 0.000003, epsilon = 0.000655
 c6bf                                   6      0.0000       0.00000       A     3.31516e-01     4.13257e-01    ;  uncertainty sigma = 0.000004, epsilon = 0.000621
 c7bf                                   6      0.0000       0.00000       A     3.31509e-01     4.13121e-01    ;  uncertainty sigma = 0.000008, epsilon = 0.000623
 c8bf                                   6      0.0000       0.00000       A     3.31498e-01     4.13514e-01    ;  uncertainty sigma = 0.000010, epsilon = 0.000522
 c9bf                                   6      0.0000       0.00000       A     3.31513e-01     4.13269e-01    ;  uncertainty sigma = 0.000005, epsilon = 0.000649
 c10bf                                  6      0.0000       0.00000       A     3.31522e-01     4.13312e-01    ;  uncertainty sigma = 0.000003, epsilon = 0.000635
 c11bf                                  6      0.0000       0.00000       A     3.31510e-01     4.13156e-01    ;  uncertainty sigma = 0.000002, epsilon = 0.000626
 c12bf                                  6      0.0000       0.00000       A     3.31582e-01     4.13992e-01    ;  uncertainty sigma = 0.000025, epsilon = 0.001348
 c13bf                                  6      0.0000       0.00000       A     3.39797e-01     4.51347e-01    ;  uncertainty sigma = 0.000040, epsilon = 0.003032
 c14bf                                  6      0.0000       0.00000       A     3.31581e-01     4.13815e-01    ;  uncertainty sigma = 0.000032, epsilon = 0.001364
 c15bf                                  6      0.0000       0.00000       A     3.31512e-01     4.13187e-01    ;  uncertainty sigma = 0.000002, epsilon = 0.000604
 c16bf                                  6      0.0000       0.00000       A     3.31520e-01     4.13286e-01    ;  uncertainty sigma = 0.000002, epsilon = 0.000576
 c17bf                                  6      0.0000       0.00000       A     3.31518e-01     4.13337e-01    ;  uncertainty sigma = 0.000003, epsilon = 0.000580
 c18bf                                  6      0.0000       0.00000       A     3.31520e-01     4.13286e-01    ;  uncertainty sigma = 0.000002, epsilon = 0.000576
 c19bf                                  6      0.0000       0.00000       A     3.31512e-01     4.13187e-01    ;  uncertainty sigma = 0.000002, epsilon = 0.000604
 n20bf                                  7      0.0000       0.00000       A     3.27488e-01     6.57271e-01    ;  uncertainty sigma = 0.000130, epsilon = 0.010556
 c21bf                                  6      0.0000       0.00000       A     3.31512e-01     4.12381e-01    ;  uncertainty sigma = 0.000058, epsilon = 0.001500
 n22bf                                  7      0.0000       0.00000       A     3.36544e-01     4.71564e-01    ;  uncertainty sigma = 0.000086, epsilon = 0.005524
 n23bf                                  7      0.0000       0.00000       A     3.18098e-01     6.83124e-01    ;  uncertainty sigma = 0.000073, epsilon = 0.006424
 c24bf                                  6      0.0000       0.00000       A     3.39732e-01     4.51256e-01    ;  uncertainty sigma = 0.000013, epsilon = 0.001265
 c25bf                                  6      0.0000       0.00000       A     3.31544e-01     4.14220e-01    ;  uncertainty sigma = 0.000018, epsilon = 0.000894
 o26bf                                  8      0.0000       0.00000       A     3.04823e-01     6.12187e-01    ;  uncertainty sigma = 0.000062, epsilon = 0.001949
 c27bf                                  6      0.0000       0.00000       A     3.31517e-01     4.13161e-01    ;  uncertainty sigma = 0.000019, epsilon = 0.001030
 c28bf                                  6      0.0000       0.00000       A     3.31525e-01     4.13228e-01    ;  uncertainty sigma = 0.000006, epsilon = 0.000990
 h29bf                                  1      0.0000       0.00000       A     2.60025e-01     8.66247e-02    ;  uncertainty sigma = 0.000011, epsilon = 0.000873
 h30bf                                  1      0.0000       0.00000       A     2.60025e-01     8.66247e-02    ;  uncertainty sigma = 0.000011, epsilon = 0.000873
 h31bf                                  1      0.0000       0.00000       A     2.60025e-01     8.66247e-02    ;  uncertainty sigma = 0.000011, epsilon = 0.000873
 h32bf                                  1      0.0000       0.00000       A     2.42221e-01     8.67883e-02    ;  uncertainty sigma = 0.000018, epsilon = 0.000402
 h33bf                                  1      0.0000       0.00000       A     2.42221e-01     8.67883e-02    ;  uncertainty sigma = 0.000018, epsilon = 0.000402
 h34bf                                  1      0.0000       0.00000       A     2.62564e-01     6.71213e-02    ;  uncertainty sigma = 0.000006, epsilon = 0.000469
 h35bf                                  1      0.0000       0.00000       A     2.62568e-01     6.69692e-02    ;  uncertainty sigma = 0.000011, epsilon = 0.000459
 h36bf                                  1      0.0000       0.00000       A     2.62562e-01     6.70409e-02    ;  uncertainty sigma = 0.000012, epsilon = 0.000506
 h37bf                                  1      0.0000       0.00000       A     2.62562e-01     6.70409e-02    ;  uncertainty sigma = 0.000012, epsilon = 0.000506
 h38bf                                  1      0.0000       0.00000       A     2.62564e-01     6.70136e-02    ;  uncertainty sigma = 0.000010, epsilon = 0.000418
 h39bf                                  1      0.0000       0.00000       A     2.62558e-01     6.70851e-02    ;  uncertainty sigma = 0.000008, epsilon = 0.000420
 h40bf                                  1      0.0000       0.00000       A     2.62558e-01     6.70851e-02    ;  uncertainty sigma = 0.000008, epsilon = 0.000420
 h41bf                                  1      0.0000       0.00000       A     2.62558e-01     6.70264e-02    ;  uncertainty sigma = 0.000011, epsilon = 0.000445
 h42bf                                  1      0.0000       0.00000       A     2.62552e-01     6.70647e-02    ;  uncertainty sigma = 0.000011, epsilon = 0.000453
 h43bf                                  1      0.0000       0.00000       A     2.62558e-01     6.70264e-02    ;  uncertainty sigma = 0.000011, epsilon = 0.000445
 h44bf                                  1      0.0000       0.00000       A     2.62558e-01     6.70851e-02    ;  uncertainty sigma = 0.000008, epsilon = 0.000420
 h45bf                                  1      0.0000       0.00000       A     1.10548e-01     4.04870e-02    ;  uncertainty sigma = 0.000082, epsilon = 0.001718
 h46bf                                  1      0.0000       0.00000       A     1.10696e-01     4.12785e-02    ;  uncertainty sigma = 0.000128, epsilon = 0.001560
 h47bf                                  1      0.0000       0.00000       A     2.42208e-01     8.66970e-02    ;  uncertainty sigma = 0.000028, epsilon = 0.000664
 h48bf                                  1      0.0000       0.00000       A     2.42208e-01     8.66970e-02    ;  uncertainty sigma = 0.000028, epsilon = 0.000664
 h49bf                                  1      0.0000       0.00000       A     2.42208e-01     8.66970e-02    ;  uncertainty sigma = 0.000028, epsilon = 0.000664
 h50bf                                  1      0.0000       0.00000       A     2.62550e-01     6.72378e-02    ;  uncertainty sigma = 0.000014, epsilon = 0.000655
 h51bf                                  1      0.0000       0.00000       A     2.62557e-01     6.71596e-02    ;  uncertainty sigma = 0.000013, epsilon = 0.000769
 h52bf                                  1      0.0000       0.00000       A     1.10696e-01     4.12785e-02    ;  uncertainty sigma = 0.000128, epsilon = 0.001560

[ moleculetype ]
;name             nrexcl
 MOL                   3

[ atoms ]
;       nr            type      resi   res      atom      cgnr      charge          mass ; qtot
         1            c0bf         1   UNL        c0         1    -0.11058       12.0110 ; qtot   -0.111
         2            c1bf         1   UNL        c1         2     0.13491       12.0110 ; qtot    0.024
         3            o2bf         1   UNL        o2         3    -0.33483       15.9990 ; qtot   -0.310
         4            c3bf         1   UNL        c3         4     0.13386       12.0110 ; qtot   -0.177
         5            c4bf         1   UNL        c4         5    -0.18340       12.0110 ; qtot   -0.360
         6            c5bf         1   UNL        c5         6    -0.09736       12.0110 ; qtot   -0.457
         7            c6bf         1   UNL        c6         7    -0.14098       12.0110 ; qtot   -0.598
         8            c7bf         1   UNL        c7         8    -0.01776       12.0110 ; qtot   -0.616
         9            c8bf         1   UNL        c8         9    -0.01220       12.0110 ; qtot   -0.628
        10            c9bf         1   UNL        c9        10    -0.09393       12.0110 ; qtot   -0.722
        11           c10bf         1   UNL       c10        11    -0.11062       12.0110 ; qtot   -0.833
        12           c11bf         1   UNL       c11        12    -0.09262       12.0110 ; qtot   -0.926
        13           c12bf         1   UNL       c12        13    -0.14026       12.0110 ; qtot   -1.066
        14           c13bf         1   UNL       c13        14     0.09098       12.0110 ; qtot   -0.975
        15           c14bf         1   UNL       c14        15    -0.15384       12.0110 ; qtot   -1.129
        16           c15bf         1   UNL       c15        16    -0.09654       12.0110 ; qtot   -1.225
        17           c16bf         1   UNL       c16        17    -0.11798       12.0110 ; qtot   -1.343
        18           c17bf         1   UNL       c17        18    -0.09151       12.0110 ; qtot   -1.435
        19           c18bf         1   UNL       c18        19    -0.11798       12.0110 ; qtot   -1.553
        20           c19bf         1   UNL       c19        20    -0.09654       12.0110 ; qtot   -1.649
        21           n20bf         1   UNL       n20        21    -0.38173       14.0070 ; qtot   -2.031
        22           c21bf         1   UNL       c21        22     0.46212       12.0110 ; qtot   -1.569
        23           n22bf         1   UNL       n22        23    -0.47751       14.0070 ; qtot   -2.046
        24           n23bf         1   UNL       n23        24    -0.41674       14.0070 ; qtot   -2.463
        25           c24bf         1   UNL       c24        25     0.07531       12.0110 ; qtot   -2.388
        26           c25bf         1   UNL       c25        26     0.70308       12.0110 ; qtot   -1.685
        27           o26bf         1   UNL       o26        27    -0.44106       15.9990 ; qtot   -2.126
        28           c27bf         1   UNL       c27        28    -0.08039       12.0110 ; qtot   -2.206
        29           c28bf         1   UNL       c28        29    -0.17256       12.0110 ; qtot   -2.379
        30           h29bf         1   UNL       h29        30     0.04551        1.0080 ; qtot   -2.333
        31           h30bf         1   UNL       h30        31     0.04551        1.0080 ; qtot   -2.288
        32           h31bf         1   UNL       h31        32     0.04551        1.0080 ; qtot   -2.242
        33           h32bf         1   UNL       h32        33     0.04108        1.0080 ; qtot   -2.201
        34           h33bf         1   UNL       h33        34     0.04108        1.0080 ; qtot   -2.160
        35           h34bf         1   UNL       h34        35     0.14333        1.0080 ; qtot   -2.017
        36           h35bf         1   UNL       h35        36     0.13625        1.0080 ; qtot   -1.880
        37           h36bf         1   UNL       h36        37     0.13777        1.0080 ; qtot   -1.743
        38           h37bf         1   UNL       h37        38     0.13653        1.0080 ; qtot   -1.606
        39           h38bf         1   UNL       h38        39     0.14845        1.0080 ; qtot   -1.458
        40           h39bf         1   UNL       h39        40     0.14740        1.0080 ; qtot   -1.310
        41           h40bf         1   UNL       h40        41     0.14519        1.0080 ; qtot   -1.165
        42           h41bf         1   UNL       h41        42     0.14717        1.0080 ; qtot   -1.018
        43           h42bf         1   UNL       h42        43     0.13386        1.0080 ; qtot   -0.884
        44           h43bf         1   UNL       h43        44     0.14717        1.0080 ; qtot   -0.737
        45           h44bf         1   UNL       h44        45     0.14519        1.0080 ; qtot   -0.592
        46           h45bf         1   UNL       h45        46     0.35440        1.0080 ; qtot   -0.237
        47           h46bf         1   UNL       h46        47     0.33582        1.0080 ; qtot    0.099
        48           h47bf         1   UNL       h47        48     0.09057        1.0080 ; qtot    0.189
        49           h48bf         1   UNL       h48        49     0.09057        1.0080 ; qtot    0.280
        50           h49bf         1   UNL       h49        50     0.09057        1.0080 ; qtot    0.370
        51           h50bf         1   UNL       h50        51     0.14913        1.0080 ; qtot    0.519
        52           h51bf         1   UNL       h51        52     0.14485        1.0080 ; qtot    0.664
        53           h52bf         1   UNL       h52        53     0.33575        1.0080 ; qtot    1.000

[ bonds ]
;       ai        aj funct               r               k
         1         2     1        0.152706   226504.379443    ;  uncertainty r = 0.000068, k = 3.207480
         1        30     1        0.109577   311430.309473    ;  uncertainty r = 0.000012, k = 1.777147
         1        31     1        0.109577   311430.309473    ;  uncertainty r = 0.000012, k = 1.777147
         1        32     1        0.109577   311430.309473    ;  uncertainty r = 0.000012, k = 1.777147
         2         3     1        0.142661   238607.922266    ;  uncertainty r = 0.000040, k = 6.227793
         2        33     1        0.109755   308092.992334    ;  uncertainty r = 0.000025, k = 1.499827
         2        34     1        0.109755   308092.992334    ;  uncertainty r = 0.000025, k = 1.499827
         3         4     1        0.136542   321627.404932    ;  uncertainty r = 0.000059, k = 4.232969
         4         5     1        0.139846   361248.000293    ;  uncertainty r = 0.000028, k = 3.399379
         4        29     1        0.139731   355549.700781    ;  uncertainty r = 0.000025, k = 1.537090
         5         6     1        0.139429   371344.785986    ;  uncertainty r = 0.000044, k = 1.678018
         5        35     1        0.108812   337580.437158    ;  uncertainty r = 0.000019, k = 0.669353
         6         7     1        0.139445   367003.119873    ;  uncertainty r = 0.000017, k = 2.199947
         6        36     1        0.108774   332532.516748    ;  uncertainty r = 0.000015, k = 1.362351
         7         8     1        0.140182   346956.080420    ;  uncertainty r = 0.000052, k = 1.061087
         7        37     1        0.108807   335035.587598    ;  uncertainty r = 0.000028, k = 1.254465
         8         9     1        0.147853   272095.091309    ;  uncertainty r = 0.000043, k = 4.828886
         8        29     1        0.139988   347628.012842    ;  uncertainty r = 0.000036, k = 4.134888
         9        10     1        0.140114   347374.965625    ;  uncertainty r = 0.000008, k = 1.031010
         9        28     1        0.139833   338979.998437    ;  uncertainty r = 0.000045, k = 2.643004
        10        11     1        0.139322   371310.132129    ;  uncertainty r = 0.000027, k = 2.710990
        10        38     1        0.108820   334865.306152    ;  uncertainty r = 0.000023, k = 0.943338
        11        12     1        0.139488   369019.402344    ;  uncertainty r = 0.000030, k = 1.373568
        11        39     1        0.108768   333105.365186    ;  uncertainty r = 0.000026, k = 1.115182
        12        13     1        0.139695   350457.473486    ;  uncertainty r = 0.000039, k = 5.364875
        12        40     1        0.108776   332840.519824    ;  uncertainty r = 0.000030, k = 2.464989
        13        14     1        0.150929   204061.282397    ;  uncertainty r = 0.000155, k = 19.693892
        13        28     1        0.139500   344072.225732    ;  uncertainty r = 0.000079, k = 6.005871
        14        15     1        0.150975   204394.043701    ;  uncertainty r = 0.000149, k = 20.066156
        14        21     1        0.150101   230544.733203    ;  uncertainty r = 0.000269, k = 76.803605
        14        26     1        0.153936   175864.061719    ;  uncertainty r = 0.000150, k = 17.945409
        15        16     1        0.139869   349456.955078    ;  uncertainty r = 0.000058, k = 6.929867
        15        20     1        0.139869   349456.955078    ;  uncertainty r = 0.000058, k = 6.929867
        16        17     1        0.139524   365940.393066    ;  uncertainty r = 0.000032, k = 1.462857
        16        41     1        0.108797   332693.298389    ;  uncertainty r = 0.000026, k = 2.526502
        17        18     1        0.139549   373468.937207    ;  uncertainty r = 0.000012, k = 2.413551
        17        42     1        0.108791   333723.950586    ;  uncertainty r = 0.000024, k = 1.087653
        18        19     1        0.139549   373468.937207    ;  uncertainty r = 0.000012, k = 2.413551
        18        43     1        0.108841   334503.956055    ;  uncertainty r = 0.000012, k = 0.652759
        19        20     1        0.139524   365940.393066    ;  uncertainty r = 0.000032, k = 1.462857
        19        44     1        0.108791   333723.950586    ;  uncertainty r = 0.000024, k = 1.087653
        20        45     1        0.108797   332693.298389    ;  uncertainty r = 0.000026, k = 2.526502
        21        22     1        0.133641   523376.825586    ;  uncertainty r = 0.000100, k = 44.741053
        21        46     1        0.101501   429624.683203    ;  uncertainty r = 0.000023, k = 4.106222
        22        23     1        0.132957   308233.574121    ;  uncertainty r = 0.000232, k = 39.227363
        22        24     1        0.135483   280628.367480    ;  uncertainty r = 0.000172, k = 43.937772
        23        47     1        0.101396   420869.540625    ;  uncertainty r = 0.000073, k = 12.258240
        23        53     1        0.101396   420869.540625    ;  uncertainty r = 0.000073, k = 12.258240
        24        25     1        0.146681   260602.881348    ;  uncertainty r = 0.000143, k = 13.029331
        24        26     1        0.142617   296977.454736    ;  uncertainty r = 0.000342, k = 74.592880
        25        48     1        0.109174   309405.446533    ;  uncertainty r = 0.000045, k = 3.044472
        25        49     1        0.109174   309405.446533    ;  uncertainty r = 0.000045, k = 3.044472
        25        50     1        0.109174   309405.446533    ;  uncertainty r = 0.000045, k = 3.044472
        26        27     1        0.119980   628990.240234    ;  uncertainty r = 0.000232, k = 12.942166
        28        51     1        0.108815   333309.968506    ;  uncertainty r = 0.000020, k = 2.085839
        29        52     1        0.108840   338290.215576    ;  uncertainty r = 0.000039, k = 1.560564

[ angles ]
;       ai        aj        ak funct           theta             cth
         1         2         3     1      109.704025      621.044943    ;  uncertainty theta = 0.001324, k = 0.050066
         1         2        33     1      110.306641      422.775720    ;  uncertainty theta = 0.000943, k = 0.036373
         1         2        34     1      110.306641      422.775720    ;  uncertainty theta = 0.000943, k = 0.036373
         2         1        30     1      107.971848      408.611147    ;  uncertainty theta = 0.001336, k = 0.023627
         2         1        31     1      107.971848      408.611147    ;  uncertainty theta = 0.001336, k = 0.023627
         2         1        32     1      107.971848      408.611147    ;  uncertainty theta = 0.001336, k = 0.023627
         2         3         4     1      109.990089      509.909231    ;  uncertainty theta = 0.001146, k = 0.020280
         3         2        33     1      106.721603      429.117925    ;  uncertainty theta = 0.000615, k = 0.026659
         3         2        34     1      106.721603      429.117925    ;  uncertainty theta = 0.000615, k = 0.026659
         3         4         5     1      120.106461      427.015614    ;  uncertainty theta = 0.004533, k = 0.060625
         3         4        29     1      119.312904      427.693433    ;  uncertainty theta = 0.003934, k = 0.071681
         4         5         6     1      118.134560      528.755745    ;  uncertainty theta = 0.002709, k = 0.052197
         4         5        35     1      119.844765      271.379446    ;  uncertainty theta = 0.002012, k = 0.039180
         4        29         8     1      120.485916      524.951642    ;  uncertainty theta = 0.002342, k = 0.080070
         4        29        52     1      119.570312      275.633098    ;  uncertainty theta = 0.002192, k = 0.019491
         5         4        29     1      121.398537      372.766877    ;  uncertainty theta = 0.004447, k = 0.060255
         5         6         7     1      121.131371      510.155760    ;  uncertainty theta = 0.001837, k = 0.060195
         5         6        36     1      119.920578      281.596077    ;  uncertainty theta = 0.000535, k = 0.046057
         6         5        35     1      121.205368      287.665514    ;  uncertainty theta = 0.001724, k = 0.028971
         6         7         8     1      119.908676      530.194634    ;  uncertainty theta = 0.001800, k = 0.056604
         6         7        37     1      120.448502      294.571131    ;  uncertainty theta = 0.001342, k = 0.043687
         7         6        36     1      120.221046      281.660175    ;  uncertainty theta = 0.000884, k = 0.029522
         7         8         9     1      120.377625      409.627301    ;  uncertainty theta = 0.002338, k = 0.090894
         7         8        29     1      120.696518      404.608078    ;  uncertainty theta = 0.002276, k = 0.182191
         8         7        37     1      119.313675      278.727940    ;  uncertainty theta = 0.001375, k = 0.041341
         8         9        10     1      121.181236      408.976200    ;  uncertainty theta = 0.001456, k = 0.099795
         8         9        28     1      119.984451      413.168915    ;  uncertainty theta = 0.003157, k = 0.185630
         8        29        52     1      119.843216      274.413446    ;  uncertainty theta = 0.000662, k = 0.093116
         9         8        29     1      119.630409      407.141135    ;  uncertainty theta = 0.002296, k = 0.058919
         9        10        11     1      119.850487      535.103983    ;  uncertainty theta = 0.002371, k = 0.063869
         9        10        38     1      119.012794      278.104963    ;  uncertainty theta = 0.000660, k = 0.104917
         9        28        13     1      122.234482      512.573294    ;  uncertainty theta = 0.002700, k = 0.170526
         9        28        51     1      118.923233      282.642364    ;  uncertainty theta = 0.002318, k = 0.096130
        10         9        28     1      119.911903      403.956211    ;  uncertainty theta = 0.004429, k = 0.212770
        10        11        12     1      120.296432      509.064846    ;  uncertainty theta = 0.002468, k = 0.077953
        10        11        39     1      120.395386      284.232943    ;  uncertainty theta = 0.000987, k = 0.052321
        11        10        38     1      120.219772      294.473835    ;  uncertainty theta = 0.001120, k = 0.016578
        11        12        13     1      120.116592      513.097890    ;  uncertainty theta = 0.003985, k = 0.048111
        11        12        40     1      120.331825      300.364767    ;  uncertainty theta = 0.002789, k = 0.028913
        12        11        39     1      119.787987      281.762579    ;  uncertainty theta = 0.002427, k = 0.048475
        12        13        14     1      117.188919      371.073767    ;  uncertainty theta = 0.007117, k = 0.190096
        12        13        28     1      123.441650      432.172833    ;  uncertainty theta = 0.006615, k = 0.179242
        13        12        40     1      118.579468      273.249879    ;  uncertainty theta = 0.004177, k = 0.069831
        13        14        15     1      113.186264      513.960693    ;  uncertainty theta = 0.011306, k = 0.359026
        13        14        21     1      110.363304      633.704774    ;  uncertainty theta = 0.005332, k = 0.196341
        13        14        26     1      109.087914      489.507379    ;  uncertainty theta = 0.008967, k = 0.155641
        13        28        51     1      118.206032      273.517061    ;  uncertainty theta = 0.004015, k = 0.065303
        14        13        28     1      116.625099      373.129792    ;  uncertainty theta = 0.006544, k = 0.114483
        14        15        16     1      117.074219      374.316469    ;  uncertainty theta = 0.007313, k = 0.169097
        14        15        20     1      117.074219      374.316469    ;  uncertainty theta = 0.007313, k = 0.169097
        14        21        22     1      111.750687      594.280584    ;  uncertainty theta = 0.019275, k = 0.459975
        14        21        46     1      117.291641      301.371153    ;  uncertainty theta = 0.006714, k = 0.480634
        14        26        24     1      109.961769      476.265111    ;  uncertainty theta = 0.006613, k = 0.652506
        14        26        27     1      125.519859      411.082565    ;  uncertainty theta = 0.008567, k = 0.131741
        15        14        21     1      110.460434      632.624809    ;  uncertainty theta = 0.005178, k = 0.185747
        15        14        26     1      109.141335      488.728178    ;  uncertainty theta = 0.009732, k = 0.152364
        15        16        17     1      121.038902      513.256220    ;  uncertainty theta = 0.003562, k = 0.078827
        15        16        41     1      118.396095      273.185271    ;  uncertainty theta = 0.004089, k = 0.068593
        15        20        19     1      121.038902      513.256220    ;  uncertainty theta = 0.003562, k = 0.078827
        15        20        45     1      118.396095      273.185271    ;  uncertainty theta = 0.004089, k = 0.068593
        16        15        20     1      123.006119      449.964953    ;  uncertainty theta = 0.007050, k = 0.147705
        16        17        18     1      119.486618      517.107663    ;  uncertainty theta = 0.001936, k = 0.033500
        16        17        42     1      119.692894      282.691555    ;  uncertainty theta = 0.002820, k = 0.049810
        17        16        41     1      120.085548      298.145624    ;  uncertainty theta = 0.002287, k = 0.040414
        17        18        19     1      118.018600      533.452020    ;  uncertainty theta = 0.001323, k = 0.059913
        17        18        43     1      120.465477      288.877473    ;  uncertainty theta = 0.001797, k = 0.017289
        18        17        42     1      120.779465      288.986261    ;  uncertainty theta = 0.001247, k = 0.025032
        18        19        20     1      119.486618      517.107663    ;  uncertainty theta = 0.001936, k = 0.033500
        18        19        44     1      120.779465      288.986261    ;  uncertainty theta = 0.001247, k = 0.025032
        19        18        43     1      120.465477      288.877473    ;  uncertainty theta = 0.001797, k = 0.017289
        19        20        45     1      120.085548      298.145592    ;  uncertainty theta = 0.002287, k = 0.040414
        20        19        44     1      119.692894      282.691555    ;  uncertainty theta = 0.002820, k = 0.049810
        21        14        26     1      102.870018      925.017114    ;  uncertainty theta = 0.007229, k = 0.531228
        21        22        23     1      128.556000      642.790686    ;  uncertainty theta = 0.009936, k = 0.330368
        21        22        24     1      113.193924      702.703298    ;  uncertainty theta = 0.009502, k = 0.274175
        22        21        46     1      119.382568      353.668471    ;  uncertainty theta = 0.010145, k = 0.152610
        22        23        47     1      114.821800      368.001142    ;  uncertainty theta = 0.004224, k = 0.186891
        22        23        53     1      114.821800      368.001142    ;  uncertainty theta = 0.004224, k = 0.186891
        22        24        25     1      118.639038      373.068566    ;  uncertainty theta = 0.007053, k = 0.430286
        22        24        26     1      110.408546      711.107752    ;  uncertainty theta = 0.009881, k = 0.266784
        23        22        24     1      125.899826      536.269401    ;  uncertainty theta = 0.010551, k = 0.299625
        24        25        48     1      107.362183      470.622878    ;  uncertainty theta = 0.002476, k = 0.220754
        24        25        49     1      107.362183      470.622878    ;  uncertainty theta = 0.002476, k = 0.220754
        24        25        50     1      107.362183      470.622878    ;  uncertainty theta = 0.002476, k = 0.220754
        24        26        27     1      125.508827      649.701794    ;  uncertainty theta = 0.010573, k = 0.151492
        25        24        26     1      119.076614      400.263960    ;  uncertainty theta = 0.008080, k = 0.316068
        30         1        31     1      105.427467      313.948307    ;  uncertainty theta = 0.002179, k = 0.009445
        30         1        32     1      105.427467      313.948307    ;  uncertainty theta = 0.002179, k = 0.009445
        31         1        32     1      105.427467      313.948307    ;  uncertainty theta = 0.002179, k = 0.009445
        33         2        34     1      107.213829      327.658000    ;  uncertainty theta = 0.001340, k = 0.028832
        47        23        53     1      112.418320      264.652907    ;  uncertainty theta = 0.015777, k = 0.354182
        48        25        49     1      107.627052      325.730937    ;  uncertainty theta = 0.003369, k = 0.100967
        48        25        50     1      107.627052      325.730937    ;  uncertainty theta = 0.003369, k = 0.100967
        49        25        50     1      107.627052      325.730937    ;  uncertainty theta = 0.003369, k = 0.100967

[ dihedrals ] ; propers for gromacs 4.5 or higher, use funct 9
;       ai        aj        ak        al funct           phase               k        pn
         1         2         3         4     9        0.000000       -1.229944         1    ;  uncertainty k = 0.401046
         1         2         3         4     9      180.000000        0.184932         2    ;  uncertainty k = 0.092142
         1         2         3         4     9        0.000000        0.823579         3    ;  uncertainty k = 0.100905
         1         2         3         4     9      180.000000        0.418844         4    ;  uncertainty k = 0.076911
         2         3         4         5     9        0.000000        0.964813         1    ;  uncertainty k = 0.468017
         2         3         4         5     9      180.000000        7.187337         2    ;  uncertainty k = 0.056488
         2         3         4         5     9        0.000000        0.710195         3    ;  uncertainty k = 0.108791
         2         3         4         5     9      180.000000        0.182269         4    ;  uncertainty k = 0.039627
         2         3         4        29     9        0.000000        0.120361         1    ;  uncertainty k = 0.520473
         2         3         4        29     9      180.000000        7.098356         2    ;  uncertainty k = 0.058574
         2         3         4        29     9        0.000000        0.600758         3    ;  uncertainty k = 0.160480
         2         3         4        29     9      180.000000        0.193801         4    ;  uncertainty k = 0.086724
         3         2         1        30     9        0.000000       -0.722080         1    ;  uncertainty k = 0.326872
         3         2         1        30     9      180.000000       -2.507400         2    ;  uncertainty k = 0.320901
         3         2         1        30     9        0.000000        1.589030         3    ;  uncertainty k = 0.092377
         3         2         1        30     9      180.000000       -0.215694         4    ;  uncertainty k = 0.105214
         3         2         1        31     9        0.000000       -0.722080         1    ;  uncertainty k = 0.326872
         3         2         1        31     9      180.000000       -2.507400         2    ;  uncertainty k = 0.320901
         3         2         1        31     9        0.000000        1.589030         3    ;  uncertainty k = 0.092377
         3         2         1        31     9      180.000000       -0.215694         4    ;  uncertainty k = 0.105214
         3         2         1        32     9        0.000000       -0.722080         1    ;  uncertainty k = 0.326872
         3         2         1        32     9      180.000000       -2.507400         2    ;  uncertainty k = 0.320901
         3         2         1        32     9        0.000000        1.589030         3    ;  uncertainty k = 0.092377
         3         2         1        32     9      180.000000       -0.215694         4    ;  uncertainty k = 0.105214
         3         4         5         6     9        0.000000        0.055243         1    ;  uncertainty k = 0.319297
         3         4         5         6     9      180.000000       10.768787         2    ;  uncertainty k = 0.488998
         3         4         5         6     9        0.000000        1.138688         3    ;  uncertainty k = 0.230187
         3         4         5         6     9      180.000000        1.602035         4    ;  uncertainty k = 0.129257
         3         4         5        35     9        0.000000       -0.198900         1    ;  uncertainty k = 0.212571
         3         4         5        35     9      180.000000        8.358020         2    ;  uncertainty k = 0.278881
         3         4         5        35     9        0.000000        0.702337         3    ;  uncertainty k = 0.112970
         3         4         5        35     9      180.000000        1.026077         4    ;  uncertainty k = 0.188343
         3         4        29         8     9        0.000000        0.067934         1    ;  uncertainty k = 0.354056
         3         4        29         8     9      180.000000       11.196993         2    ;  uncertainty k = 0.410224
         3         4        29         8     9        0.000000        1.018074         3    ;  uncertainty k = 0.230904
         3         4        29         8     9      180.000000        1.538693         4    ;  uncertainty k = 0.119240
         3         4        29        52     9        0.000000       -0.192929         1    ;  uncertainty k = 0.272441
         3         4        29        52     9      180.000000        8.440518         2    ;  uncertainty k = 0.194295
         3         4        29        52     9        0.000000        0.685603         3    ;  uncertainty k = 0.111488
         3         4        29        52     9      180.000000        1.123707         4    ;  uncertainty k = 0.163097
         4         3         2        33     9        0.000000        0.587045         1    ;  uncertainty k = 0.346154
         4         3         2        33     9      180.000000       -1.246364         2    ;  uncertainty k = 0.206782
         4         3         2        33     9        0.000000        0.588829         3    ;  uncertainty k = 0.036661
         4         3         2        33     9      180.000000        0.274213         4    ;  uncertainty k = 0.064678
         4         3         2        34     9        0.000000        0.587045         1    ;  uncertainty k = 0.346154
         4         3         2        34     9      180.000000       -1.246364         2    ;  uncertainty k = 0.206782
         4         3         2        34     9        0.000000        0.588829         3    ;  uncertainty k = 0.036661
         4         3         2        34     9      180.000000        0.274213         4    ;  uncertainty k = 0.064678
         4         5         6         7     9        0.000000       -0.157525         1    ;  uncertainty k = 0.204259
         4         5         6         7     9      180.000000       14.307384         2    ;  uncertainty k = 0.298169
         4         5         6         7     9        0.000000       -0.921845         3    ;  uncertainty k = 0.458389
         4         5         6         7     9      180.000000        0.762197         4    ;  uncertainty k = 0.217172
         4         5         6        36     9        0.000000        0.014166         1    ;  uncertainty k = 0.151612
         4         5         6        36     9      180.000000        7.800451         2    ;  uncertainty k = 0.351252
         4         5         6        36     9        0.000000        1.304360         3    ;  uncertainty k = 0.268872
         4         5         6        36     9      180.000000        1.738269         4    ;  uncertainty k = 0.124623
         4        29         8         7     9        0.000000       -0.026522         1    ;  uncertainty k = 0.181889
         4        29         8         7     9      180.000000       11.185774         2    ;  uncertainty k = 0.347735
         4        29         8         7     9        0.000000       -0.177146         3    ;  uncertainty k = 0.211344
         4        29         8         7     9      180.000000        0.985722         4    ;  uncertainty k = 0.251805
         4        29         8         9     9        0.000000        0.032236         1    ;  uncertainty k = 0.199215
         4        29         8         9     9      180.000000        8.889379         2    ;  uncertainty k = 0.640002
         4        29         8         9     9        0.000000        1.238115         3    ;  uncertainty k = 0.355606
         4        29         8         9     9      180.000000        1.671814         4    ;  uncertainty k = 0.170979
         5         4        29         8     9        0.000000        0.034781         1    ;  uncertainty k = 0.412688
         5         4        29         8     9      180.000000        9.341428         2    ;  uncertainty k = 0.492657
         5         4        29         8     9        0.000000        0.140123         3    ;  uncertainty k = 0.298072
         5         4        29         8     9      180.000000        1.189749         4    ;  uncertainty k = 0.329542
         5         4        29        52     9        0.000000        0.230945         1    ;  uncertainty k = 0.343637
         5         4        29        52     9      180.000000        6.199157         2    ;  uncertainty k = 0.481611
         5         4        29        52     9        0.000000        1.459840         3    ;  uncertainty k = 0.317711
         5         4        29        52     9      180.000000        1.645561         4    ;  uncertainty k = 0.114915
         5         6         7         8     9        0.000000       -0.038932         1    ;  uncertainty k = 0.297840
         5         6         7         8     9      180.000000       14.350044         2    ;  uncertainty k = 0.233240
         5         6         7         8     9        0.000000       -0.973649         3    ;  uncertainty k = 0.494276
         5         6         7         8     9      180.000000        0.682850         4    ;  uncertainty k = 0.234091
         5         6         7        37     9        0.000000        0.135455         1    ;  uncertainty k = 0.120282
         5         6         7        37     9      180.000000        7.897110         2    ;  uncertainty k = 0.305647
         5         6         7        37     9        0.000000        1.453629         3    ;  uncertainty k = 0.265570
         5         6         7        37     9      180.000000        1.869159         4    ;  uncertainty k = 0.170670
         6         5         4        29     9        0.000000       -0.053512         1    ;  uncertainty k = 0.107219
         6         5         4        29     9      180.000000        9.415706         2    ;  uncertainty k = 0.556605
         6         5         4        29     9        0.000000        0.000257         3    ;  uncertainty k = 0.382596
         6         5         4        29     9      180.000000        1.169949         4    ;  uncertainty k = 0.340275
         6         7         8         9     9        0.000000       -0.016292         1    ;  uncertainty k = 0.212737
         6         7         8         9     9      180.000000        8.807632         2    ;  uncertainty k = 0.658440
         6         7         8         9     9        0.000000        1.183101         3    ;  uncertainty k = 0.419211
         6         7         8         9     9      180.000000        1.753850         4    ;  uncertainty k = 0.163046
         6         7         8        29     9        0.000000       -0.062151         1    ;  uncertainty k = 0.029622
         6         7         8        29     9      180.000000       11.814614         2    ;  uncertainty k = 0.296190
         6         7         8        29     9        0.000000       -0.507420         3    ;  uncertainty k = 0.376719
         6         7         8        29     9      180.000000        0.817750         4    ;  uncertainty k = 0.305161
         7         6         5        35     9        0.000000        0.162381         1    ;  uncertainty k = 0.105706
         7         6         5        35     9      180.000000        7.619163         2    ;  uncertainty k = 0.330777
         7         6         5        35     9        0.000000        1.544000         3    ;  uncertainty k = 0.256448
         7         6         5        35     9      180.000000        1.840615         4    ;  uncertainty k = 0.128607
         7         8         9        10     9        0.000000       -0.404291         1    ;  uncertainty k = 0.450124
         7         8         9        10     9      180.000000        3.937264         2    ;  uncertainty k = 0.125222
         7         8         9        10     9        0.000000        0.298222         3    ;  uncertainty k = 0.115519
         7         8         9        10     9      180.000000       -0.090187         4    ;  uncertainty k = 0.050314
         7         8         9        28     9        0.000000       -0.206273         1    ;  uncertainty k = 0.479487
         7         8         9        28     9      180.000000        4.201016         2    ;  uncertainty k = 0.160747
         7         8         9        28     9        0.000000        0.282992         3    ;  uncertainty k = 0.144148
         7         8         9        28     9      180.000000       -0.017253         4    ;  uncertainty k = 0.045392
         7         8        29        52     9        0.000000        0.252467         1    ;  uncertainty k = 0.190908
         7         8        29        52     9      180.000000        7.025262         2    ;  uncertainty k = 0.491634
         7         8        29        52     9        0.000000        1.528051         3    ;  uncertainty k = 0.234416
         7         8        29        52     9      180.000000        1.647778         4    ;  uncertainty k = 0.172029
         8         7         6        36     9        0.000000       -0.008353         1    ;  uncertainty k = 0.233094
         8         7         6        36     9      180.000000        7.618126         2    ;  uncertainty k = 0.315950
         8         7         6        36     9        0.000000        1.338012         3    ;  uncertainty k = 0.249647
         8         7         6        36     9      180.000000        1.810080         4    ;  uncertainty k = 0.187737
         8         9        10        11     9        0.000000        0.050182         1    ;  uncertainty k = 0.260312
         8         9        10        11     9      180.000000        8.962687         2    ;  uncertainty k = 0.550007
         8         9        10        11     9        0.000000        1.192940         3    ;  uncertainty k = 0.417892
         8         9        10        11     9      180.000000        1.745451         4    ;  uncertainty k = 0.163579
         8         9        10        38     9        0.000000       -0.119451         1    ;  uncertainty k = 0.279482
         8         9        10        38     9      180.000000        7.131418         2    ;  uncertainty k = 0.476830
         8         9        10        38     9        0.000000        0.827486         3    ;  uncertainty k = 0.129504
         8         9        10        38     9      180.000000        1.199374         4    ;  uncertainty k = 0.180144
         8         9        28        13     9        0.000000        0.326398         1    ;  uncertainty k = 0.129859
         8         9        28        13     9      180.000000        8.467194         2    ;  uncertainty k = 0.448287
         8         9        28        13     9        0.000000        1.300681         3    ;  uncertainty k = 0.405370
         8         9        28        13     9      180.000000        1.748548         4    ;  uncertainty k = 0.121405
         8         9        28        51     9        0.000000       -0.063028         1    ;  uncertainty k = 0.172637
         8         9        28        51     9      180.000000        7.336205         2    ;  uncertainty k = 0.277959
         8         9        28        51     9        0.000000        0.876061         3    ;  uncertainty k = 0.177665
         8         9        28        51     9      180.000000        1.302935         4    ;  uncertainty k = 0.182988
         9         8         7        37     9        0.000000       -0.244010         1    ;  uncertainty k = 0.343556
         9         8         7        37     9      180.000000        7.000679         2    ;  uncertainty k = 0.471822
         9         8         7        37     9        0.000000        0.838030         3    ;  uncertainty k = 0.145363
         9         8         7        37     9      180.000000        1.162635         4    ;  uncertainty k = 0.202012
         9         8        29        52     9        0.000000       -0.263642         1    ;  uncertainty k = 0.341275
         9         8        29        52     9      180.000000        7.169293         2    ;  uncertainty k = 0.416775
         9         8        29        52     9        0.000000        0.802036         3    ;  uncertainty k = 0.167667
         9         8        29        52     9      180.000000        1.130048         4    ;  uncertainty k = 0.219799
         9        10        11        12     9        0.000000       -0.066332         1    ;  uncertainty k = 0.255135
         9        10        11        12     9      180.000000       13.955498         2    ;  uncertainty k = 0.247278
         9        10        11        12     9        0.000000       -0.845522         3    ;  uncertainty k = 0.464988
         9        10        11        12     9      180.000000        0.719519         4    ;  uncertainty k = 0.212760
         9        10        11        39     9        0.000000        0.003951         1    ;  uncertainty k = 0.160671
         9        10        11        39     9      180.000000        7.674158         2    ;  uncertainty k = 0.354074
         9        10        11        39     9        0.000000        1.345038         3    ;  uncertainty k = 0.215193
         9        10        11        39     9      180.000000        1.833317         4    ;  uncertainty k = 0.194935
         9        28        13        12     9        0.000000       -0.337544         1    ;  uncertainty k = 0.430248
         9        28        13        12     9      180.000000       11.634254         2    ;  uncertainty k = 0.152112
         9        28        13        12     9        0.000000       -0.280687         3    ;  uncertainty k = 0.249627
         9        28        13        12     9      180.000000        0.949909         4    ;  uncertainty k = 0.210654
         9        28        13        14     9        0.000000        0.037450         1    ;  uncertainty k = 0.242531
         9        28        13        14     9      180.000000        8.463148         2    ;  uncertainty k = 0.391120
         9        28        13        14     9        0.000000        1.325048         3    ;  uncertainty k = 0.280368
         9        28        13        14     9      180.000000        1.855737         4    ;  uncertainty k = 0.131698
        10         9         8        29     9        0.000000       -0.337089         1    ;  uncertainty k = 0.436632
        10         9         8        29     9      180.000000        3.932305         2    ;  uncertainty k = 0.130022
        10         9         8        29     9        0.000000        0.279216         3    ;  uncertainty k = 0.147316
        10         9         8        29     9      180.000000       -0.050466         4    ;  uncertainty k = 0.052188
        10         9        28        13     9        0.000000        0.155027         1    ;  uncertainty k = 0.388124
        10         9        28        13     9      180.000000        9.777156         2    ;  uncertainty k = 0.523032
        10         9        28        13     9        0.000000       -0.102404         3    ;  uncertainty k = 0.293946
        10         9        28        13     9      180.000000        1.114951         4    ;  uncertainty k = 0.316253
        10         9        28        51     9        0.000000        0.123898         1    ;  uncertainty k = 0.171770
        10         9        28        51     9      180.000000        7.216027         2    ;  uncertainty k = 0.676592
        10         9        28        51     9        0.000000        1.428331         3    ;  uncertainty k = 0.118242
        10         9        28        51     9      180.000000        1.633759         4    ;  uncertainty k = 0.236138
        10        11        12        13     9        0.000000       -0.029526         1    ;  uncertainty k = 0.250140
        10        11        12        13     9      180.000000       13.134307         2    ;  uncertainty k = 0.324248
        10        11        12        13     9        0.000000       -0.888436         3    ;  uncertainty k = 0.557313
        10        11        12        13     9      180.000000        0.769130         4    ;  uncertainty k = 0.220931
        10        11        12        40     9        0.000000        0.042125         1    ;  uncertainty k = 0.086626
        10        11        12        40     9      180.000000        7.775274         2    ;  uncertainty k = 0.386825
        10        11        12        40     9        0.000000        1.362284         3    ;  uncertainty k = 0.234682
        10        11        12        40     9      180.000000        1.811590         4    ;  uncertainty k = 0.098599
        11        10         9        28     9        0.000000        0.149457         1    ;  uncertainty k = 0.231507
        11        10         9        28     9      180.000000       11.013562         2    ;  uncertainty k = 0.233482
        11        10         9        28     9        0.000000       -0.426697         3    ;  uncertainty k = 0.361270
        11        10         9        28     9      180.000000        0.964013         4    ;  uncertainty k = 0.294008
        11        12        13        14     9        0.000000        0.040984         1    ;  uncertainty k = 0.352621
        11        12        13        14     9      180.000000        8.805888         2    ;  uncertainty k = 0.399520
        11        12        13        14     9        0.000000        1.443687         3    ;  uncertainty k = 0.363116
        11        12        13        14     9      180.000000        1.863793         4    ;  uncertainty k = 0.164462
        11        12        13        28     9        0.000000       -0.274328         1    ;  uncertainty k = 0.291999
        11        12        13        28     9      180.000000       11.987497         2    ;  uncertainty k = 0.351789
        11        12        13        28     9        0.000000       -0.626495         3    ;  uncertainty k = 0.182581
        11        12        13        28     9      180.000000        0.822246         4    ;  uncertainty k = 0.279200
        12        11        10        38     9        0.000000        0.032972         1    ;  uncertainty k = 0.105436
        12        11        10        38     9      180.000000        7.678407         2    ;  uncertainty k = 0.219449
        12        11        10        38     9        0.000000        1.433723         3    ;  uncertainty k = 0.221969
        12        11        10        38     9      180.000000        1.813466         4    ;  uncertainty k = 0.226875
        12        13        14        15     9        0.000000        0.693921         1    ;  uncertainty k = 0.318572
        12        13        14        15     9      180.000000        1.270418         2    ;  uncertainty k = 0.479803
        12        13        14        15     9        0.000000        0.262144         3    ;  uncertainty k = 0.314566
        12        13        14        15     9      180.000000        0.217016         4    ;  uncertainty k = 0.019053
        12        13        14        21     9        0.000000       -1.025906         1    ;  uncertainty k = 1.201610
        12        13        14        21     9      180.000000        2.621037         2    ;  uncertainty k = 0.558884
        12        13        14        21     9        0.000000        0.532332         3    ;  uncertainty k = 0.211924
        12        13        14        21     9      180.000000        0.331473         4    ;  uncertainty k = 0.181779
        12        13        14        26     9        0.000000        0.342003         1    ;  uncertainty k = 1.184394
        12        13        14        26     9      180.000000        0.986087         2    ;  uncertainty k = 0.376610
        12        13        14        26     9        0.000000        0.469383         3    ;  uncertainty k = 0.110008
        12        13        14        26     9      180.000000        0.252516         4    ;  uncertainty k = 0.170003
        12        13        28        51     9        0.000000        0.269814         1    ;  uncertainty k = 0.112714
        12        13        28        51     9      180.000000        7.801474         2    ;  uncertainty k = 0.501150
        12        13        28        51     9        0.000000        1.306347         3    ;  uncertainty k = 0.364415
        12        13        28        51     9      180.000000        1.639874         4    ;  uncertainty k = 0.191191
        13        12        11        39     9        0.000000        0.130309         1    ;  uncertainty k = 0.335970
        13        12        11        39     9      180.000000        7.387019         2    ;  uncertainty k = 0.314936
        13        12        11        39     9        0.000000        1.444593         3    ;  uncertainty k = 0.134926
        13        12        11        39     9      180.000000        1.815730         4    ;  uncertainty k = 0.167713
        13        14        15        16     9        0.000000        0.604432         1    ;  uncertainty k = 0.306258
        13        14        15        16     9      180.000000        1.338869         2    ;  uncertainty k = 0.482783
        13        14        15        16     9        0.000000        0.282091         3    ;  uncertainty k = 0.315114
        13        14        15        16     9      180.000000        0.240277         4    ;  uncertainty k = 0.026855
        13        14        15        20     9        0.000000        0.604432         1    ;  uncertainty k = 0.306258
        13        14        15        20     9      180.000000        1.338869         2    ;  uncertainty k = 0.482783
        13        14        15        20     9        0.000000        0.282091         3    ;  uncertainty k = 0.315114
        13        14        15        20     9      180.000000        0.240277         4    ;  uncertainty k = 0.026855
        13        14        21        22     9        0.000000        0.066199         1    ;  uncertainty k = 0.766274
        13        14        21        22     9      180.000000        1.001081         2    ;  uncertainty k = 0.551928
        13        14        21        22     9        0.000000        0.663411         3    ;  uncertainty k = 0.261482
        13        14        21        22     9      180.000000        0.495633         4    ;  uncertainty k = 0.301240
        13        14        21        46     9        0.000000        2.215359         1    ;  uncertainty k = 1.158419
        13        14        21        46     9      180.000000        0.335799         2    ;  uncertainty k = 1.110183
        13        14        21        46     9        0.000000        0.587311         3    ;  uncertainty k = 0.400245
        13        14        21        46     9      180.000000        0.046799         4    ;  uncertainty k = 0.131012
        13        14        26        24     9        0.000000       -2.037881         1    ;  uncertainty k = 3.177864
        13        14        26        24     9      180.000000        1.481072         2    ;  uncertainty k = 1.062156
        13        14        26        24     9        0.000000        1.051228         3    ;  uncertainty k = 0.548384
        13        14        26        24     9      180.000000        0.739317         4    ;  uncertainty k = 0.281152
        13        14        26        27     9        0.000000       -0.497889         1    ;  uncertainty k = 1.456442
        13        14        26        27     9      180.000000        3.282057         2    ;  uncertainty k = 0.680876
        13        14        26        27     9        0.000000        0.447933         3    ;  uncertainty k = 0.239946
        13        14        26        27     9      180.000000        0.073708         4    ;  uncertainty k = 0.185546
        14        13        12        40     9        0.000000       -0.295494         1    ;  uncertainty k = 0.178811
        14        13        12        40     9      180.000000        6.909229         2    ;  uncertainty k = 0.444428
        14        13        12        40     9        0.000000        0.631065         3    ;  uncertainty k = 0.378602
        14        13        12        40     9      180.000000        1.058610         4    ;  uncertainty k = 0.260534
        14        13        28        51     9        0.000000       -0.235104         1    ;  uncertainty k = 0.114281
        14        13        28        51     9      180.000000        7.081288         2    ;  uncertainty k = 0.492982
        14        13        28        51     9        0.000000        0.600191         3    ;  uncertainty k = 0.412357
        14        13        28        51     9      180.000000        1.109087         4    ;  uncertainty k = 0.295872
        14        15        16        17     9        0.000000        0.032928         1    ;  uncertainty k = 0.381328
        14        15        16        17     9      180.000000        8.668435         2    ;  uncertainty k = 0.351930
        14        15        16        17     9        0.000000        1.456047         3    ;  uncertainty k = 0.364144
        14        15        16        17     9      180.000000        1.853281         4    ;  uncertainty k = 0.176604
        14        15        16        41     9        0.000000       -0.276888         1    ;  uncertainty k = 0.183727
        14        15        16        41     9      180.000000        6.938094         2    ;  uncertainty k = 0.459859
        14        15        16        41     9        0.000000        0.623176         3    ;  uncertainty k = 0.398126
        14        15        16        41     9      180.000000        1.065175         4    ;  uncertainty k = 0.272844
        14        15        20        19     9        0.000000        0.032928         1    ;  uncertainty k = 0.381328
        14        15        20        19     9      180.000000        8.668435         2    ;  uncertainty k = 0.351930
        14        15        20        19     9        0.000000        1.456047         3    ;  uncertainty k = 0.364144
        14        15        20        19     9      180.000000        1.853281         4    ;  uncertainty k = 0.176604
        14        15        20        45     9        0.000000       -0.276888         1    ;  uncertainty k = 0.183727
        14        15        20        45     9      180.000000        6.938094         2    ;  uncertainty k = 0.459859
        14        15        20        45     9        0.000000        0.623176         3    ;  uncertainty k = 0.398126
        14        15        20        45     9      180.000000        1.065175         4    ;  uncertainty k = 0.272844
        14        21        22        23     9        0.000000        2.188018         1    ;  uncertainty k = 1.893595
        14        21        22        23     9      180.000000       10.144536         2    ;  uncertainty k = 0.979795
        14        21        22        23     9        0.000000        0.434811         3    ;  uncertainty k = 0.470361
        14        21        22        23     9      180.000000       -0.420942         4    ;  uncertainty k = 0.555912
        14        21        22        24     9        0.000000        1.216638         1    ;  uncertainty k = 1.851011
        14        21        22        24     9      180.000000       14.836933         2    ;  uncertainty k = 0.431548
        14        21        22        24     9        0.000000       -0.181364         3    ;  uncertainty k = 0.984648
        14        21        22        24     9      180.000000       -0.541451         4    ;  uncertainty k = 0.214129
        14        26        24        22     9        0.000000        3.107153         1    ;  uncertainty k = 1.849251
        14        26        24        22     9      180.000000        3.066215         2    ;  uncertainty k = 0.882202
        14        26        24        22     9        0.000000       -0.285893         3    ;  uncertainty k = 0.712735
        14        26        24        22     9      180.000000        0.753330         4    ;  uncertainty k = 0.259714
        14        26        24        25     9        0.000000        5.315174         1    ;  uncertainty k = 1.998702
        14        26        24        25     9      180.000000        4.608338         2    ;  uncertainty k = 1.496937
        14        26        24        25     9        0.000000        1.271077         3    ;  uncertainty k = 0.828354
        14        26        24        25     9      180.000000        0.033156         4    ;  uncertainty k = 0.568100
        15        14        13        28     9        0.000000        0.688748         1    ;  uncertainty k = 0.417310
        15        14        13        28     9      180.000000        1.199512         2    ;  uncertainty k = 0.535195
        15        14        13        28     9        0.000000        0.208028         3    ;  uncertainty k = 0.342175
        15        14        13        28     9      180.000000        0.228344         4    ;  uncertainty k = 0.029728
        15        14        21        22     9        0.000000        0.091809         1    ;  uncertainty k = 0.741143
        15        14        21        22     9      180.000000        1.014767         2    ;  uncertainty k = 0.553246
        15        14        21        22     9        0.000000        0.643088         3    ;  uncertainty k = 0.282748
        15        14        21        22     9      180.000000        0.484815         4    ;  uncertainty k = 0.293264
        15        14        21        46     9        0.000000        2.192741         1    ;  uncertainty k = 1.168891
        15        14        21        46     9      180.000000        0.278657         2    ;  uncertainty k = 1.126460
        15        14        21        46     9        0.000000        0.581789         3    ;  uncertainty k = 0.409016
        15        14        21        46     9      180.000000        0.050894         4    ;  uncertainty k = 0.133681
        15        14        26        24     9        0.000000       -2.102596         1    ;  uncertainty k = 3.102235
        15        14        26        24     9      180.000000        1.474984         2    ;  uncertainty k = 1.103387
        15        14        26        24     9        0.000000        1.021732         3    ;  uncertainty k = 0.532804
        15        14        26        24     9      180.000000        0.737330         4    ;  uncertainty k = 0.291002
        15        14        26        27     9        0.000000       -0.742445         1    ;  uncertainty k = 1.309834
        15        14        26        27     9      180.000000        3.252606         2    ;  uncertainty k = 0.704088
        15        14        26        27     9        0.000000        0.415227         3    ;  uncertainty k = 0.232107
        15        14        26        27     9      180.000000        0.072409         4    ;  uncertainty k = 0.180998
        15        16        17        18     9        0.000000        0.005134         1    ;  uncertainty k = 0.242164
        15        16        17        18     9      180.000000       13.352666         2    ;  uncertainty k = 0.284060
        15        16        17        18     9        0.000000       -0.876868         3    ;  uncertainty k = 0.537707
        15        16        17        18     9      180.000000        0.737382         4    ;  uncertainty k = 0.245374
        15        16        17        42     9        0.000000        0.129491         1    ;  uncertainty k = 0.312672
        15        16        17        42     9      180.000000        7.427845         2    ;  uncertainty k = 0.328691
        15        16        17        42     9        0.000000        1.481584         3    ;  uncertainty k = 0.152720
        15        16        17        42     9      180.000000        1.803539         4    ;  uncertainty k = 0.149501
        15        20        19        18     9        0.000000        0.005134         1    ;  uncertainty k = 0.242164
        15        20        19        18     9      180.000000       13.352666         2    ;  uncertainty k = 0.284060
        15        20        19        18     9        0.000000       -0.876868         3    ;  uncertainty k = 0.537707
        15        20        19        18     9      180.000000        0.737382         4    ;  uncertainty k = 0.245374
        15        20        19        44     9        0.000000        0.129491         1    ;  uncertainty k = 0.312672
        15        20        19        44     9      180.000000        7.427845         2    ;  uncertainty k = 0.328691
        15        20        19        44     9        0.000000        1.481584         3    ;  uncertainty k = 0.152720
        15        20        19        44     9      180.000000        1.803539         4    ;  uncertainty k = 0.149501
        16        15        14        21     9        0.000000       -1.006358         1    ;  uncertainty k = 1.282049
        16        15        14        21     9      180.000000        2.605369         2    ;  uncertainty k = 0.522488
        16        15        14        21     9        0.000000        0.536044         3    ;  uncertainty k = 0.227424
        16        15        14        21     9      180.000000        0.333204         4    ;  uncertainty k = 0.173230
        16        15        14        26     9        0.000000        0.270088         1    ;  uncertainty k = 1.215595
        16        15        14        26     9      180.000000        0.970681         2    ;  uncertainty k = 0.379854
        16        15        14        26     9        0.000000        0.486666         3    ;  uncertainty k = 0.110641
        16        15        14        26     9      180.000000        0.249509         4    ;  uncertainty k = 0.167503
        16        15        20        19     9        0.000000       -0.240734         1    ;  uncertainty k = 0.377667
        16        15        20        19     9      180.000000       12.023573         2    ;  uncertainty k = 0.322595
        16        15        20        19     9        0.000000       -0.630710         3    ;  uncertainty k = 0.226695
        16        15        20        19     9      180.000000        0.783826         4    ;  uncertainty k = 0.301902
        16        15        20        45     9        0.000000        0.252150         1    ;  uncertainty k = 0.138567
        16        15        20        45     9      180.000000        7.620993         2    ;  uncertainty k = 0.536107
        16        15        20        45     9        0.000000        1.293074         3    ;  uncertainty k = 0.300641
        16        15        20        45     9      180.000000        1.649203         4    ;  uncertainty k = 0.194464
        16        17        18        19     9        0.000000       -0.006372         1    ;  uncertainty k = 0.040989
        16        17        18        19     9      180.000000       14.797847         2    ;  uncertainty k = 0.237723
        16        17        18        19     9        0.000000       -1.169439         3    ;  uncertainty k = 0.405008
        16        17        18        19     9      180.000000        0.534939         4    ;  uncertainty k = 0.272125
        16        17        18        43     9        0.000000        0.023623         1    ;  uncertainty k = 0.110077
        16        17        18        43     9      180.000000        7.495129         2    ;  uncertainty k = 0.205716
        16        17        18        43     9        0.000000        1.458527         3    ;  uncertainty k = 0.253935
        16        17        18        43     9      180.000000        1.798438         4    ;  uncertainty k = 0.212079
        17        16        15        20     9        0.000000       -0.240734         1    ;  uncertainty k = 0.377667
        17        16        15        20     9      180.000000       12.023573         2    ;  uncertainty k = 0.322595
        17        16        15        20     9        0.000000       -0.630710         3    ;  uncertainty k = 0.226695
        17        16        15        20     9      180.000000        0.783826         4    ;  uncertainty k = 0.301902
        17        18        19        20     9        0.000000       -0.006372         1    ;  uncertainty k = 0.040989
        17        18        19        20     9      180.000000       14.797847         2    ;  uncertainty k = 0.237723
        17        18        19        20     9        0.000000       -1.169439         3    ;  uncertainty k = 0.405008
        17        18        19        20     9      180.000000        0.534939         4    ;  uncertainty k = 0.272125
        17        18        19        44     9        0.000000       -0.019977         1    ;  uncertainty k = 0.134329
        17        18        19        44     9      180.000000        7.715564         2    ;  uncertainty k = 0.305081
        17        18        19        44     9        0.000000        1.421882         3    ;  uncertainty k = 0.287489
        17        18        19        44     9      180.000000        1.773059         4    ;  uncertainty k = 0.137712
        18        17        16        41     9        0.000000       -0.004880         1    ;  uncertainty k = 0.143288
        18        17        16        41     9      180.000000        8.039949         2    ;  uncertainty k = 0.374443
        18        17        16        41     9        0.000000        1.349893         3    ;  uncertainty k = 0.280047
        18        17        16        41     9      180.000000        1.833068         4    ;  uncertainty k = 0.108032
        18        19        20        45     9        0.000000       -0.004880         1    ;  uncertainty k = 0.143288
        18        19        20        45     9      180.000000        8.039949         2    ;  uncertainty k = 0.374443
        18        19        20        45     9        0.000000        1.349893         3    ;  uncertainty k = 0.280047
        18        19        20        45     9      180.000000        1.833068         4    ;  uncertainty k = 0.108032
        19        18        17        42     9        0.000000       -0.019977         1    ;  uncertainty k = 0.134329
        19        18        17        42     9      180.000000        7.715564         2    ;  uncertainty k = 0.305081
        19        18        17        42     9        0.000000        1.421882         3    ;  uncertainty k = 0.287489
        19        18        17        42     9      180.000000        1.773059         4    ;  uncertainty k = 0.137712
        20        15        14        21     9        0.000000       -1.006358         1    ;  uncertainty k = 1.282049
        20        15        14        21     9      180.000000        2.605369         2    ;  uncertainty k = 0.522488
        20        15        14        21     9        0.000000        0.536044         3    ;  uncertainty k = 0.227424
        20        15        14        21     9      180.000000        0.333204         4    ;  uncertainty k = 0.173230
        20        15        14        26     9        0.000000        0.270088         1    ;  uncertainty k = 1.215595
        20        15        14        26     9      180.000000        0.970681         2    ;  uncertainty k = 0.379854
        20        15        14        26     9        0.000000        0.486666         3    ;  uncertainty k = 0.110641
        20        15        14        26     9      180.000000        0.249509         4    ;  uncertainty k = 0.167503
        20        15        16        41     9        0.000000        0.252150         1    ;  uncertainty k = 0.138567
        20        15        16        41     9      180.000000        7.620993         2    ;  uncertainty k = 0.536107
        20        15        16        41     9        0.000000        1.293074         3    ;  uncertainty k = 0.300641
        20        15        16        41     9      180.000000        1.649203         4    ;  uncertainty k = 0.194464
        20        19        18        43     9        0.000000        0.023623         1    ;  uncertainty k = 0.110077
        20        19        18        43     9      180.000000        7.495129         2    ;  uncertainty k = 0.205716
        20        19        18        43     9        0.000000        1.458527         3    ;  uncertainty k = 0.253935
        20        19        18        43     9      180.000000        1.798438         4    ;  uncertainty k = 0.212079
        21        14        13        28     9        0.000000       -0.812419         1    ;  uncertainty k = 1.190583
        21        14        13        28     9      180.000000        2.614923         2    ;  uncertainty k = 0.651824
        21        14        13        28     9        0.000000        0.487181         3    ;  uncertainty k = 0.181040
        21        14        13        28     9      180.000000        0.338572         4    ;  uncertainty k = 0.181116
        21        14        26        24     9        0.000000        0.026898         1    ;  uncertainty k = 2.722771
        21        14        26        24     9      180.000000        6.600281         2    ;  uncertainty k = 0.954493
        21        14        26        24     9        0.000000        0.270507         3    ;  uncertainty k = 0.664803
        21        14        26        24     9      180.000000        0.250183         4    ;  uncertainty k = 0.591147
        21        14        26        27     9        0.000000       -1.351474         1    ;  uncertainty k = 2.878369
        21        14        26        27     9      180.000000        2.586287         2    ;  uncertainty k = 1.299806
        21        14        26        27     9        0.000000        0.299897         3    ;  uncertainty k = 0.631686
        21        14        26        27     9      180.000000        0.356820         4    ;  uncertainty k = 0.111974
        21        22        23        47     9        0.000000        5.761292         1    ;  uncertainty k = 1.326848
        21        22        23        47     9      180.000000       10.436705         2    ;  uncertainty k = 0.346043
        21        22        23        47     9        0.000000        1.485193         3    ;  uncertainty k = 0.455012
        21        22        23        47     9      180.000000       -0.773238         4    ;  uncertainty k = 0.306950
        21        22        23        53     9        0.000000        5.761292         1    ;  uncertainty k = 1.326848
        21        22        23        53     9      180.000000       10.436705         2    ;  uncertainty k = 0.346043
        21        22        23        53     9        0.000000        1.485193         3    ;  uncertainty k = 0.455012
        21        22        23        53     9      180.000000       -0.773238         4    ;  uncertainty k = 0.306950
        21        22        24        25     9        0.000000       -0.356118         1    ;  uncertainty k = 2.518193
        21        22        24        25     9      180.000000        8.283855         2    ;  uncertainty k = 0.415940
        21        22        24        25     9        0.000000        0.272445         3    ;  uncertainty k = 0.120757
        21        22        24        25     9      180.000000       -0.125980         4    ;  uncertainty k = 0.245883
        21        22        24        26     9        0.000000       -0.153039         1    ;  uncertainty k = 1.721867
        21        22        24        26     9      180.000000        8.631893         2    ;  uncertainty k = 0.890565
        21        22        24        26     9        0.000000       -1.128579         3    ;  uncertainty k = 1.132201
        21        22        24        26     9      180.000000        0.000351         4    ;  uncertainty k = 0.465972
        22        21        14        26     9        0.000000        2.020598         1    ;  uncertainty k = 0.690694
        22        21        14        26     9      180.000000        2.318166         2    ;  uncertainty k = 1.059665
        22        21        14        26     9        0.000000        0.199857         3    ;  uncertainty k = 0.699828
        22        21        14        26     9      180.000000        0.438068         4    ;  uncertainty k = 0.468952
        22        24        25        48     9        0.000000       -0.396421         1    ;  uncertainty k = 0.524314
        22        24        25        48     9      180.000000       -1.104408         2    ;  uncertainty k = 0.426496
        22        24        25        48     9        0.000000        0.442755         3    ;  uncertainty k = 0.213660
        22        24        25        48     9      180.000000        0.194734         4    ;  uncertainty k = 0.049390
        22        24        25        49     9        0.000000       -0.396421         1    ;  uncertainty k = 0.524314
        22        24        25        49     9      180.000000       -1.104408         2    ;  uncertainty k = 0.426496
        22        24        25        49     9        0.000000        0.442755         3    ;  uncertainty k = 0.213660
        22        24        25        49     9      180.000000        0.194734         4    ;  uncertainty k = 0.049390
        22        24        25        50     9        0.000000       -0.396421         1    ;  uncertainty k = 0.524314
        22        24        25        50     9      180.000000       -1.104408         2    ;  uncertainty k = 0.426496
        22        24        25        50     9        0.000000        0.442755         3    ;  uncertainty k = 0.213660
        22        24        25        50     9      180.000000        0.194734         4    ;  uncertainty k = 0.049390
        22        24        26        27     9        0.000000        0.406781         1    ;  uncertainty k = 2.598332
        22        24        26        27     9      180.000000        7.636296         2    ;  uncertainty k = 0.797350
        22        24        26        27     9        0.000000        0.506696         3    ;  uncertainty k = 0.484035
        22        24        26        27     9      180.000000        0.070887         4    ;  uncertainty k = 0.264122
        23        22        21        46     9        0.000000        2.256417         1    ;  uncertainty k = 2.728266
        23        22        21        46     9      180.000000        7.437433         2    ;  uncertainty k = 1.129202
        23        22        21        46     9        0.000000        0.944499         3    ;  uncertainty k = 0.181482
        23        22        21        46     9      180.000000       -0.270290         4    ;  uncertainty k = 0.314797
        23        22        24        25     9        0.000000        0.020222         1    ;  uncertainty k = 0.657934
        23        22        24        25     9      180.000000        6.877463         2    ;  uncertainty k = 0.678114
        23        22        24        25     9        0.000000        0.933687         3    ;  uncertainty k = 0.728897
        23        22        24        25     9      180.000000        0.009158         4    ;  uncertainty k = 0.300485
        23        22        24        26     9        0.000000       -0.586688         1    ;  uncertainty k = 0.774775
        23        22        24        26     9      180.000000        6.636752         2    ;  uncertainty k = 1.298464
        23        22        24        26     9        0.000000        0.201670         3    ;  uncertainty k = 0.743074
        23        22        24        26     9      180.000000       -0.088175         4    ;  uncertainty k = 0.478530
        24        22        21        46     9        0.000000        4.192860         1    ;  uncertainty k = 3.453399
        24        22        21        46     9      180.000000       10.610631         2    ;  uncertainty k = 0.634115
        24        22        21        46     9        0.000000        0.940963         3    ;  uncertainty k = 0.791708
        24        22        21        46     9      180.000000       -0.427268         4    ;  uncertainty k = 0.191048
        24        22        23        47     9        0.000000        7.495468         1    ;  uncertainty k = 2.018544
        24        22        23        47     9      180.000000        9.518868         2    ;  uncertainty k = 0.609487
        24        22        23        47     9        0.000000        1.009624         3    ;  uncertainty k = 0.533193
        24        22        23        47     9      180.000000       -0.962190         4    ;  uncertainty k = 0.242200
        24        22        23        53     9        0.000000        7.495468         1    ;  uncertainty k = 2.018544
        24        22        23        53     9      180.000000        9.518868         2    ;  uncertainty k = 0.609487
        24        22        23        53     9        0.000000        1.009624         3    ;  uncertainty k = 0.533193
        24        22        23        53     9      180.000000       -0.962190         4    ;  uncertainty k = 0.242200
        25        24        26        27     9        0.000000       -0.515838         1    ;  uncertainty k = 3.156146
        25        24        26        27     9      180.000000        8.416191         2    ;  uncertainty k = 0.470257
        25        24        26        27     9        0.000000        0.571767         3    ;  uncertainty k = 0.526357
        25        24        26        27     9      180.000000        0.206425         4    ;  uncertainty k = 0.242867
        26        14        13        28     9        0.000000        0.320605         1    ;  uncertainty k = 1.213904
        26        14        13        28     9      180.000000        0.986934         2    ;  uncertainty k = 0.365422
        26        14        13        28     9        0.000000        0.423506         3    ;  uncertainty k = 0.099844
        26        14        13        28     9      180.000000        0.257888         4    ;  uncertainty k = 0.166690
        26        14        21        46     9        0.000000       -0.290077         1    ;  uncertainty k = 2.574721
        26        14        21        46     9      180.000000        0.241722         2    ;  uncertainty k = 1.828814
        26        14        21        46     9        0.000000        0.369688         3    ;  uncertainty k = 0.455814
        26        14        21        46     9      180.000000       -0.040548         4    ;  uncertainty k = 0.160948
        26        24        25        48     9        0.000000        0.248591         1    ;  uncertainty k = 0.444250
        26        24        25        48     9      180.000000        0.083806         2    ;  uncertainty k = 0.256011
        26        24        25        48     9        0.000000        0.361519         3    ;  uncertainty k = 0.229559
        26        24        25        48     9      180.000000        0.309824         4    ;  uncertainty k = 0.070542
        26        24        25        49     9        0.000000        0.248591         1    ;  uncertainty k = 0.444250
        26        24        25        49     9      180.000000        0.083806         2    ;  uncertainty k = 0.256011
        26        24        25        49     9        0.000000        0.361519         3    ;  uncertainty k = 0.229559
        26        24        25        49     9      180.000000        0.309824         4    ;  uncertainty k = 0.070542
        26        24        25        50     9        0.000000        0.248591         1    ;  uncertainty k = 0.444250
        26        24        25        50     9      180.000000        0.083806         2    ;  uncertainty k = 0.256011
        26        24        25        50     9        0.000000        0.361519         3    ;  uncertainty k = 0.229559
        26        24        25        50     9      180.000000        0.309824         4    ;  uncertainty k = 0.070542
        28         9         8        29     9        0.000000       -0.115227         1    ;  uncertainty k = 0.491785
        28         9         8        29     9      180.000000        4.189140         2    ;  uncertainty k = 0.163272
        28         9         8        29     9        0.000000        0.234459         3    ;  uncertainty k = 0.165008
        28         9         8        29     9      180.000000        0.017565         4    ;  uncertainty k = 0.045278
        28         9        10        38     9        0.000000        0.186057         1    ;  uncertainty k = 0.179689
        28         9        10        38     9      180.000000        7.070454         2    ;  uncertainty k = 0.448958
        28         9        10        38     9        0.000000        1.402231         3    ;  uncertainty k = 0.248960
        28         9        10        38     9      180.000000        1.594145         4    ;  uncertainty k = 0.263970
        28        13        12        40     9        0.000000        0.312630         1    ;  uncertainty k = 0.190291
        28        13        12        40     9      180.000000        7.595633         2    ;  uncertainty k = 0.551731
        28        13        12        40     9        0.000000        1.287662         3    ;  uncertainty k = 0.350845
        28        13        12        40     9      180.000000        1.645476         4    ;  uncertainty k = 0.209409
        29         4         5        35     9        0.000000        0.232449         1    ;  uncertainty k = 0.293666
        29         4         5        35     9      180.000000        6.022038         2    ;  uncertainty k = 0.542930
        29         4         5        35     9        0.000000        1.465427         3    ;  uncertainty k = 0.292645
        29         4         5        35     9      180.000000        1.575046         4    ;  uncertainty k = 0.106739
        29         8         7        37     9        0.000000        0.123694         1    ;  uncertainty k = 0.191711
        29         8         7        37     9      180.000000        6.932304         2    ;  uncertainty k = 0.583863
        29         8         7        37     9        0.000000        1.512478         3    ;  uncertainty k = 0.243793
        29         8         7        37     9      180.000000        1.654085         4    ;  uncertainty k = 0.240325
        30         1         2        33     9        0.000000       -0.022347         1    ;  uncertainty k = 0.176061
        30         1         2        33     9      180.000000       -0.189167         2    ;  uncertainty k = 0.224984
        30         1         2        33     9        0.000000        0.655297         3    ;  uncertainty k = 0.027532
        30         1         2        33     9      180.000000       -0.071813         4    ;  uncertainty k = 0.061414
        30         1         2        34     9        0.000000       -0.022347         1    ;  uncertainty k = 0.176061
        30         1         2        34     9      180.000000       -0.189167         2    ;  uncertainty k = 0.224984
        30         1         2        34     9        0.000000        0.655297         3    ;  uncertainty k = 0.027532
        30         1         2        34     9      180.000000       -0.071813         4    ;  uncertainty k = 0.061414
        31         1         2        33     9        0.000000       -0.022347         1    ;  uncertainty k = 0.176061
        31         1         2        33     9      180.000000       -0.189167         2    ;  uncertainty k = 0.224984
        31         1         2        33     9        0.000000        0.655297         3    ;  uncertainty k = 0.027532
        31         1         2        33     9      180.000000       -0.071813         4    ;  uncertainty k = 0.061414
        31         1         2        34     9        0.000000       -0.022347         1    ;  uncertainty k = 0.176061
        31         1         2        34     9      180.000000       -0.189167         2    ;  uncertainty k = 0.224984
        31         1         2        34     9        0.000000        0.655297         3    ;  uncertainty k = 0.027532
        31         1         2        34     9      180.000000       -0.071813         4    ;  uncertainty k = 0.061414
        32         1         2        33     9        0.000000       -0.022347         1    ;  uncertainty k = 0.176061
        32         1         2        33     9      180.000000       -0.189167         2    ;  uncertainty k = 0.224984
        32         1         2        33     9        0.000000        0.655297         3    ;  uncertainty k = 0.027532
        32         1         2        33     9      180.000000       -0.071813         4    ;  uncertainty k = 0.061414
        32         1         2        34     9        0.000000       -0.022347         1    ;  uncertainty k = 0.176061
        32         1         2        34     9      180.000000       -0.189167         2    ;  uncertainty k = 0.224984
        32         1         2        34     9        0.000000        0.655297         3    ;  uncertainty k = 0.027532
        32         1         2        34     9      180.000000       -0.071813         4    ;  uncertainty k = 0.061414
        35         5         6        36     9        0.000000       -0.107867         1    ;  uncertainty k = 0.071701
        35         5         6        36     9      180.000000        7.558287         2    ;  uncertainty k = 0.403863
        35         5         6        36     9        0.000000       -0.423361         3    ;  uncertainty k = 0.260406
        35         5         6        36     9      180.000000        0.094063         4    ;  uncertainty k = 0.133557
        36         6         7        37     9        0.000000       -0.080460         1    ;  uncertainty k = 0.200026
        36         6         7        37     9      180.000000        7.592462         2    ;  uncertainty k = 0.360342
        36         6         7        37     9        0.000000       -0.443416         3    ;  uncertainty k = 0.277104
        36         6         7        37     9      180.000000        0.126049         4    ;  uncertainty k = 0.121697
        38        10        11        39     9        0.000000       -0.091342         1    ;  uncertainty k = 0.201671
        38        10        11        39     9      180.000000        7.955100         2    ;  uncertainty k = 0.286442
        38        10        11        39     9        0.000000       -0.501359         3    ;  uncertainty k = 0.277133
        38        10        11        39     9      180.000000        0.117607         4    ;  uncertainty k = 0.149001
        39        11        12        40     9        0.000000       -0.162734         1    ;  uncertainty k = 0.342356
        39        11        12        40     9      180.000000        7.812447         2    ;  uncertainty k = 0.315879
        39        11        12        40     9        0.000000       -0.476482         3    ;  uncertainty k = 0.316090
        39        11        12        40     9      180.000000        0.149753         4    ;  uncertainty k = 0.190255
        41        16        17        42     9        0.000000       -0.156460         1    ;  uncertainty k = 0.354102
        41        16        17        42     9      180.000000        7.863234         2    ;  uncertainty k = 0.315072
        41        16        17        42     9        0.000000       -0.450842         3    ;  uncertainty k = 0.303952
        41        16        17        42     9      180.000000        0.185726         4    ;  uncertainty k = 0.168830
        42        17        18        43     9        0.000000       -0.049615         1    ;  uncertainty k = 0.148337
        42        17        18        43     9      180.000000        7.798627         2    ;  uncertainty k = 0.386263
        42        17        18        43     9        0.000000       -0.413767         3    ;  uncertainty k = 0.291377
        42        17        18        43     9      180.000000        0.047026         4    ;  uncertainty k = 0.170119
        43        18        19        44     9        0.000000       -0.049615         1    ;  uncertainty k = 0.148337
        43        18        19        44     9      180.000000        7.798627         2    ;  uncertainty k = 0.386263
        43        18        19        44     9        0.000000       -0.413767         3    ;  uncertainty k = 0.291377
        43        18        19        44     9      180.000000        0.047026         4    ;  uncertainty k = 0.170119
        44        19        20        45     9        0.000000       -0.156460         1    ;  uncertainty k = 0.354102
        44        19        20        45     9      180.000000        7.863234         2    ;  uncertainty k = 0.315072
        44        19        20        45     9        0.000000       -0.450842         3    ;  uncertainty k = 0.303952
        44        19        20        45     9      180.000000        0.185726         4    ;  uncertainty k = 0.168830

[ dihedrals ] ; impropers
;       ai        aj        ak        al funct           phase               k        pn
         4         3         5        29     4      180.000000       19.699047         2    ;  uncertainty k = 0.056837
         4         5        29         3     4      180.000000       19.699047         2    ;  uncertainty k = 0.056837
         4        29         3         5     4      180.000000       19.699047         2    ;  uncertainty k = 0.056837
         5         4         6        35     4      180.000000        2.164129         2    ;  uncertainty k = 0.258326
         5         6        35         4     4      180.000000        2.164129         2    ;  uncertainty k = 0.258326
         5        35         4         6     4      180.000000        2.164129         2    ;  uncertainty k = 0.258326
         6         5         7        36     4      180.000000        4.427917         2    ;  uncertainty k = 0.122365
         6         7        36         5     4      180.000000        4.427917         2    ;  uncertainty k = 0.122365
         6        36         5         7     4      180.000000        4.427917         2    ;  uncertainty k = 0.122365
         7         6         8        37     4      180.000000        2.897120         2    ;  uncertainty k = 0.145453
         7         8        37         6     4      180.000000        2.897120         2    ;  uncertainty k = 0.145453
         7        37         6         8     4      180.000000        2.897120         2    ;  uncertainty k = 0.145453
         8         7         9        29     4      180.000000       15.272785         2    ;  uncertainty k = 0.051533
         8         9        29         7     4      180.000000       15.272785         2    ;  uncertainty k = 0.051533
         8        29         7         9     4      180.000000       15.272785         2    ;  uncertainty k = 0.051533
         9         8        10        28     4      180.000000       15.340241         2    ;  uncertainty k = 0.068361
         9        10        28         8     4      180.000000       15.340241         2    ;  uncertainty k = 0.068361
         9        28         8        10     4      180.000000       15.340241         2    ;  uncertainty k = 0.068361
        10         9        11        38     4      180.000000        4.517923         2    ;  uncertainty k = 0.109145
        10        11        38         9     4      180.000000        4.517923         2    ;  uncertainty k = 0.109145
        10        38         9        11     4      180.000000        4.517923         2    ;  uncertainty k = 0.109145
        11        10        12        39     4      180.000000        4.097222         2    ;  uncertainty k = 0.151129
        11        12        39        10     4      180.000000        4.097222         2    ;  uncertainty k = 0.151129
        11        39        10        12     4      180.000000        4.097222         2    ;  uncertainty k = 0.151129
        12        11        13        40     4      180.000000        4.098999         2    ;  uncertainty k = 0.199476
        12        13        40        11     4      180.000000        4.098999         2    ;  uncertainty k = 0.199476
        12        40        11        13     4      180.000000        4.098999         2    ;  uncertainty k = 0.199476
        13        12        14        28     4      180.000000       10.165199         2    ;  uncertainty k = 0.227302
        13        14        28        12     4      180.000000       10.165199         2    ;  uncertainty k = 0.227302
        13        28        12        14     4      180.000000       10.165199         2    ;  uncertainty k = 0.227302
        15        14        16        20     4      180.000000        9.903188         2    ;  uncertainty k = 0.263109
        15        16        20        14     4      180.000000        9.903188         2    ;  uncertainty k = 0.263109
        15        20        14        16     4      180.000000        9.903188         2    ;  uncertainty k = 0.263109
        16        15        17        41     4      180.000000        4.262962         2    ;  uncertainty k = 0.194702
        16        17        41        15     4      180.000000        4.262962         2    ;  uncertainty k = 0.194702
        16        41        15        17     4      180.000000        4.262962         2    ;  uncertainty k = 0.194702
        17        16        18        42     4      180.000000        4.374956         2    ;  uncertainty k = 0.132609
        17        18        42        16     4      180.000000        4.374956         2    ;  uncertainty k = 0.132609
        17        42        16        18     4      180.000000        4.374956         2    ;  uncertainty k = 0.132609
        18        17        19        43     4      180.000000        4.945481         2    ;  uncertainty k = 0.161841
        18        19        43        17     4      180.000000        4.945481         2    ;  uncertainty k = 0.161841
        18        43        17        19     4      180.000000        4.945481         2    ;  uncertainty k = 0.161841
        19        18        20        44     4      180.000000        4.374956         2    ;  uncertainty k = 0.132609
        19        20        44        18     4      180.000000        4.374956         2    ;  uncertainty k = 0.132609
        19        44        18        20     4      180.000000        4.374956         2    ;  uncertainty k = 0.132609
        20        15        19        45     4      180.000000        4.262963         2    ;  uncertainty k = 0.194702
        20        19        45        15     4      180.000000        4.262963         2    ;  uncertainty k = 0.194702
        20        45        15        19     4      180.000000        4.262963         2    ;  uncertainty k = 0.194702
        22        21        23        24     4      180.000000       30.576089         2    ;  uncertainty k = 0.126950
        22        23        24        21     4      180.000000       30.576089         2    ;  uncertainty k = 0.126950
        22        24        21        23     4      180.000000       30.576089         2    ;  uncertainty k = 0.126950
        23        22        47        53     4      180.000000        0.162943         2    ;  uncertainty k = 0.364351
        23        47        53        22     4      180.000000        0.162943         2    ;  uncertainty k = 0.364351
        23        53        22        47     4      180.000000        0.162943         2    ;  uncertainty k = 0.364351
        24        22        25        26     4      180.000000        1.980025         2    ;  uncertainty k = 0.475021
        24        25        26        22     4      180.000000        1.980025         2    ;  uncertainty k = 0.475021
        24        26        22        25     4      180.000000        1.980025         2    ;  uncertainty k = 0.475021
        26        14        24        27     4      180.000000       49.868697         2    ;  uncertainty k = 0.032116
        26        24        27        14     4      180.000000       49.868697         2    ;  uncertainty k = 0.032116
        26        27        14        24     4      180.000000       49.868697         2    ;  uncertainty k = 0.032116
        28         9        13        51     4      180.000000        4.425631         2    ;  uncertainty k = 0.296191
        28        13        51         9     4      180.000000        4.425631         2    ;  uncertainty k = 0.296191
        28        51         9        13     4      180.000000        4.425631         2    ;  uncertainty k = 0.296191
        29         4         8        52     4      180.000000        2.182158         2    ;  uncertainty k = 0.232821
        29         8        52         4     4      180.000000        2.182158         2    ;  uncertainty k = 0.232821
        29        52         4         8     4      180.000000        2.182158         2    ;  uncertainty k = 0.232821

[ pairs ]
;       ai        aj funct
         1         4     1
         2         5     1
         2        29     1
         3         6     1
         3         8     1
         3        30     1
         3        31     1
         3        32     1
         3        35     1
         3        52     1
         4         7     1
         4         9     1
         4        33     1
         4        34     1
         4        36     1
         5         8     1
         5        37     1
         5        52     1
         6         9     1
         6        29     1
         7        10     1
         7        28     1
         7        35     1
         7        52     1
         8        11     1
         8        13     1
         8        36     1
         8        38     1
         8        51     1
         9        12     1
         9        14     1
         9        37     1
         9        39     1
         9        52     1
        10        13     1
        10        29     1
        10        40     1
        10        51     1
        11        14     1
        11        28     1
        12        15     1
        12        21     1
        12        26     1
        12        38     1
        12        51     1
        13        16     1
        13        20     1
        13        22     1
        13        24     1
        13        27     1
        13        39     1
        13        46     1
        14        17     1
        14        19     1
        14        23     1
        14        25     1
        14        40     1
        14        41     1
        14        45     1
        14        51     1
        15        18     1
        15        22     1
        15        24     1
        15        27     1
        15        28     1
        15        42     1
        15        44     1
        15        46     1
        16        19     1
        16        21     1
        16        26     1
        16        43     1
        16        45     1
        17        20     1
        17        44     1
        18        41     1
        18        45     1
        19        42     1
        20        21     1
        20        26     1
        20        41     1
        20        43     1
        21        25     1
        21        27     1
        21        28     1
        21        47     1
        21        53     1
        22        27     1
        22        48     1
        22        49     1
        22        50     1
        23        25     1
        23        26     1
        23        46     1
        24        46     1
        24        47     1
        24        53     1
        25        27     1
        26        28     1
        26        46     1
        26        48     1
        26        49     1
        26        50     1
        28        29     1
        28        38     1
        28        40     1
        29        35     1
        29        37     1
        30        33     1
        30        34     1
        31        33     1
        31        34     1
        32        33     1
        32        34     1
        35        36     1
        36        37     1
        38        39     1
        39        40     1
        41        42     1
        42        43     1
        43        44     1
        44        45     1
