; ITP file created by ByteFF-joint-25, 2026-02-18 03:15:49.353321

[ atomtypes ]
;name           bonded.type        at.num        mass        charge   ptype           sigma         epsilon
 c0bf                                   6      0.0000       0.00000       A     3.39733e-01     4.51254e-01    ;  uncertainty sigma = 0.000013, epsilon = 0.001262
 n1bf                                   7      0.0000       0.00000       A     3.18110e-01     6.83692e-01    ;  uncertainty sigma = 0.000074, epsilon = 0.006737
 c2bf                                   6      0.0000       0.00000       A     3.31517e-01     4.12248e-01    ;  uncertainty sigma = 0.000058, epsilon = 0.001403
 n3bf                                   7      0.0000       0.00000       A     3.36546e-01     4.71601e-01    ;  uncertainty sigma = 0.000088, epsilon = 0.005519
 n4bf                                   7      0.0000       0.00000       A     3.27439e-01     6.56945e-01    ;  uncertainty sigma = 0.000124, epsilon = 0.011786
 c5bf                                   6      0.0000       0.00000       A     3.39803e-01     4.52408e-01    ;  uncertainty sigma = 0.000048, epsilon = 0.001848
 c6bf                                   6      0.0000       0.00000       A     3.31515e-01     4.13825e-01    ;  uncertainty sigma = 0.000024, epsilon = 0.000893
 c7bf                                   6      0.0000       0.00000       A     3.31507e-01     4.13144e-01    ;  uncertainty sigma = 0.000003, epsilon = 0.000558
 c8bf                                   6      0.0000       0.00000       A     3.31522e-01     4.13324e-01    ;  uncertainty sigma = 0.000003, epsilon = 0.000652
 c9bf                                   6      0.0000       0.00000       A     3.31513e-01     4.13269e-01    ;  uncertainty sigma = 0.000005, epsilon = 0.000649
 c10bf                                  6      0.0000       0.00000       A     3.31502e-01     4.13502e-01    ;  uncertainty sigma = 0.000009, epsilon = 0.000509
 c11bf                                  6      0.0000       0.00000       A     3.31501e-01     4.13509e-01    ;  uncertainty sigma = 0.000010, epsilon = 0.000707
 c12bf                                  6      0.0000       0.00000       A     3.31514e-01     4.13283e-01    ;  uncertainty sigma = 0.000005, epsilon = 0.000631
 c13bf                                  6      0.0000       0.00000       A     3.31516e-01     4.13344e-01    ;  uncertainty sigma = 0.000004, epsilon = 0.000594
 c14bf                                  6      0.0000       0.00000       A     3.31511e-01     4.13260e-01    ;  uncertainty sigma = 0.000005, epsilon = 0.000565
 c15bf                                  6      0.0000       0.00000       A     3.31529e-01     4.13574e-01    ;  uncertainty sigma = 0.000013, epsilon = 0.000832
 c16bf                                  6      0.0000       0.00000       A     3.47934e-01     6.67795e-01    ;  uncertainty sigma = 0.000027, epsilon = 0.001251
 n17bf                                  7      0.0000       0.00000       A     3.27375e-01     4.59084e-01    ;  uncertainty sigma = 0.000021, epsilon = 0.000492
 c18bf                                  6      0.0000       0.00000       A     3.31515e-01     4.13232e-01    ;  uncertainty sigma = 0.000009, epsilon = 0.000632
 c19bf                                  6      0.0000       0.00000       A     3.31518e-01     4.13226e-01    ;  uncertainty sigma = 0.000017, epsilon = 0.000910
 c20bf                                  6      0.0000       0.00000       A     3.39764e-01     4.49715e-01    ;  uncertainty sigma = 0.000040, epsilon = 0.002019
 c21bf                                  6      0.0000       0.00000       A     3.39735e-01     4.50625e-01    ;  uncertainty sigma = 0.000020, epsilon = 0.000685
 c22bf                                  6      0.0000       0.00000       A     3.39735e-01     4.50626e-01    ;  uncertainty sigma = 0.000020, epsilon = 0.000685
 c23bf                                  6      0.0000       0.00000       A     3.31558e-01     4.13924e-01    ;  uncertainty sigma = 0.000016, epsilon = 0.000458
 o24bf                                  8      0.0000       0.00000       A     3.04808e-01     6.12161e-01    ;  uncertainty sigma = 0.000055, epsilon = 0.001789
 h25bf                                  1      0.0000       0.00000       A     2.42208e-01     8.66970e-02    ;  uncertainty sigma = 0.000028, epsilon = 0.000664
 h26bf                                  1      0.0000       0.00000       A     2.42208e-01     8.66970e-02    ;  uncertainty sigma = 0.000028, epsilon = 0.000664
 h27bf                                  1      0.0000       0.00000       A     2.42208e-01     8.66970e-02    ;  uncertainty sigma = 0.000028, epsilon = 0.000664
 h28bf                                  1      0.0000       0.00000       A     1.10696e-01     4.12787e-02    ;  uncertainty sigma = 0.000128, epsilon = 0.001559
 h29bf                                  1      0.0000       0.00000       A     1.10560e-01     4.03483e-02    ;  uncertainty sigma = 0.000072, epsilon = 0.001764
 h30bf                                  1      0.0000       0.00000       A     2.62559e-01     6.70864e-02    ;  uncertainty sigma = 0.000006, epsilon = 0.000392
 h31bf                                  1      0.0000       0.00000       A     2.62564e-01     6.70136e-02    ;  uncertainty sigma = 0.000010, epsilon = 0.000418
 h32bf                                  1      0.0000       0.00000       A     2.62562e-01     6.70409e-02    ;  uncertainty sigma = 0.000012, epsilon = 0.000506
 h33bf                                  1      0.0000       0.00000       A     2.62562e-01     6.70409e-02    ;  uncertainty sigma = 0.000012, epsilon = 0.000507
 h34bf                                  1      0.0000       0.00000       A     2.62563e-01     6.70149e-02    ;  uncertainty sigma = 0.000010, epsilon = 0.000410
 h35bf                                  1      0.0000       0.00000       A     2.62572e-01     6.69858e-02    ;  uncertainty sigma = 0.000015, epsilon = 0.000486
 h36bf                                  1      0.0000       0.00000       A     2.62561e-01     6.69789e-02    ;  uncertainty sigma = 0.000017, epsilon = 0.000825
 h37bf                                  1      0.0000       0.00000       A     2.62550e-01     6.72383e-02    ;  uncertainty sigma = 0.000015, epsilon = 0.000625
 h38bf                                  1      0.0000       0.00000       A     2.59937e-01     8.72288e-02    ;  uncertainty sigma = 0.000071, epsilon = 0.001228
 h39bf                                  1      0.0000       0.00000       A     2.60065e-01     8.61959e-02    ;  uncertainty sigma = 0.000029, epsilon = 0.000649
 h40bf                                  1      0.0000       0.00000       A     2.60065e-01     8.61959e-02    ;  uncertainty sigma = 0.000029, epsilon = 0.000649
 h41bf                                  1      0.0000       0.00000       A     2.60065e-01     8.61959e-02    ;  uncertainty sigma = 0.000029, epsilon = 0.000649
 h42bf                                  1      0.0000       0.00000       A     2.60065e-01     8.61959e-02    ;  uncertainty sigma = 0.000029, epsilon = 0.000649
 h43bf                                  1      0.0000       0.00000       A     1.10696e-01     4.12787e-02    ;  uncertainty sigma = 0.000128, epsilon = 0.001559

[ moleculetype ]
;name             nrexcl
 MOL                   3

[ atoms ]
;       nr            type      resi   res      atom      cgnr      charge          mass ; qtot
         1            c0bf         1   UNL        c0         1     0.07468       12.0110 ; qtot    0.075
         2            n1bf         1   UNL        n1         2    -0.42319       14.0070 ; qtot   -0.349
         3            c2bf         1   UNL        c2         3     0.46059       12.0110 ; qtot    0.112
         4            n3bf         1   UNL        n3         4    -0.48161       14.0070 ; qtot   -0.370
         5            n4bf         1   UNL        n4         5    -0.37866       14.0070 ; qtot   -0.748
         6            c5bf         1   UNL        c5         6     0.08654       12.0110 ; qtot   -0.662
         7            c6bf         1   UNL        c6         7    -0.12590       12.0110 ; qtot   -0.788
         8            c7bf         1   UNL        c7         8    -0.09631       12.0110 ; qtot   -0.884
         9            c8bf         1   UNL        c8         9    -0.11374       12.0110 ; qtot   -0.998
        10            c9bf         1   UNL        c9        10    -0.09919       12.0110 ; qtot   -1.097
        11           c10bf         1   UNL       c10        11    -0.02209       12.0110 ; qtot   -1.119
        12           c11bf         1   UNL       c11        12    -0.03823       12.0110 ; qtot   -1.157
        13           c12bf         1   UNL       c12        13    -0.09269       12.0110 ; qtot   -1.250
        14           c13bf         1   UNL       c13        14    -0.13351       12.0110 ; qtot   -1.383
        15           c14bf         1   UNL       c14        15    -0.08796       12.0110 ; qtot   -1.471
        16           c15bf         1   UNL       c15        16    -0.01455       12.0110 ; qtot   -1.486
        17           c16bf         1   UNL       c16        17     0.23124       12.0110 ; qtot   -1.255
        18           n17bf         1   UNL       n17        18    -0.35686       14.0070 ; qtot   -1.611
        19           c18bf         1   UNL       c18        19    -0.08395       12.0110 ; qtot   -1.695
        20           c19bf         1   UNL       c19        20    -0.08609       12.0110 ; qtot   -1.781
        21           c20bf         1   UNL       c20        21    -0.18780       12.0110 ; qtot   -1.969
        22           c21bf         1   UNL       c21        22    -0.09798       12.0110 ; qtot   -2.067
        23           c22bf         1   UNL       c22        23    -0.09798       12.0110 ; qtot   -2.165
        24           c23bf         1   UNL       c23        24     0.71197       12.0110 ; qtot   -1.453
        25           o24bf         1   UNL       o24        25    -0.45487       15.9990 ; qtot   -1.908
        26           h25bf         1   UNL       h25        26     0.09037        1.0080 ; qtot   -1.818
        27           h26bf         1   UNL       h26        27     0.09037        1.0080 ; qtot   -1.727
        28           h27bf         1   UNL       h27        28     0.09037        1.0080 ; qtot   -1.637
        29           h28bf         1   UNL       h28        29     0.33562        1.0080 ; qtot   -1.301
        30           h29bf         1   UNL       h29        30     0.35109        1.0080 ; qtot   -0.950
        31           h30bf         1   UNL       h30        31     0.14428        1.0080 ; qtot   -0.806
        32           h31bf         1   UNL       h31        32     0.14635        1.0080 ; qtot   -0.660
        33           h32bf         1   UNL       h32        33     0.13653        1.0080 ; qtot   -0.523
        34           h33bf         1   UNL       h33        34     0.13532        1.0080 ; qtot   -0.388
        35           h34bf         1   UNL       h34        35     0.14588        1.0080 ; qtot   -0.242
        36           h35bf         1   UNL       h35        36     0.14719        1.0080 ; qtot   -0.095
        37           h36bf         1   UNL       h36        37     0.14978        1.0080 ; qtot    0.055
        38           h37bf         1   UNL       h37        38     0.14597        1.0080 ; qtot    0.201
        39           h38bf         1   UNL       h38        39     0.11275        1.0080 ; qtot    0.314
        40           h39bf         1   UNL       h39        40     0.08766        1.0080 ; qtot    0.401
        41           h40bf         1   UNL       h40        41     0.08766        1.0080 ; qtot    0.489
        42           h41bf         1   UNL       h41        42     0.08766        1.0080 ; qtot    0.577
        43           h42bf         1   UNL       h42        43     0.08766        1.0080 ; qtot    0.664
        44           h43bf         1   UNL       h43        44     0.33563        1.0080 ; qtot    1.000

[ bonds ]
;       ai        aj funct               r               k
         1         2     1        0.146656   261100.676221    ;  uncertainty r = 0.000124, k = 11.833566
         1        26     1        0.109173   309392.626904    ;  uncertainty r = 0.000044, k = 3.074427
         1        27     1        0.109173   309392.626904    ;  uncertainty r = 0.000044, k = 3.074427
         1        28     1        0.109173   309392.626904    ;  uncertainty r = 0.000044, k = 3.074427
         2         3     1        0.135503   283548.050732    ;  uncertainty r = 0.000225, k = 42.568952
         2        24     1        0.142785   299314.049170    ;  uncertainty r = 0.000374, k = 69.452427
         3         4     1        0.133098   316435.557373    ;  uncertainty r = 0.000215, k = 41.951408
         3         5     1        0.133481   527501.221973    ;  uncertainty r = 0.000076, k = 54.235097
         4        29     1        0.101395   420938.337598    ;  uncertainty r = 0.000072, k = 12.186656
         4        44     1        0.101395   420938.388672    ;  uncertainty r = 0.000072, k = 12.186639
         5         6     1        0.149852   225534.965234    ;  uncertainty r = 0.000257, k = 72.040404
         5        30     1        0.101512   426891.191016    ;  uncertainty r = 0.000059, k = 5.031882
         6         7     1        0.150890   206477.067407    ;  uncertainty r = 0.000131, k = 15.740387
         6        21     1        0.151162   204155.935693    ;  uncertainty r = 0.000209, k = 15.151137
         6        24     1        0.153376   180115.581836    ;  uncertainty r = 0.000390, k = 26.443674
         7         8     1        0.139716   351668.009082    ;  uncertainty r = 0.000036, k = 6.008971
         7        20     1        0.139500   344459.240625    ;  uncertainty r = 0.000044, k = 8.098081
         8         9     1        0.139473   369549.501660    ;  uncertainty r = 0.000015, k = 1.353426
         8        31     1        0.108792   333228.173145    ;  uncertainty r = 0.000023, k = 2.570379
         9        10     1        0.139329   371020.030566    ;  uncertainty r = 0.000025, k = 2.446582
         9        32     1        0.108773   333044.357031    ;  uncertainty r = 0.000024, k = 1.073341
        10        11     1        0.140129   347667.518750    ;  uncertainty r = 0.000009, k = 1.038849
        10        33     1        0.108820   334865.306152    ;  uncertainty r = 0.000023, k = 0.943338
        11        12     1        0.147836   270342.453955    ;  uncertainty r = 0.000073, k = 6.838948
        11        20     1        0.139878   339019.197900    ;  uncertainty r = 0.000059, k = 2.685846
        12        13     1        0.140237   344619.613672    ;  uncertainty r = 0.000027, k = 1.940057
        12        19     1        0.139737   345287.460156    ;  uncertainty r = 0.000050, k = 2.070120
        13        14     1        0.139477   368276.655518    ;  uncertainty r = 0.000026, k = 2.722695
        13        34     1        0.108827   334926.058936    ;  uncertainty r = 0.000022, k = 0.974423
        14        15     1        0.139223   371176.496436    ;  uncertainty r = 0.000020, k = 0.686661
        14        35     1        0.108759   333388.750488    ;  uncertainty r = 0.000012, k = 1.002931
        15        16     1        0.140442   360075.770361    ;  uncertainty r = 0.000035, k = 1.181250
        15        36     1        0.108671   332748.305322    ;  uncertainty r = 0.000012, k = 0.493504
        16        17     1        0.143735   315701.493164    ;  uncertainty r = 0.000022, k = 3.831003
        16        19     1        0.140271   355166.082324    ;  uncertainty r = 0.000037, k = 2.298501
        17        18     1        0.116666  1127116.482813    ;  uncertainty r = 0.000023, k = 3.045857
        19        37     1        0.108710   334026.182275    ;  uncertainty r = 0.000025, k = 1.116393
        20        38     1        0.108835   333640.852832    ;  uncertainty r = 0.000018, k = 1.914990
        21        22     1        0.151152   209331.465039    ;  uncertainty r = 0.000138, k = 6.033815
        21        23     1        0.151152   209331.465039    ;  uncertainty r = 0.000138, k = 6.033788
        21        39     1        0.108719   310203.481201    ;  uncertainty r = 0.000077, k = 4.480011
        22        23     1        0.150777   217596.192969    ;  uncertainty r = 0.000077, k = 4.692781
        22        40     1        0.108641   313244.057129    ;  uncertainty r = 0.000029, k = 3.059020
        22        41     1        0.108641   313244.057129    ;  uncertainty r = 0.000029, k = 3.059020
        23        42     1        0.108641   313244.057129    ;  uncertainty r = 0.000029, k = 3.059011
        23        43     1        0.108641   313244.057129    ;  uncertainty r = 0.000029, k = 3.059022
        24        25     1        0.120161   629558.236621    ;  uncertainty r = 0.000190, k = 11.702454

[ angles ]
;       ai        aj        ak funct           theta             cth
         1         2         3     1      118.614197      373.008810    ;  uncertainty theta = 0.007384, k = 0.436302
         1         2        24     1      119.198463      398.913845    ;  uncertainty theta = 0.009079, k = 0.285859
         2         1        26     1      107.393494      471.159859    ;  uncertainty theta = 0.002493, k = 0.223269
         2         1        27     1      107.393494      471.159859    ;  uncertainty theta = 0.002493, k = 0.223269
         2         1        28     1      107.393494      471.159859    ;  uncertainty theta = 0.002493, k = 0.223269
         2         3         4     1      125.894386      534.489050    ;  uncertainty theta = 0.010836, k = 0.297060
         2         3         5     1      113.162216      705.430278    ;  uncertainty theta = 0.009464, k = 0.270720
         2        24         6     1      109.881653      478.461302    ;  uncertainty theta = 0.004913, k = 0.638722
         2        24        25     1      125.231102      649.265684    ;  uncertainty theta = 0.010191, k = 0.111305
         3         2        24     1      110.403458      715.219163    ;  uncertainty theta = 0.010415, k = 0.265126
         3         4        29     1      114.818565      368.234583    ;  uncertainty theta = 0.004127, k = 0.182930
         3         4        44     1      114.818565      368.234583    ;  uncertainty theta = 0.004127, k = 0.182930
         3         5         6     1      111.925354      603.092930    ;  uncertainty theta = 0.017251, k = 0.409410
         3         5        30     1      119.250549      354.164625    ;  uncertainty theta = 0.008486, k = 0.158432
         4         3         5     1      128.705078      646.711143    ;  uncertainty theta = 0.008044, k = 0.328473
         5         6         7     1      110.559860      619.554406    ;  uncertainty theta = 0.004317, k = 0.200006
         5         6        21     1      110.212158      624.961187    ;  uncertainty theta = 0.003788, k = 0.136123
         5         6        24     1      102.739685      943.303664    ;  uncertainty theta = 0.008074, k = 0.565002
         6         5        30     1      117.676224      299.217704    ;  uncertainty theta = 0.008967, k = 0.364637
         6         7         8     1      117.054367      373.464998    ;  uncertainty theta = 0.006930, k = 0.229722
         6         7        20     1      116.524132      376.410576    ;  uncertainty theta = 0.006366, k = 0.184517
         6        21        22     1      112.597801      318.680365    ;  uncertainty theta = 0.010889, k = 0.113929
         6        21        23     1      112.597801      318.680333    ;  uncertainty theta = 0.010889, k = 0.113928
         6        21        39     1      112.493546      265.775375    ;  uncertainty theta = 0.006435, k = 0.172590
         6        24        25     1      125.898621      417.809007    ;  uncertainty theta = 0.008673, k = 0.151128
         7         6        21     1      112.572487      532.892725    ;  uncertainty theta = 0.006618, k = 0.274850
         7         6        24     1      109.418724      482.975529    ;  uncertainty theta = 0.008208, k = 0.137213
         7         8         9     1      120.327286      515.387068    ;  uncertainty theta = 0.004364, k = 0.037328
         7         8        31     1      118.569664      271.156092    ;  uncertainty theta = 0.003481, k = 0.042646
         7        20        11     1      122.474083      516.262544    ;  uncertainty theta = 0.002774, k = 0.169314
         7        20        38     1      118.216293      271.944327    ;  uncertainty theta = 0.002872, k = 0.073521
         8         7        20     1      123.213669      434.959028    ;  uncertainty theta = 0.006612, k = 0.146384
         8         9        10     1      120.372658      510.143598    ;  uncertainty theta = 0.002404, k = 0.081340
         8         9        32     1      119.840698      282.071674    ;  uncertainty theta = 0.001962, k = 0.039638
         9         8        31     1      120.276512      299.592748    ;  uncertainty theta = 0.003027, k = 0.031167
         9        10        11     1      119.870583      534.338285    ;  uncertainty theta = 0.002636, k = 0.065523
         9        10        33     1      120.256119      294.317580    ;  uncertainty theta = 0.001009, k = 0.017634
        10         9        32     1      120.382919      284.275111    ;  uncertainty theta = 0.000810, k = 0.049636
        10        11        12     1      120.603210      409.925191    ;  uncertainty theta = 0.002626, k = 0.114302
        10        11        20     1      120.006149      405.205167    ;  uncertainty theta = 0.004545, k = 0.230552
        11        10        33     1      119.088669      278.032757    ;  uncertainty theta = 0.000748, k = 0.089678
        11        12        13     1      120.618874      411.894645    ;  uncertainty theta = 0.001987, k = 0.040536
        11        12        19     1      119.821815      410.041417    ;  uncertainty theta = 0.002164, k = 0.092974
        11        20        38     1      118.947388      282.044158    ;  uncertainty theta = 0.001884, k = 0.076108
        12        11        20     1      119.560684      411.843092    ;  uncertainty theta = 0.003092, k = 0.133855
        12        13        14     1      120.747093      535.121955    ;  uncertainty theta = 0.001027, k = 0.063721
        12        13        34     1      118.923889      276.353053    ;  uncertainty theta = 0.001553, k = 0.092863
        12        19        16     1      121.242531      526.005973    ;  uncertainty theta = 0.001491, k = 0.149642
        12        19        37     1      119.626572      274.553325    ;  uncertainty theta = 0.001987, k = 0.069668
        13        12        19     1      119.887894      419.268357    ;  uncertainty theta = 0.001284, k = 0.102779
        13        14        15     1      120.369156      513.840286    ;  uncertainty theta = 0.001020, k = 0.035992
        13        14        35     1      120.262375      285.605850    ;  uncertainty theta = 0.001360, k = 0.037874
        14        13        34     1      120.035034      292.940714    ;  uncertainty theta = 0.001706, k = 0.015299
        14        15        16     1      118.995972      527.591253    ;  uncertainty theta = 0.001530, k = 0.064579
        14        15        36     1      120.954544      284.909517    ;  uncertainty theta = 0.001656, k = 0.041085
        15        14        35     1      120.062767      285.363343    ;  uncertainty theta = 0.001583, k = 0.018498
        15        16        17     1      119.670242      375.542761    ;  uncertainty theta = 0.001854, k = 0.099120
        15        16        19     1      121.579613      453.784155    ;  uncertainty theta = 0.001509, k = 0.118867
        16        15        36     1      119.491379      281.765675    ;  uncertainty theta = 0.002480, k = 0.034301
        16        17        18     1      180.000000      234.462170    ;  uncertainty theta = 0.000000, k = 0.678013
        16        19        37     1      119.402000      286.418409    ;  uncertainty theta = 0.003784, k = 0.094804
        17        16        19     1      119.183151      372.936220    ;  uncertainty theta = 0.002564, k = 0.122066
        21         6        24     1      107.883629      486.446341    ;  uncertainty theta = 0.005882, k = 0.311861
        21        22        23     1       59.234901      167.360000    ;  uncertainty theta = 0.035765, k = 0.000000
        21        22        40     1      109.220169      219.322304    ;  uncertainty theta = 0.004633, k = 0.103843
        21        22        41     1      109.220169      219.322304    ;  uncertainty theta = 0.004633, k = 0.103843
        21        23        22     1       59.234901      167.360000    ;  uncertainty theta = 0.035765, k = 0.000000
        21        23        42     1      109.220169      219.322304    ;  uncertainty theta = 0.004633, k = 0.103843
        21        23        43     1      109.220169      219.322304    ;  uncertainty theta = 0.004633, k = 0.103843
        22        21        23     1       60.483154      167.360000    ;  uncertainty theta = 0.027862, k = 0.000000
        22        21        39     1      109.113136      190.376293    ;  uncertainty theta = 0.005107, k = 0.517014
        22        23        42     1      109.860123      223.014140    ;  uncertainty theta = 0.003076, k = 0.167689
        22        23        43     1      109.860123      223.014140    ;  uncertainty theta = 0.003076, k = 0.167689
        23        21        39     1      109.113136      190.376309    ;  uncertainty theta = 0.005107, k = 0.517014
        23        22        40     1      109.860123      223.014140    ;  uncertainty theta = 0.003076, k = 0.167688
        23        22        41     1      109.860123      223.014140    ;  uncertainty theta = 0.003076, k = 0.167688
        26         1        27     1      107.626610      325.638365    ;  uncertainty theta = 0.003338, k = 0.102136
        26         1        28     1      107.626610      325.638365    ;  uncertainty theta = 0.003338, k = 0.102136
        27         1        28     1      107.626610      325.638365    ;  uncertainty theta = 0.003338, k = 0.102136
        29         4        44     1      112.405212      264.736094    ;  uncertainty theta = 0.015790, k = 0.355763
        40        22        41     1      113.833054      202.191516    ;  uncertainty theta = 0.004153, k = 0.109118
        42        23        43     1      113.833069      202.191532    ;  uncertainty theta = 0.004153, k = 0.109118

[ dihedrals ] ; propers for gromacs 4.5 or higher, use funct 9
;       ai        aj        ak        al funct           phase               k        pn
         1         2         3         4     9        0.000000        0.040730         1    ;  uncertainty k = 0.688649
         1         2         3         4     9      180.000000        6.849008         2    ;  uncertainty k = 0.670728
         1         2         3         4     9        0.000000        0.944278         3    ;  uncertainty k = 0.712078
         1         2         3         4     9      180.000000       -0.000087         4    ;  uncertainty k = 0.304515
         1         2         3         5     9        0.000000       -0.354626         1    ;  uncertainty k = 2.503219
         1         2         3         5     9      180.000000        8.005338         2    ;  uncertainty k = 0.438807
         1         2         3         5     9        0.000000        0.243129         3    ;  uncertainty k = 0.218200
         1         2         3         5     9      180.000000       -0.112594         4    ;  uncertainty k = 0.236888
         1         2        24         6     9        0.000000        4.631724         1    ;  uncertainty k = 2.736873
         1         2        24         6     9      180.000000        4.943812         2    ;  uncertainty k = 1.192431
         1         2        24         6     9        0.000000        1.375168         3    ;  uncertainty k = 0.809668
         1         2        24         6     9      180.000000        0.130252         4    ;  uncertainty k = 0.431012
         1         2        24        25     9        0.000000       -0.538000         1    ;  uncertainty k = 3.055171
         1         2        24        25     9      180.000000        8.216315         2    ;  uncertainty k = 0.440596
         1         2        24        25     9        0.000000        0.583622         3    ;  uncertainty k = 0.511355
         1         2        24        25     9      180.000000        0.214039         4    ;  uncertainty k = 0.224806
         2         3         4        29     9        0.000000        7.494610         1    ;  uncertainty k = 1.970887
         2         3         4        29     9      180.000000        9.421077         2    ;  uncertainty k = 0.641277
         2         3         4        29     9        0.000000        0.993965         3    ;  uncertainty k = 0.510398
         2         3         4        29     9      180.000000       -0.952354         4    ;  uncertainty k = 0.236678
         2         3         4        44     9        0.000000        7.494611         1    ;  uncertainty k = 1.970888
         2         3         4        44     9      180.000000        9.421076         2    ;  uncertainty k = 0.641278
         2         3         4        44     9        0.000000        0.993966         3    ;  uncertainty k = 0.510398
         2         3         4        44     9      180.000000       -0.952354         4    ;  uncertainty k = 0.236677
         2         3         5         6     9        0.000000        1.156212         1    ;  uncertainty k = 1.563052
         2         3         5         6     9      180.000000       15.550317         2    ;  uncertainty k = 0.323938
         2         3         5         6     9        0.000000       -0.236119         3    ;  uncertainty k = 1.036179
         2         3         5         6     9      180.000000       -0.543250         4    ;  uncertainty k = 0.194759
         2         3         5        30     9        0.000000        4.329567         1    ;  uncertainty k = 3.158575
         2         3         5        30     9      180.000000       10.930589         2    ;  uncertainty k = 0.637835
         2         3         5        30     9        0.000000        1.064632         3    ;  uncertainty k = 0.709812
         2         3         5        30     9      180.000000       -0.447108         4    ;  uncertainty k = 0.165905
         2        24         6         5     9        0.000000       -0.033182         1    ;  uncertainty k = 2.595996
         2        24         6         5     9      180.000000        6.806056         2    ;  uncertainty k = 0.896168
         2        24         6         5     9        0.000000        0.460426         3    ;  uncertainty k = 0.494179
         2        24         6         5     9      180.000000        0.257600         4    ;  uncertainty k = 0.622849
         2        24         6         7     9        0.000000       -2.355933         1    ;  uncertainty k = 3.263348
         2        24         6         7     9      180.000000        1.763973         2    ;  uncertainty k = 1.188759
         2        24         6         7     9        0.000000        1.153714         3    ;  uncertainty k = 0.534681
         2        24         6         7     9      180.000000        0.793154         4    ;  uncertainty k = 0.307447
         2        24         6        21     9        0.000000       -4.710268         1    ;  uncertainty k = 2.423675
         2        24         6        21     9      180.000000        2.533546         2    ;  uncertainty k = 1.083367
         2        24         6        21     9        0.000000        0.891935         3    ;  uncertainty k = 0.220453
         2        24         6        21     9      180.000000        0.485228         4    ;  uncertainty k = 0.244815
         3         2         1        26     9        0.000000       -0.383531         1    ;  uncertainty k = 0.528522
         3         2         1        26     9      180.000000       -1.086035         2    ;  uncertainty k = 0.435212
         3         2         1        26     9        0.000000        0.451587         3    ;  uncertainty k = 0.207353
         3         2         1        26     9      180.000000        0.189958         4    ;  uncertainty k = 0.051650
         3         2         1        27     9        0.000000       -0.383531         1    ;  uncertainty k = 0.528522
         3         2         1        27     9      180.000000       -1.086035         2    ;  uncertainty k = 0.435212
         3         2         1        27     9        0.000000        0.451587         3    ;  uncertainty k = 0.207353
         3         2         1        27     9      180.000000        0.189958         4    ;  uncertainty k = 0.051650
         3         2         1        28     9        0.000000       -0.383531         1    ;  uncertainty k = 0.528522
         3         2         1        28     9      180.000000       -1.086035         2    ;  uncertainty k = 0.435212
         3         2         1        28     9        0.000000        0.451587         3    ;  uncertainty k = 0.207353
         3         2         1        28     9      180.000000        0.189958         4    ;  uncertainty k = 0.051650
         3         2        24         6     9        0.000000        2.808969         1    ;  uncertainty k = 1.846766
         3         2        24         6     9      180.000000        3.300356         2    ;  uncertainty k = 1.050342
         3         2        24         6     9        0.000000       -0.308802         3    ;  uncertainty k = 0.814077
         3         2        24         6     9      180.000000        0.768890         4    ;  uncertainty k = 0.231649
         3         2        24        25     9        0.000000        0.409972         1    ;  uncertainty k = 2.537848
         3         2        24        25     9      180.000000        7.689628         2    ;  uncertainty k = 0.719308
         3         2        24        25     9        0.000000        0.468453         3    ;  uncertainty k = 0.500936
         3         2        24        25     9      180.000000        0.049724         4    ;  uncertainty k = 0.270589
         3         5         6         7     9        0.000000       -0.314553         1    ;  uncertainty k = 0.899073
         3         5         6         7     9      180.000000        1.056101         2    ;  uncertainty k = 0.497724
         3         5         6         7     9        0.000000        0.714234         3    ;  uncertainty k = 0.291353
         3         5         6         7     9      180.000000        0.470012         4    ;  uncertainty k = 0.235436
         3         5         6        21     9        0.000000       -1.509216         1    ;  uncertainty k = 1.634998
         3         5         6        21     9      180.000000        1.373881         2    ;  uncertainty k = 0.587006
         3         5         6        21     9        0.000000        0.711480         3    ;  uncertainty k = 0.293320
         3         5         6        21     9      180.000000        0.343775         4    ;  uncertainty k = 0.070193
         3         5         6        24     9        0.000000        1.477251         1    ;  uncertainty k = 0.971542
         3         5         6        24     9      180.000000        2.266688         2    ;  uncertainty k = 1.057271
         3         5         6        24     9        0.000000        0.080075         3    ;  uncertainty k = 0.653200
         3         5         6        24     9      180.000000        0.483153         4    ;  uncertainty k = 0.366092
         4         3         2        24     9        0.000000       -0.587142         1    ;  uncertainty k = 0.741509
         4         3         2        24     9      180.000000        6.753547         2    ;  uncertainty k = 1.232536
         4         3         2        24     9        0.000000        0.172561         3    ;  uncertainty k = 0.701804
         4         3         2        24     9      180.000000       -0.071451         4    ;  uncertainty k = 0.465546
         4         3         5         6     9        0.000000        2.305647         1    ;  uncertainty k = 1.493470
         4         3         5         6     9      180.000000       10.718593         2    ;  uncertainty k = 0.864635
         4         3         5         6     9        0.000000        0.411368         3    ;  uncertainty k = 0.519112
         4         3         5         6     9      180.000000       -0.407368         4    ;  uncertainty k = 0.569375
         4         3         5        30     9        0.000000        2.437604         1    ;  uncertainty k = 2.546327
         4         3         5        30     9      180.000000        7.841870         2    ;  uncertainty k = 1.085212
         4         3         5        30     9        0.000000        0.964729         3    ;  uncertainty k = 0.183571
         4         3         5        30     9      180.000000       -0.274989         4    ;  uncertainty k = 0.266490
         5         3         2        24     9        0.000000       -0.138602         1    ;  uncertainty k = 1.579124
         5         3         2        24     9      180.000000        8.478539         2    ;  uncertainty k = 0.785688
         5         3         2        24     9        0.000000       -1.181184         3    ;  uncertainty k = 1.175418
         5         3         2        24     9      180.000000        0.015101         4    ;  uncertainty k = 0.452114
         5         3         4        29     9        0.000000        5.946409         1    ;  uncertainty k = 1.199837
         5         3         4        29     9      180.000000       10.275180         2    ;  uncertainty k = 0.360751
         5         3         4        29     9        0.000000        1.447706         3    ;  uncertainty k = 0.437250
         5         3         4        29     9      180.000000       -0.754945         4    ;  uncertainty k = 0.301542
         5         3         4        44     9        0.000000        5.946409         1    ;  uncertainty k = 1.199837
         5         3         4        44     9      180.000000       10.275183         2    ;  uncertainty k = 0.360751
         5         3         4        44     9        0.000000        1.447707         3    ;  uncertainty k = 0.437249
         5         3         4        44     9      180.000000       -0.754945         4    ;  uncertainty k = 0.301542
         5         6         7         8     9        0.000000       -0.699230         1    ;  uncertainty k = 1.279314
         5         6         7         8     9      180.000000        2.708192         2    ;  uncertainty k = 0.421288
         5         6         7         8     9        0.000000        0.567686         3    ;  uncertainty k = 0.157429
         5         6         7         8     9      180.000000        0.364861         4    ;  uncertainty k = 0.105795
         5         6         7        20     9        0.000000       -0.505530         1    ;  uncertainty k = 1.289979
         5         6         7        20     9      180.000000        2.713661         2    ;  uncertainty k = 0.508959
         5         6         7        20     9        0.000000        0.520364         3    ;  uncertainty k = 0.125491
         5         6         7        20     9      180.000000        0.370856         4    ;  uncertainty k = 0.114367
         5         6        21        22     9        0.000000       -0.552905         1    ;  uncertainty k = 0.547483
         5         6        21        22     9      180.000000       -0.565669         2    ;  uncertainty k = 0.361203
         5         6        21        22     9        0.000000        1.437082         3    ;  uncertainty k = 0.356688
         5         6        21        22     9      180.000000        0.070806         4    ;  uncertainty k = 0.152706
         5         6        21        23     9        0.000000       -0.552905         1    ;  uncertainty k = 0.547484
         5         6        21        23     9      180.000000       -0.565668         2    ;  uncertainty k = 0.361206
         5         6        21        23     9        0.000000        1.437082         3    ;  uncertainty k = 0.356687
         5         6        21        23     9      180.000000        0.070806         4    ;  uncertainty k = 0.152706
         5         6        21        39     9        0.000000       -0.897307         1    ;  uncertainty k = 1.542189
         5         6        21        39     9      180.000000       -0.401230         2    ;  uncertainty k = 0.868617
         5         6        21        39     9        0.000000        1.105592         3    ;  uncertainty k = 0.163286
         5         6        21        39     9      180.000000       -0.134804         4    ;  uncertainty k = 0.174724
         5         6        24        25     9        0.000000       -0.743216         1    ;  uncertainty k = 2.633387
         5         6        24        25     9      180.000000        2.412786         2    ;  uncertainty k = 1.265515
         5         6        24        25     9        0.000000        0.325438         3    ;  uncertainty k = 0.532331
         5         6        24        25     9      180.000000        0.468369         4    ;  uncertainty k = 0.080497
         6         7         8         9     9        0.000000        0.053176         1    ;  uncertainty k = 0.363887
         6         7         8         9     9      180.000000        8.749176         2    ;  uncertainty k = 0.377211
         6         7         8         9     9        0.000000        1.391988         3    ;  uncertainty k = 0.437491
         6         7         8         9     9      180.000000        1.885878         4    ;  uncertainty k = 0.185664
         6         7         8        31     9        0.000000       -0.463183         1    ;  uncertainty k = 0.271774
         6         7         8        31     9      180.000000        7.054817         2    ;  uncertainty k = 0.400628
         6         7         8        31     9        0.000000        0.651904         3    ;  uncertainty k = 0.322985
         6         7         8        31     9      180.000000        1.061026         4    ;  uncertainty k = 0.224002
         6         7        20        11     9        0.000000        0.073767         1    ;  uncertainty k = 0.161271
         6         7        20        11     9      180.000000        8.525239         2    ;  uncertainty k = 0.300568
         6         7        20        11     9        0.000000        1.323725         3    ;  uncertainty k = 0.320625
         6         7        20        11     9      180.000000        1.851528         4    ;  uncertainty k = 0.128755
         6         7        20        38     9        0.000000       -0.389351         1    ;  uncertainty k = 0.262152
         6         7        20        38     9      180.000000        7.122539         2    ;  uncertainty k = 0.413778
         6         7        20        38     9        0.000000        0.598671         3    ;  uncertainty k = 0.395931
         6         7        20        38     9      180.000000        1.113549         4    ;  uncertainty k = 0.242959
         6        21        22        23     9        0.000000       55.691288         1    ;  uncertainty k = 0.394240
         6        21        22        23     9      180.000000       -5.882494         2    ;  uncertainty k = 1.567143
         6        21        22        23     9        0.000000       -9.247568         3    ;  uncertainty k = 0.879305
         6        21        22        23     9      180.000000        6.395578         4    ;  uncertainty k = 0.338961
         6        21        22        40     9        0.000000        0.527764         1    ;  uncertainty k = 2.763918
         6        21        22        40     9      180.000000       -2.372611         2    ;  uncertainty k = 0.936023
         6        21        22        40     9        0.000000        0.376113         3    ;  uncertainty k = 0.345732
         6        21        22        40     9      180.000000       -0.938628         4    ;  uncertainty k = 0.210435
         6        21        22        41     9        0.000000        0.527764         1    ;  uncertainty k = 2.763918
         6        21        22        41     9      180.000000       -2.372611         2    ;  uncertainty k = 0.936023
         6        21        22        41     9        0.000000        0.376113         3    ;  uncertainty k = 0.345732
         6        21        22        41     9      180.000000       -0.938628         4    ;  uncertainty k = 0.210435
         6        21        23        22     9        0.000000       55.691284         1    ;  uncertainty k = 0.394240
         6        21        23        22     9      180.000000       -5.882494         2    ;  uncertainty k = 1.567144
         6        21        23        22     9        0.000000       -9.247569         3    ;  uncertainty k = 0.879304
         6        21        23        22     9      180.000000        6.395578         4    ;  uncertainty k = 0.338962
         6        21        23        42     9        0.000000        0.527765         1    ;  uncertainty k = 2.763916
         6        21        23        42     9      180.000000       -2.372612         2    ;  uncertainty k = 0.936023
         6        21        23        42     9        0.000000        0.376113         3    ;  uncertainty k = 0.345732
         6        21        23        42     9      180.000000       -0.938628         4    ;  uncertainty k = 0.210436
         6        21        23        43     9        0.000000        0.527765         1    ;  uncertainty k = 2.763916
         6        21        23        43     9      180.000000       -2.372612         2    ;  uncertainty k = 0.936023
         6        21        23        43     9        0.000000        0.376113         3    ;  uncertainty k = 0.345732
         6        21        23        43     9      180.000000       -0.938628         4    ;  uncertainty k = 0.210436
         7         6         5        30     9        0.000000        2.855322         1    ;  uncertainty k = 1.115834
         7         6         5        30     9      180.000000        0.428240         2    ;  uncertainty k = 0.917922
         7         6         5        30     9        0.000000        0.644842         3    ;  uncertainty k = 0.382449
         7         6         5        30     9      180.000000        0.075470         4    ;  uncertainty k = 0.107682
         7         6        21        22     9        0.000000        0.124130         1    ;  uncertainty k = 0.346668
         7         6        21        22     9      180.000000        0.919913         2    ;  uncertainty k = 0.325644
         7         6        21        22     9        0.000000        0.930500         3    ;  uncertainty k = 0.096209
         7         6        21        22     9      180.000000        0.154807         4    ;  uncertainty k = 0.118047
         7         6        21        23     9        0.000000        0.124131         1    ;  uncertainty k = 0.346666
         7         6        21        23     9      180.000000        0.919913         2    ;  uncertainty k = 0.325645
         7         6        21        23     9        0.000000        0.930500         3    ;  uncertainty k = 0.096210
         7         6        21        23     9      180.000000        0.154807         4    ;  uncertainty k = 0.118047
         7         6        21        39     9        0.000000       -0.184079         1    ;  uncertainty k = 0.869604
         7         6        21        39     9      180.000000        0.980166         2    ;  uncertainty k = 0.351883
         7         6        21        39     9        0.000000        1.262444         3    ;  uncertainty k = 0.214708
         7         6        21        39     9      180.000000        0.093459         4    ;  uncertainty k = 0.104839
         7         6        24        25     9        0.000000       -0.220821         1    ;  uncertainty k = 1.403176
         7         6        24        25     9      180.000000        3.458790         2    ;  uncertainty k = 0.428271
         7         6        24        25     9        0.000000        0.458758         3    ;  uncertainty k = 0.238474
         7         6        24        25     9      180.000000        0.076056         4    ;  uncertainty k = 0.219098
         7         8         9        10     9        0.000000       -0.026361         1    ;  uncertainty k = 0.203144
         7         8         9        10     9      180.000000       13.191374         2    ;  uncertainty k = 0.274461
         7         8         9        10     9        0.000000       -0.879084         3    ;  uncertainty k = 0.548534
         7         8         9        10     9      180.000000        0.784558         4    ;  uncertainty k = 0.214177
         7         8         9        32     9        0.000000        0.117965         1    ;  uncertainty k = 0.337797
         7         8         9        32     9      180.000000        7.343878         2    ;  uncertainty k = 0.284805
         7         8         9        32     9        0.000000        1.465143         3    ;  uncertainty k = 0.153606
         7         8         9        32     9      180.000000        1.829819         4    ;  uncertainty k = 0.156327
         7        20        11        10     9        0.000000        0.185508         1    ;  uncertainty k = 0.329967
         7        20        11        10     9      180.000000        9.855738         2    ;  uncertainty k = 0.392614
         7        20        11        10     9        0.000000       -0.062059         3    ;  uncertainty k = 0.277922
         7        20        11        10     9      180.000000        1.128402         4    ;  uncertainty k = 0.277379
         7        20        11        12     9        0.000000        0.300725         1    ;  uncertainty k = 0.243569
         7        20        11        12     9      180.000000        8.431617         2    ;  uncertainty k = 0.473381
         7        20        11        12     9        0.000000        1.276786         3    ;  uncertainty k = 0.429162
         7        20        11        12     9      180.000000        1.734629         4    ;  uncertainty k = 0.054074
         8         7         6        21     9        0.000000       -0.343216         1    ;  uncertainty k = 0.834007
         8         7         6        21     9      180.000000        2.474860         2    ;  uncertainty k = 0.084668
         8         7         6        21     9        0.000000        0.269819         3    ;  uncertainty k = 0.246953
         8         7         6        21     9      180.000000        0.270689         4    ;  uncertainty k = 0.042204
         8         7         6        24     9        0.000000        0.361939         1    ;  uncertainty k = 1.306954
         8         7         6        24     9      180.000000        1.033462         2    ;  uncertainty k = 0.267264
         8         7         6        24     9        0.000000        0.431794         3    ;  uncertainty k = 0.174944
         8         7         6        24     9      180.000000        0.282854         4    ;  uncertainty k = 0.174149
         8         7        20        11     9        0.000000       -0.304700         1    ;  uncertainty k = 0.366348
         8         7        20        11     9      180.000000       11.611825         2    ;  uncertainty k = 0.138977
         8         7        20        11     9        0.000000       -0.218005         3    ;  uncertainty k = 0.241972
         8         7        20        11     9      180.000000        0.949214         4    ;  uncertainty k = 0.224341
         8         7        20        38     9        0.000000        0.203549         1    ;  uncertainty k = 0.080868
         8         7        20        38     9      180.000000        7.743696         2    ;  uncertainty k = 0.479798
         8         7        20        38     9        0.000000        1.356309         3    ;  uncertainty k = 0.385795
         8         7        20        38     9      180.000000        1.680978         4    ;  uncertainty k = 0.203224
         8         9        10        11     9        0.000000       -0.065819         1    ;  uncertainty k = 0.249721
         8         9        10        11     9      180.000000       14.089198         2    ;  uncertainty k = 0.215065
         8         9        10        11     9        0.000000       -0.864709         3    ;  uncertainty k = 0.466264
         8         9        10        11     9      180.000000        0.695771         4    ;  uncertainty k = 0.227827
         8         9        10        33     9        0.000000        0.074263         1    ;  uncertainty k = 0.085325
         8         9        10        33     9      180.000000        7.682678         2    ;  uncertainty k = 0.230903
         8         9        10        33     9        0.000000        1.450100         3    ;  uncertainty k = 0.227841
         8         9        10        33     9      180.000000        1.828268         4    ;  uncertainty k = 0.225518
         9         8         7        20     9        0.000000       -0.250363         1    ;  uncertainty k = 0.238908
         9         8         7        20     9      180.000000       12.014205         2    ;  uncertainty k = 0.373696
         9         8         7        20     9        0.000000       -0.570257         3    ;  uncertainty k = 0.158473
         9         8         7        20     9      180.000000        0.829797         4    ;  uncertainty k = 0.277812
         9        10        11        12     9        0.000000        0.000702         1    ;  uncertainty k = 0.269510
         9        10        11        12     9      180.000000        8.870753         2    ;  uncertainty k = 0.543925
         9        10        11        12     9        0.000000        1.177122         3    ;  uncertainty k = 0.427328
         9        10        11        12     9      180.000000        1.755103         4    ;  uncertainty k = 0.155709
         9        10        11        20     9        0.000000        0.096718         1    ;  uncertainty k = 0.170924
         9        10        11        20     9      180.000000       11.100497         2    ;  uncertainty k = 0.230028
         9        10        11        20     9        0.000000       -0.418332         3    ;  uncertainty k = 0.345020
         9        10        11        20     9      180.000000        0.941770         4    ;  uncertainty k = 0.283080
        10         9         8        31     9        0.000000        0.040797         1    ;  uncertainty k = 0.110425
        10         9         8        31     9      180.000000        7.727580         2    ;  uncertainty k = 0.347699
        10         9         8        31     9        0.000000        1.380318         3    ;  uncertainty k = 0.234367
        10         9         8        31     9      180.000000        1.824666         4    ;  uncertainty k = 0.106067
        10        11        12        13     9        0.000000       -0.428510         1    ;  uncertainty k = 0.412280
        10        11        12        13     9      180.000000        3.898682         2    ;  uncertainty k = 0.047215
        10        11        12        13     9        0.000000        0.293083         3    ;  uncertainty k = 0.132237
        10        11        12        13     9      180.000000       -0.085435         4    ;  uncertainty k = 0.062989
        10        11        12        19     9        0.000000       -0.404315         1    ;  uncertainty k = 0.438471
        10        11        12        19     9      180.000000        3.964820         2    ;  uncertainty k = 0.099861
        10        11        12        19     9        0.000000        0.274459         3    ;  uncertainty k = 0.123819
        10        11        12        19     9      180.000000       -0.080645         4    ;  uncertainty k = 0.039419
        10        11        20        38     9        0.000000        0.103153         1    ;  uncertainty k = 0.139706
        10        11        20        38     9      180.000000        7.202695         2    ;  uncertainty k = 0.627617
        10        11        20        38     9        0.000000        1.441109         3    ;  uncertainty k = 0.143432
        10        11        20        38     9      180.000000        1.642346         4    ;  uncertainty k = 0.235012
        11        10         9        32     9        0.000000        0.000933         1    ;  uncertainty k = 0.178682
        11        10         9        32     9      180.000000        7.685604         2    ;  uncertainty k = 0.345800
        11        10         9        32     9        0.000000        1.342203         3    ;  uncertainty k = 0.226341
        11        10         9        32     9      180.000000        1.837352         4    ;  uncertainty k = 0.186924
        11        12        13        14     9        0.000000        0.067925         1    ;  uncertainty k = 0.261828
        11        12        13        14     9      180.000000        8.891404         2    ;  uncertainty k = 0.480096
        11        12        13        14     9        0.000000        1.212092         3    ;  uncertainty k = 0.387861
        11        12        13        14     9      180.000000        1.764984         4    ;  uncertainty k = 0.134681
        11        12        13        34     9        0.000000       -0.193499         1    ;  uncertainty k = 0.303188
        11        12        13        34     9      180.000000        7.211178         2    ;  uncertainty k = 0.458940
        11        12        13        34     9        0.000000        0.820365         3    ;  uncertainty k = 0.112661
        11        12        13        34     9      180.000000        1.178695         4    ;  uncertainty k = 0.209138
        11        12        19        16     9        0.000000        0.019329         1    ;  uncertainty k = 0.160821
        11        12        19        16     9      180.000000        9.053258         2    ;  uncertainty k = 0.427050
        11        12        19        16     9        0.000000        1.157268         3    ;  uncertainty k = 0.302592
        11        12        19        16     9      180.000000        1.747083         4    ;  uncertainty k = 0.099905
        11        12        19        37     9        0.000000       -0.041729         1    ;  uncertainty k = 0.235566
        11        12        19        37     9      180.000000        7.264045         2    ;  uncertainty k = 0.310529
        11        12        19        37     9        0.000000        0.819881         3    ;  uncertainty k = 0.178273
        11        12        19        37     9      180.000000        1.233231         4    ;  uncertainty k = 0.178768
        12        11        10        33     9        0.000000       -0.175949         1    ;  uncertainty k = 0.333819
        12        11        10        33     9      180.000000        7.125053         2    ;  uncertainty k = 0.468559
        12        11        10        33     9        0.000000        0.824102         3    ;  uncertainty k = 0.112951
        12        11        10        33     9      180.000000        1.206537         4    ;  uncertainty k = 0.173192
        12        11        20        38     9        0.000000       -0.113433         1    ;  uncertainty k = 0.251051
        12        11        20        38     9      180.000000        7.300447         2    ;  uncertainty k = 0.351897
        12        11        20        38     9        0.000000        0.821075         3    ;  uncertainty k = 0.176618
        12        11        20        38     9      180.000000        1.272500         4    ;  uncertainty k = 0.157164
        12        13        14        15     9        0.000000       -0.037090         1    ;  uncertainty k = 0.259664
        12        13        14        15     9      180.000000       13.895887         2    ;  uncertainty k = 0.196177
        12        13        14        15     9        0.000000       -0.748323         3    ;  uncertainty k = 0.413938
        12        13        14        15     9      180.000000        0.731826         4    ;  uncertainty k = 0.223727
        12        13        14        35     9        0.000000        0.035703         1    ;  uncertainty k = 0.170333
        12        13        14        35     9      180.000000        7.818760         2    ;  uncertainty k = 0.362416
        12        13        14        35     9        0.000000        1.374397         3    ;  uncertainty k = 0.193147
        12        13        14        35     9      180.000000        1.850847         4    ;  uncertainty k = 0.139767
        12        19        16        15     9        0.000000        0.029635         1    ;  uncertainty k = 0.159518
        12        19        16        15     9      180.000000       11.105999         2    ;  uncertainty k = 0.385819
        12        19        16        15     9        0.000000       -0.425578         3    ;  uncertainty k = 0.379793
        12        19        16        15     9      180.000000        1.040773         4    ;  uncertainty k = 0.279972
        12        19        16        17     9        0.000000        0.048910         1    ;  uncertainty k = 0.156392
        12        19        16        17     9      180.000000       10.400489         2    ;  uncertainty k = 0.434886
        12        19        16        17     9        0.000000        1.283789         3    ;  uncertainty k = 0.274188
        12        19        16        17     9      180.000000        1.608995         4    ;  uncertainty k = 0.204513
        13        12        11        20     9        0.000000       -0.214147         1    ;  uncertainty k = 0.441758
        13        12        11        20     9      180.000000        4.147247         2    ;  uncertainty k = 0.106061
        13        12        11        20     9        0.000000        0.272193         3    ;  uncertainty k = 0.148926
        13        12        11        20     9      180.000000       -0.009896         4    ;  uncertainty k = 0.050628
        13        12        19        16     9        0.000000       -0.107495         1    ;  uncertainty k = 0.255487
        13        12        19        16     9      180.000000       11.461050         2    ;  uncertainty k = 0.328585
        13        12        19        16     9        0.000000       -0.085359         3    ;  uncertainty k = 0.217263
        13        12        19        16     9      180.000000        0.940019         4    ;  uncertainty k = 0.307140
        13        12        19        37     9        0.000000        0.225846         1    ;  uncertainty k = 0.122895
        13        12        19        37     9      180.000000        7.182060         2    ;  uncertainty k = 0.493877
        13        12        19        37     9        0.000000        1.445975         3    ;  uncertainty k = 0.172659
        13        12        19        37     9      180.000000        1.618149         4    ;  uncertainty k = 0.190352
        13        14        15        16     9        0.000000       -0.118232         1    ;  uncertainty k = 0.080708
        13        14        15        16     9      180.000000       14.432470         2    ;  uncertainty k = 0.232005
        13        14        15        16     9        0.000000       -0.887710         3    ;  uncertainty k = 0.444864
        13        14        15        16     9      180.000000        0.694612         4    ;  uncertainty k = 0.218509
        13        14        15        36     9        0.000000        0.074329         1    ;  uncertainty k = 0.106507
        13        14        15        36     9      180.000000        7.620013         2    ;  uncertainty k = 0.341960
        13        14        15        36     9        0.000000        1.390685         3    ;  uncertainty k = 0.232068
        13        14        15        36     9      180.000000        1.768919         4    ;  uncertainty k = 0.074814
        14        13        12        19     9        0.000000        0.137658         1    ;  uncertainty k = 0.172098
        14        13        12        19     9      180.000000       10.915440         2    ;  uncertainty k = 0.304928
        14        13        12        19     9        0.000000       -0.327900         3    ;  uncertainty k = 0.365009
        14        13        12        19     9      180.000000        0.921010         4    ;  uncertainty k = 0.311490
        14        15        16        17     9        0.000000        0.205266         1    ;  uncertainty k = 0.145894
        14        15        16        17     9      180.000000       10.135447         2    ;  uncertainty k = 0.449308
        14        15        16        17     9        0.000000        1.279557         3    ;  uncertainty k = 0.271078
        14        15        16        17     9      180.000000        1.604121         4    ;  uncertainty k = 0.171232
        14        15        16        19     9        0.000000       -0.038620         1    ;  uncertainty k = 0.177577
        14        15        16        19     9      180.000000       11.670271         2    ;  uncertainty k = 0.401477
        14        15        16        19     9        0.000000       -0.842818         3    ;  uncertainty k = 0.431098
        14        15        16        19     9      180.000000        0.822557         4    ;  uncertainty k = 0.319343
        15        14        13        34     9        0.000000        0.059942         1    ;  uncertainty k = 0.107636
        15        14        13        34     9      180.000000        7.705001         2    ;  uncertainty k = 0.290377
        15        14        13        34     9        0.000000        1.462635         3    ;  uncertainty k = 0.233581
        15        14        13        34     9      180.000000        1.836014         4    ;  uncertainty k = 0.153458
        15        16        17        18     9        0.000000        0.000000         1    ;  uncertainty k = 0.000000
        15        16        17        18     9      180.000000        0.000000         2    ;  uncertainty k = 0.000000
        15        16        17        18     9        0.000000        0.000000         3    ;  uncertainty k = 0.000000
        15        16        17        18     9      180.000000        0.000000         4    ;  uncertainty k = 0.000000
        15        16        19        37     9        0.000000        0.135336         1    ;  uncertainty k = 0.317372
        15        16        19        37     9      180.000000        6.954131         2    ;  uncertainty k = 0.580350
        15        16        19        37     9        0.000000        1.368927         3    ;  uncertainty k = 0.256092
        15        16        19        37     9      180.000000        1.627988         4    ;  uncertainty k = 0.115587
        16        15        14        35     9        0.000000        0.047460         1    ;  uncertainty k = 0.159694
        16        15        14        35     9      180.000000        8.220190         2    ;  uncertainty k = 0.495382
        16        15        14        35     9        0.000000        1.361851         3    ;  uncertainty k = 0.304383
        16        15        14        35     9      180.000000        1.739669         4    ;  uncertainty k = 0.148003
        17        16        15        36     9        0.000000       -0.350138         1    ;  uncertainty k = 0.499493
        17        16        15        36     9      180.000000        7.201575         2    ;  uncertainty k = 0.176635
        17        16        15        36     9        0.000000        0.564813         3    ;  uncertainty k = 0.079540
        17        16        15        36     9      180.000000        1.014542         4    ;  uncertainty k = 0.166619
        17        16        19        37     9        0.000000       -0.296229         1    ;  uncertainty k = 0.353986
        17        16        19        37     9      180.000000        7.556319         2    ;  uncertainty k = 0.177250
        17        16        19        37     9        0.000000        0.549370         3    ;  uncertainty k = 0.111239
        17        16        19        37     9      180.000000        1.062792         4    ;  uncertainty k = 0.196885
        18        17        16        19     9        0.000000        0.000000         1    ;  uncertainty k = 0.000000
        18        17        16        19     9      180.000000        0.000000         2    ;  uncertainty k = 0.000000
        18        17        16        19     9        0.000000        0.000000         3    ;  uncertainty k = 0.000000
        18        17        16        19     9      180.000000        0.000000         4    ;  uncertainty k = 0.000000
        19        12        11        20     9        0.000000       -0.214205         1    ;  uncertainty k = 0.496446
        19        12        11        20     9      180.000000        4.183920         2    ;  uncertainty k = 0.147857
        19        12        11        20     9        0.000000        0.267741         3    ;  uncertainty k = 0.153764
        19        12        11        20     9      180.000000       -0.013155         4    ;  uncertainty k = 0.037336
        19        12        13        34     9        0.000000        0.195799         1    ;  uncertainty k = 0.116881
        19        12        13        34     9      180.000000        6.941324         2    ;  uncertainty k = 0.545262
        19        12        13        34     9        0.000000        1.443697         3    ;  uncertainty k = 0.220713
        19        12        13        34     9      180.000000        1.585966         4    ;  uncertainty k = 0.231782
        19        16        15        36     9        0.000000        0.167219         1    ;  uncertainty k = 0.425129
        19        16        15        36     9      180.000000        6.721267         2    ;  uncertainty k = 0.550699
        19        16        15        36     9        0.000000        1.383697         3    ;  uncertainty k = 0.308354
        19        16        15        36     9      180.000000        1.611639         4    ;  uncertainty k = 0.106816
        20         7         6        21     9        0.000000       -0.355781         1    ;  uncertainty k = 0.716873
        20         7         6        21     9      180.000000        2.462922         2    ;  uncertainty k = 0.101266
        20         7         6        21     9        0.000000        0.226051         3    ;  uncertainty k = 0.280368
        20         7         6        21     9      180.000000        0.265061         4    ;  uncertainty k = 0.063887
        20         7         6        24     9        0.000000        0.341175         1    ;  uncertainty k = 1.329542
        20         7         6        24     9      180.000000        1.023039         2    ;  uncertainty k = 0.223059
        20         7         6        24     9        0.000000        0.381934         3    ;  uncertainty k = 0.179112
        20         7         6        24     9      180.000000        0.295828         4    ;  uncertainty k = 0.170278
        20         7         8        31     9        0.000000        0.229204         1    ;  uncertainty k = 0.123366
        20         7         8        31     9      180.000000        7.598118         2    ;  uncertainty k = 0.529930
        20         7         8        31     9        0.000000        1.337990         3    ;  uncertainty k = 0.379266
        20         7         8        31     9      180.000000        1.665111         4    ;  uncertainty k = 0.220573
        20        11        10        33     9        0.000000        0.200738         1    ;  uncertainty k = 0.172787
        20        11        10        33     9      180.000000        6.984644         2    ;  uncertainty k = 0.433609
        20        11        10        33     9        0.000000        1.426774         3    ;  uncertainty k = 0.253376
        20        11        10        33     9      180.000000        1.612774         4    ;  uncertainty k = 0.249746
        21         6         5        30     9        0.000000        1.374579         1    ;  uncertainty k = 0.505482
        21         6         5        30     9      180.000000        0.095266         2    ;  uncertainty k = 1.462891
        21         6         5        30     9        0.000000        0.636442         3    ;  uncertainty k = 0.171229
        21         6         5        30     9      180.000000        0.200691         4    ;  uncertainty k = 0.082495
        21         6        24        25     9        0.000000       -1.254500         1    ;  uncertainty k = 1.170686
        21         6        24        25     9      180.000000        3.913986         2    ;  uncertainty k = 0.980993
        21         6        24        25     9        0.000000        0.126175         3    ;  uncertainty k = 0.285228
        21         6        24        25     9      180.000000        0.109298         4    ;  uncertainty k = 0.165375
        21        22        23        42     9        0.000000       41.997791         1    ;  uncertainty k = 0.538440
        21        22        23        42     9      180.000000       -5.283547         2    ;  uncertainty k = 0.594256
        21        22        23        42     9        0.000000       -9.661773         3    ;  uncertainty k = 1.020602
        21        22        23        42     9      180.000000        4.456144         4    ;  uncertainty k = 0.290761
        21        22        23        43     9        0.000000       41.997791         1    ;  uncertainty k = 0.538440
        21        22        23        43     9      180.000000       -5.283547         2    ;  uncertainty k = 0.594256
        21        22        23        43     9        0.000000       -9.661773         3    ;  uncertainty k = 1.020602
        21        22        23        43     9      180.000000        4.456144         4    ;  uncertainty k = 0.290761
        21        23        22        40     9        0.000000       41.997791         1    ;  uncertainty k = 0.538440
        21        23        22        40     9      180.000000       -5.283545         2    ;  uncertainty k = 0.594252
        21        23        22        40     9        0.000000       -9.661772         3    ;  uncertainty k = 1.020600
        21        23        22        40     9      180.000000        4.456145         4    ;  uncertainty k = 0.290761
        21        23        22        41     9        0.000000       41.997791         1    ;  uncertainty k = 0.538440
        21        23        22        41     9      180.000000       -5.283545         2    ;  uncertainty k = 0.594252
        21        23        22        41     9        0.000000       -9.661772         3    ;  uncertainty k = 1.020600
        21        23        22        41     9      180.000000        4.456145         4    ;  uncertainty k = 0.290761
        22        21         6        24     9        0.000000       -0.233084         1    ;  uncertainty k = 0.557740
        22        21         6        24     9      180.000000        0.228841         2    ;  uncertainty k = 0.476467
        22        21         6        24     9        0.000000        0.500882         3    ;  uncertainty k = 0.312867
        22        21         6        24     9      180.000000       -0.034480         4    ;  uncertainty k = 0.127418
        22        21        23        42     9        0.000000       43.224167         1    ;  uncertainty k = 0.407746
        22        21        23        42     9      180.000000       -4.588788         2    ;  uncertainty k = 1.542579
        22        21        23        42     9        0.000000      -10.120757         3    ;  uncertainty k = 0.969732
        22        21        23        42     9      180.000000        4.930649         4    ;  uncertainty k = 0.129616
        22        21        23        43     9        0.000000       43.224167         1    ;  uncertainty k = 0.407746
        22        21        23        43     9      180.000000       -4.588788         2    ;  uncertainty k = 1.542579
        22        21        23        43     9        0.000000      -10.120757         3    ;  uncertainty k = 0.969732
        22        21        23        43     9      180.000000        4.930649         4    ;  uncertainty k = 0.129616
        22        23        21        39     9        0.000000       44.612979         1    ;  uncertainty k = 0.353265
        22        23        21        39     9      180.000000       -1.996068         2    ;  uncertainty k = 1.950395
        22        23        21        39     9        0.000000      -10.253676         3    ;  uncertainty k = 1.215939
        22        23        21        39     9      180.000000        5.302241         4    ;  uncertainty k = 0.482223
        23        21         6        24     9        0.000000       -0.233084         1    ;  uncertainty k = 0.557742
        23        21         6        24     9      180.000000        0.228841         2    ;  uncertainty k = 0.476467
        23        21         6        24     9        0.000000        0.500882         3    ;  uncertainty k = 0.312867
        23        21         6        24     9      180.000000       -0.034480         4    ;  uncertainty k = 0.127419
        23        21        22        40     9        0.000000       43.224171         1    ;  uncertainty k = 0.407745
        23        21        22        40     9      180.000000       -4.588787         2    ;  uncertainty k = 1.542581
        23        21        22        40     9        0.000000      -10.120761         3    ;  uncertainty k = 0.969737
        23        21        22        40     9      180.000000        4.930649         4    ;  uncertainty k = 0.129617
        23        21        22        41     9        0.000000       43.224171         1    ;  uncertainty k = 0.407745
        23        21        22        41     9      180.000000       -4.588787         2    ;  uncertainty k = 1.542581
        23        21        22        41     9        0.000000      -10.120761         3    ;  uncertainty k = 0.969737
        23        21        22        41     9      180.000000        4.930649         4    ;  uncertainty k = 0.129617
        23        22        21        39     9        0.000000       44.612967         1    ;  uncertainty k = 0.353264
        23        22        21        39     9      180.000000       -1.996069         2    ;  uncertainty k = 1.950393
        23        22        21        39     9        0.000000      -10.253674         3    ;  uncertainty k = 1.215938
        23        22        21        39     9      180.000000        5.302239         4    ;  uncertainty k = 0.482223
        24         2         1        26     9        0.000000        0.266640         1    ;  uncertainty k = 0.441704
        24         2         1        26     9      180.000000        0.068445         2    ;  uncertainty k = 0.239612
        24         2         1        26     9        0.000000        0.368367         3    ;  uncertainty k = 0.211351
        24         2         1        26     9      180.000000        0.305973         4    ;  uncertainty k = 0.064879
        24         2         1        27     9        0.000000        0.266640         1    ;  uncertainty k = 0.441704
        24         2         1        27     9      180.000000        0.068445         2    ;  uncertainty k = 0.239612
        24         2         1        27     9        0.000000        0.368367         3    ;  uncertainty k = 0.211351
        24         2         1        27     9      180.000000        0.305973         4    ;  uncertainty k = 0.064879
        24         2         1        28     9        0.000000        0.266640         1    ;  uncertainty k = 0.441704
        24         2         1        28     9      180.000000        0.068445         2    ;  uncertainty k = 0.239612
        24         2         1        28     9        0.000000        0.368367         3    ;  uncertainty k = 0.211351
        24         2         1        28     9      180.000000        0.305973         4    ;  uncertainty k = 0.064879
        24         6         5        30     9        0.000000        0.152252         1    ;  uncertainty k = 2.647374
        24         6         5        30     9      180.000000       -0.088867         2    ;  uncertainty k = 1.682948
        24         6         5        30     9        0.000000        0.340119         3    ;  uncertainty k = 0.403308
        24         6         5        30     9      180.000000        0.010664         4    ;  uncertainty k = 0.098531
        24         6        21        39     9        0.000000        0.743880         1    ;  uncertainty k = 1.366606
        24         6        21        39     9      180.000000       -0.499522         2    ;  uncertainty k = 0.309601
        24         6        21        39     9        0.000000        0.507012         3    ;  uncertainty k = 0.234143
        24         6        21        39     9      180.000000        0.046601         4    ;  uncertainty k = 0.093966
        31         8         9        32     9        0.000000       -0.102801         1    ;  uncertainty k = 0.340793
        31         8         9        32     9      180.000000        7.837232         2    ;  uncertainty k = 0.295465
        31         8         9        32     9        0.000000       -0.503661         3    ;  uncertainty k = 0.314921
        31         8         9        32     9      180.000000        0.124006         4    ;  uncertainty k = 0.179406
        32         9        10        33     9        0.000000       -0.100647         1    ;  uncertainty k = 0.195903
        32         9        10        33     9      180.000000        7.941174         2    ;  uncertainty k = 0.291930
        32         9        10        33     9        0.000000       -0.502787         3    ;  uncertainty k = 0.279639
        32         9        10        33     9      180.000000        0.115633         4    ;  uncertainty k = 0.148086
        34        13        14        35     9        0.000000       -0.096118         1    ;  uncertainty k = 0.199372
        34        13        14        35     9      180.000000        8.023023         2    ;  uncertainty k = 0.281902
        34        13        14        35     9        0.000000       -0.473768         3    ;  uncertainty k = 0.263659
        34        13        14        35     9      180.000000        0.140136         4    ;  uncertainty k = 0.159744
        35        14        15        36     9        0.000000       -0.151977         1    ;  uncertainty k = 0.142792
        35        14        15        36     9      180.000000        7.890277         2    ;  uncertainty k = 0.508855
        35        14        15        36     9        0.000000       -0.398328         3    ;  uncertainty k = 0.256910
        35        14        15        36     9      180.000000        0.095286         4    ;  uncertainty k = 0.176550
        39        21        22        40     9        0.000000        1.112909         1    ;  uncertainty k = 1.312835
        39        21        22        40     9      180.000000       -1.597059         2    ;  uncertainty k = 0.788589
        39        21        22        40     9        0.000000        0.801310         3    ;  uncertainty k = 0.273126
        39        21        22        40     9      180.000000       -0.760755         4    ;  uncertainty k = 0.075359
        39        21        22        41     9        0.000000        1.112909         1    ;  uncertainty k = 1.312835
        39        21        22        41     9      180.000000       -1.597059         2    ;  uncertainty k = 0.788589
        39        21        22        41     9        0.000000        0.801310         3    ;  uncertainty k = 0.273126
        39        21        22        41     9      180.000000       -0.760755         4    ;  uncertainty k = 0.075359
        39        21        23        42     9        0.000000        1.112909         1    ;  uncertainty k = 1.312836
        39        21        23        42     9      180.000000       -1.597059         2    ;  uncertainty k = 0.788587
        39        21        23        42     9        0.000000        0.801310         3    ;  uncertainty k = 0.273126
        39        21        23        42     9      180.000000       -0.760755         4    ;  uncertainty k = 0.075360
        39        21        23        43     9        0.000000        1.112909         1    ;  uncertainty k = 1.312836
        39        21        23        43     9      180.000000       -1.597059         2    ;  uncertainty k = 0.788587
        39        21        23        43     9        0.000000        0.801310         3    ;  uncertainty k = 0.273126
        39        21        23        43     9      180.000000       -0.760755         4    ;  uncertainty k = 0.075360
        40        22        23        42     9        0.000000        0.219095         1    ;  uncertainty k = 0.548229
        40        22        23        42     9      180.000000       -1.119394         2    ;  uncertainty k = 0.862492
        40        22        23        42     9        0.000000        0.928974         3    ;  uncertainty k = 0.329710
        40        22        23        42     9      180.000000       -0.633440         4    ;  uncertainty k = 0.121162
        40        22        23        43     9        0.000000        0.219095         1    ;  uncertainty k = 0.548229
        40        22        23        43     9      180.000000       -1.119394         2    ;  uncertainty k = 0.862492
        40        22        23        43     9        0.000000        0.928974         3    ;  uncertainty k = 0.329710
        40        22        23        43     9      180.000000       -0.633440         4    ;  uncertainty k = 0.121162
        41        22        23        42     9        0.000000        0.219095         1    ;  uncertainty k = 0.548229
        41        22        23        42     9      180.000000       -1.119394         2    ;  uncertainty k = 0.862492
        41        22        23        42     9        0.000000        0.928974         3    ;  uncertainty k = 0.329710
        41        22        23        42     9      180.000000       -0.633440         4    ;  uncertainty k = 0.121162
        41        22        23        43     9        0.000000        0.219095         1    ;  uncertainty k = 0.548229
        41        22        23        43     9      180.000000       -1.119394         2    ;  uncertainty k = 0.862492
        41        22        23        43     9        0.000000        0.928974         3    ;  uncertainty k = 0.329710
        41        22        23        43     9      180.000000       -0.633440         4    ;  uncertainty k = 0.121162

[ dihedrals ] ; impropers
;       ai        aj        ak        al funct           phase               k        pn
         2         1         3        24     4      180.000000        1.740991         2    ;  uncertainty k = 0.618485
         2         3        24         1     4      180.000000        1.740991         2    ;  uncertainty k = 0.618485
         2        24         1         3     4      180.000000        1.740991         2    ;  uncertainty k = 0.618485
         3         2         4         5     4      180.000000       30.611205         2    ;  uncertainty k = 0.136445
         3         4         5         2     4      180.000000       30.611205         2    ;  uncertainty k = 0.136445
         3         5         2         4     4      180.000000       30.611205         2    ;  uncertainty k = 0.136445
         4         3        29        44     4      180.000000        0.046825         2    ;  uncertainty k = 0.104703
         4        29        44         3     4      180.000000        0.046825         2    ;  uncertainty k = 0.104703
         4        44         3        29     4      180.000000        0.046825         2    ;  uncertainty k = 0.104703
         7         6         8        20     4      180.000000       10.985690         2    ;  uncertainty k = 0.196695
         7         8        20         6     4      180.000000       10.985690         2    ;  uncertainty k = 0.196695
         7        20         6         8     4      180.000000       10.985690         2    ;  uncertainty k = 0.196695
         8         7         9        31     4      180.000000        3.735097         2    ;  uncertainty k = 0.215510
         8         9        31         7     4      180.000000        3.735097         2    ;  uncertainty k = 0.215510
         8        31         7         9     4      180.000000        3.735097         2    ;  uncertainty k = 0.215510
         9         8        10        32     4      180.000000        3.964523         2    ;  uncertainty k = 0.115661
         9        10        32         8     4      180.000000        3.964523         2    ;  uncertainty k = 0.115661
         9        32         8        10     4      180.000000        3.964523         2    ;  uncertainty k = 0.115661
        10         9        11        33     4      180.000000        4.341259         2    ;  uncertainty k = 0.104329
        10        11        33         9     4      180.000000        4.341259         2    ;  uncertainty k = 0.104329
        10        33         9        11     4      180.000000        4.341259         2    ;  uncertainty k = 0.104329
        11        10        12        20     4      180.000000       15.217710         2    ;  uncertainty k = 0.043886
        11        12        20        10     4      180.000000       15.217710         2    ;  uncertainty k = 0.043886
        11        20        10        12     4      180.000000       15.217710         2    ;  uncertainty k = 0.043886
        12        11        13        19     4      180.000000       14.788283         2    ;  uncertainty k = 0.070364
        12        13        19        11     4      180.000000       14.788283         2    ;  uncertainty k = 0.070364
        12        19        11        13     4      180.000000       14.788283         2    ;  uncertainty k = 0.070364
        13        12        14        34     4      180.000000        5.069665         2    ;  uncertainty k = 0.141089
        13        14        34        12     4      180.000000        5.069665         2    ;  uncertainty k = 0.141089
        13        34        12        14     4      180.000000        5.069665         2    ;  uncertainty k = 0.141089
        14        13        15        35     4      180.000000        3.956550         2    ;  uncertainty k = 0.184308
        14        15        35        13     4      180.000000        3.956550         2    ;  uncertainty k = 0.184308
        14        35        13        15     4      180.000000        3.956550         2    ;  uncertainty k = 0.184308
        15        14        16        36     4      180.000000        4.556464         2    ;  uncertainty k = 0.226111
        15        16        36        14     4      180.000000        4.556464         2    ;  uncertainty k = 0.226111
        15        36        14        16     4      180.000000        4.556464         2    ;  uncertainty k = 0.226111
        16        15        17        19     4      180.000000       10.422456         2    ;  uncertainty k = 0.176795
        16        17        19        15     4      180.000000       10.422456         2    ;  uncertainty k = 0.176795
        16        19        15        17     4      180.000000       10.422456         2    ;  uncertainty k = 0.176795
        19        12        16        37     4      180.000000        4.604994         2    ;  uncertainty k = 0.185043
        19        16        37        12     4      180.000000        4.604994         2    ;  uncertainty k = 0.185043
        19        37        12        16     4      180.000000        4.604994         2    ;  uncertainty k = 0.185043
        20         7        11        38     4      180.000000        4.157044         2    ;  uncertainty k = 0.258036
        20        11        38         7     4      180.000000        4.157044         2    ;  uncertainty k = 0.258036
        20        38         7        11     4      180.000000        4.157044         2    ;  uncertainty k = 0.258036
        24         2         6        25     4      180.000000       50.502762         2    ;  uncertainty k = 0.034923
        24         6        25         2     4      180.000000       50.502762         2    ;  uncertainty k = 0.034923
        24        25         2         6     4      180.000000       50.502762         2    ;  uncertainty k = 0.034923

[ pairs ]
;       ai        aj funct
         1         4     1
         1         5     1
         1         6     1
         1        25     1
         2         7     1
         2        21     1
         2        29     1
         2        30     1
         2        44     1
         3         7     1
         3        21     1
         3        25     1
         3        26     1
         3        27     1
         3        28     1
         4         6     1
         4        24     1
         4        30     1
         5         8     1
         5        20     1
         5        22     1
         5        23     1
         5        25     1
         5        29     1
         5        39     1
         5        44     1
         6         9     1
         6        11     1
         6        31     1
         6        38     1
         6        40     1
         6        41     1
         6        42     1
         6        43     1
         7        10     1
         7        12     1
         7        22     1
         7        23     1
         7        25     1
         7        30     1
         7        32     1
         7        39     1
         8        11     1
         8        21     1
         8        24     1
         8        33     1
         8        38     1
         9        12     1
         9        20     1
        10        13     1
        10        19     1
        10        31     1
        10        38     1
        11        14     1
        11        16     1
        11        32     1
        11        34     1
        11        37     1
        12        15     1
        12        17     1
        12        33     1
        12        35     1
        12        38     1
        13        16     1
        13        20     1
        13        36     1
        13        37     1
        14        17     1
        14        19     1
        15        18     1
        15        34     1
        15        37     1
        16        35     1
        17        36     1
        17        37     1
        18        19     1
        19        20     1
        19        34     1
        19        36     1
        20        21     1
        20        24     1
        20        31     1
        20        33     1
        21        25     1
        21        30     1
        22        24     1
        23        24     1
        24        26     1
        24        27     1
        24        28     1
        24        30     1
        24        39     1
        31        32     1
        32        33     1
        34        35     1
        35        36     1
        39        40     1
        39        41     1
        39        42     1
        39        43     1
        40        42     1
        40        43     1
        41        42     1
        41        43     1
