; ITP file created by ByteFF-joint-25, 2026-02-18 03:16:17.552536

[ atomtypes ]
;name           bonded.type        at.num        mass        charge   ptype           sigma         epsilon
 c0bf                                   6      0.0000       0.00000       A     3.39779e-01     4.50909e-01    ;  uncertainty sigma = 0.000003, epsilon = 0.000616
 c1bf                                   6      0.0000       0.00000       A     3.31511e-01     4.13127e-01    ;  uncertainty sigma = 0.000010, epsilon = 0.000519
 c2bf                                   6      0.0000       0.00000       A     3.31516e-01     4.13325e-01    ;  uncertainty sigma = 0.000005, epsilon = 0.000502
 n3bf                                   7      0.0000       0.00000       A     3.38409e-01     3.93645e-01    ;  uncertainty sigma = 0.000008, epsilon = 0.001117
 c4bf                                   6      0.0000       0.00000       A     3.31518e-01     4.13337e-01    ;  uncertainty sigma = 0.000004, epsilon = 0.000656
 c5bf                                   6      0.0000       0.00000       A     3.31496e-01     4.12971e-01    ;  uncertainty sigma = 0.000009, epsilon = 0.000925
 c6bf                                   6      0.0000       0.00000       A     3.31513e-01     4.13512e-01    ;  uncertainty sigma = 0.000009, epsilon = 0.000773
 c7bf                                   6      0.0000       0.00000       A     3.31511e-01     4.13225e-01    ;  uncertainty sigma = 0.000005, epsilon = 0.000664
 c8bf                                   6      0.0000       0.00000       A     3.31522e-01     4.13323e-01    ;  uncertainty sigma = 0.000003, epsilon = 0.000652
 c9bf                                   6      0.0000       0.00000       A     3.31507e-01     4.13144e-01    ;  uncertainty sigma = 0.000003, epsilon = 0.000558
 c10bf                                  6      0.0000       0.00000       A     3.31515e-01     4.13825e-01    ;  uncertainty sigma = 0.000024, epsilon = 0.000893
 c11bf                                  6      0.0000       0.00000       A     3.39803e-01     4.52408e-01    ;  uncertainty sigma = 0.000048, epsilon = 0.001848
 c12bf                                  6      0.0000       0.00000       A     3.39764e-01     4.49715e-01    ;  uncertainty sigma = 0.000040, epsilon = 0.002019
 c13bf                                  6      0.0000       0.00000       A     3.39735e-01     4.50626e-01    ;  uncertainty sigma = 0.000020, epsilon = 0.000685
 c14bf                                  6      0.0000       0.00000       A     3.39735e-01     4.50626e-01    ;  uncertainty sigma = 0.000020, epsilon = 0.000685
 n15bf                                  7      0.0000       0.00000       A     3.27439e-01     6.56945e-01    ;  uncertainty sigma = 0.000124, epsilon = 0.011786
 c16bf                                  6      0.0000       0.00000       A     3.31517e-01     4.12248e-01    ;  uncertainty sigma = 0.000058, epsilon = 0.001403
 n17bf                                  7      0.0000       0.00000       A     3.36546e-01     4.71601e-01    ;  uncertainty sigma = 0.000088, epsilon = 0.005519
 n18bf                                  7      0.0000       0.00000       A     3.18110e-01     6.83692e-01    ;  uncertainty sigma = 0.000074, epsilon = 0.006737
 c19bf                                  6      0.0000       0.00000       A     3.39733e-01     4.51254e-01    ;  uncertainty sigma = 0.000013, epsilon = 0.001262
 c20bf                                  6      0.0000       0.00000       A     3.31558e-01     4.13924e-01    ;  uncertainty sigma = 0.000016, epsilon = 0.000459
 o21bf                                  8      0.0000       0.00000       A     3.04808e-01     6.12161e-01    ;  uncertainty sigma = 0.000055, epsilon = 0.001789
 c22bf                                  6      0.0000       0.00000       A     3.31517e-01     4.13236e-01    ;  uncertainty sigma = 0.000017, epsilon = 0.000949
 c23bf                                  6      0.0000       0.00000       A     3.31523e-01     4.13192e-01    ;  uncertainty sigma = 0.000005, epsilon = 0.000759
 h24bf                                  1      0.0000       0.00000       A     2.60042e-01     8.66989e-02    ;  uncertainty sigma = 0.000004, epsilon = 0.000403
 h25bf                                  1      0.0000       0.00000       A     2.60042e-01     8.66989e-02    ;  uncertainty sigma = 0.000004, epsilon = 0.000403
 h26bf                                  1      0.0000       0.00000       A     2.60042e-01     8.66989e-02    ;  uncertainty sigma = 0.000004, epsilon = 0.000403
 h27bf                                  1      0.0000       0.00000       A     2.53662e-01     6.69863e-02    ;  uncertainty sigma = 0.000034, epsilon = 0.000536
 h28bf                                  1      0.0000       0.00000       A     2.53644e-01     6.67556e-02    ;  uncertainty sigma = 0.000027, epsilon = 0.000598
 h29bf                                  1      0.0000       0.00000       A     2.62562e-01     6.70409e-02    ;  uncertainty sigma = 0.000012, epsilon = 0.000506
 h30bf                                  1      0.0000       0.00000       A     2.62564e-01     6.70136e-02    ;  uncertainty sigma = 0.000010, epsilon = 0.000418
 h31bf                                  1      0.0000       0.00000       A     2.62559e-01     6.70864e-02    ;  uncertainty sigma = 0.000006, epsilon = 0.000392
 h32bf                                  1      0.0000       0.00000       A     2.59937e-01     8.72287e-02    ;  uncertainty sigma = 0.000071, epsilon = 0.001228
 h33bf                                  1      0.0000       0.00000       A     2.60065e-01     8.61959e-02    ;  uncertainty sigma = 0.000029, epsilon = 0.000649
 h34bf                                  1      0.0000       0.00000       A     2.60065e-01     8.61960e-02    ;  uncertainty sigma = 0.000029, epsilon = 0.000649
 h35bf                                  1      0.0000       0.00000       A     2.60065e-01     8.61960e-02    ;  uncertainty sigma = 0.000029, epsilon = 0.000649
 h36bf                                  1      0.0000       0.00000       A     2.60065e-01     8.61960e-02    ;  uncertainty sigma = 0.000029, epsilon = 0.000649
 h37bf                                  1      0.0000       0.00000       A     1.10560e-01     4.03483e-02    ;  uncertainty sigma = 0.000072, epsilon = 0.001763
 h38bf                                  1      0.0000       0.00000       A     1.10696e-01     4.12785e-02    ;  uncertainty sigma = 0.000128, epsilon = 0.001560
 h39bf                                  1      0.0000       0.00000       A     2.42208e-01     8.66970e-02    ;  uncertainty sigma = 0.000028, epsilon = 0.000664
 h40bf                                  1      0.0000       0.00000       A     2.42208e-01     8.66970e-02    ;  uncertainty sigma = 0.000028, epsilon = 0.000664
 h41bf                                  1      0.0000       0.00000       A     2.42208e-01     8.66970e-02    ;  uncertainty sigma = 0.000028, epsilon = 0.000664
 h42bf                                  1      0.0000       0.00000       A     2.62550e-01     6.72383e-02    ;  uncertainty sigma = 0.000015, epsilon = 0.000625
 h43bf                                  1      0.0000       0.00000       A     2.62561e-01     6.71125e-02    ;  uncertainty sigma = 0.000015, epsilon = 0.000710
 h44bf                                  1      0.0000       0.00000       A     1.10696e-01     4.12785e-02    ;  uncertainty sigma = 0.000128, epsilon = 0.001560

[ moleculetype ]
;name             nrexcl
 MOL                   3

[ atoms ]
;       nr            type      resi   res      atom      cgnr      charge          mass ; qtot
         1            c0bf         1   UNL        c0         1    -0.04373       12.0110 ; qtot   -0.044
         2            c1bf         1   UNL        c1         2    -0.19174       12.0110 ; qtot   -0.235
         3            c2bf         1   UNL        c2         3     0.39598       12.0110 ; qtot    0.161
         4            n3bf         1   UNL        n3         4    -0.65872       14.0070 ; qtot   -0.498
         5            c4bf         1   UNL        c4         5     0.39845       12.0110 ; qtot   -0.100
         6            c5bf         1   UNL        c5         6    -0.15557       12.0110 ; qtot   -0.255
         7            c6bf         1   UNL        c6         7    -0.01238       12.0110 ; qtot   -0.268
         8            c7bf         1   UNL        c7         8    -0.09633       12.0110 ; qtot   -0.364
         9            c8bf         1   UNL        c8         9    -0.11133       12.0110 ; qtot   -0.475
        10            c9bf         1   UNL        c9        10    -0.09631       12.0110 ; qtot   -0.572
        11           c10bf         1   UNL       c10        11    -0.12595       12.0110 ; qtot   -0.698
        12           c11bf         1   UNL       c11        12     0.08654       12.0110 ; qtot   -0.611
        13           c12bf         1   UNL       c12        13    -0.18780       12.0110 ; qtot   -0.799
        14           c13bf         1   UNL       c13        14    -0.09798       12.0110 ; qtot   -0.897
        15           c14bf         1   UNL       c14        15    -0.09798       12.0110 ; qtot   -0.995
        16           n15bf         1   UNL       n15        16    -0.37866       14.0070 ; qtot   -1.374
        17           c16bf         1   UNL       c16        17     0.46059       12.0110 ; qtot   -0.913
        18           n17bf         1   UNL       n17        18    -0.48161       14.0070 ; qtot   -1.395
        19           n18bf         1   UNL       n18        19    -0.42319       14.0070 ; qtot   -1.818
        20           c19bf         1   UNL       c19        20     0.07468       12.0110 ; qtot   -1.743
        21           c20bf         1   UNL       c20        21     0.71197       12.0110 ; qtot   -1.031
        22           o21bf         1   UNL       o21        22    -0.45487       15.9990 ; qtot   -1.486
        23           c22bf         1   UNL       c22        23    -0.08232       12.0110 ; qtot   -1.568
        24           c23bf         1   UNL       c23        24    -0.08803       12.0110 ; qtot   -1.656
        25           h24bf         1   UNL       h24        25     0.04719        1.0080 ; qtot   -1.609
        26           h25bf         1   UNL       h25        26     0.04719        1.0080 ; qtot   -1.562
        27           h26bf         1   UNL       h26        27     0.04719        1.0080 ; qtot   -1.515
        28           h27bf         1   UNL       h27        28     0.02049        1.0080 ; qtot   -1.494
        29           h28bf         1   UNL       h28        29     0.02436        1.0080 ; qtot   -1.470
        30           h29bf         1   UNL       h29        30     0.13705        1.0080 ; qtot   -1.333
        31           h30bf         1   UNL       h30        31     0.14635        1.0080 ; qtot   -1.186
        32           h31bf         1   UNL       h31        32     0.14428        1.0080 ; qtot   -1.042
        33           h32bf         1   UNL       h32        33     0.11275        1.0080 ; qtot   -0.929
        34           h33bf         1   UNL       h33        34     0.08766        1.0080 ; qtot   -0.842
        35           h34bf         1   UNL       h34        35     0.08766        1.0080 ; qtot   -0.754
        36           h35bf         1   UNL       h35        36     0.08766        1.0080 ; qtot   -0.666
        37           h36bf         1   UNL       h36        37     0.08766        1.0080 ; qtot   -0.579
        38           h37bf         1   UNL       h37        38     0.35109        1.0080 ; qtot   -0.228
        39           h38bf         1   UNL       h38        39     0.33562        1.0080 ; qtot    0.108
        40           h39bf         1   UNL       h39        40     0.09037        1.0080 ; qtot    0.198
        41           h40bf         1   UNL       h40        41     0.09037        1.0080 ; qtot    0.289
        42           h41bf         1   UNL       h41        42     0.09037        1.0080 ; qtot    0.379
        43           h42bf         1   UNL       h42        43     0.14653        1.0080 ; qtot    0.526
        44           h43bf         1   UNL       h43        44     0.13882        1.0080 ; qtot    0.664
        45           h44bf         1   UNL       h44        45     0.33563        1.0080 ; qtot    1.000

[ bonds ]
;       ai        aj funct               r               k
         1         2     1        0.150960   253979.755420    ;  uncertainty r = 0.000011, k = 6.543335
         1        25     1        0.109506   307768.747656    ;  uncertainty r = 0.000013, k = 0.813500
         1        26     1        0.109506   307768.747656    ;  uncertainty r = 0.000013, k = 0.813500
         1        27     1        0.109506   307768.747656    ;  uncertainty r = 0.000013, k = 0.813500
         2         3     1        0.140132   337419.936426    ;  uncertainty r = 0.000011, k = 10.520545
         2        24     1        0.139760   365362.232910    ;  uncertainty r = 0.000052, k = 2.825234
         3         4     1        0.133877   390539.549951    ;  uncertainty r = 0.000055, k = 5.173647
         3        28     1        0.109104   335772.665186    ;  uncertainty r = 0.000027, k = 2.720321
         4         5     1        0.133526   388679.248145    ;  uncertainty r = 0.000055, k = 5.324736
         5         6     1        0.140270   331243.097021    ;  uncertainty r = 0.000051, k = 7.726296
         5        29     1        0.109037   335337.972510    ;  uncertainty r = 0.000024, k = 2.530874
         6         7     1        0.147780   272350.258105    ;  uncertainty r = 0.000031, k = 2.422360
         6        24     1        0.139959   359090.114551    ;  uncertainty r = 0.000034, k = 1.795104
         7         8     1        0.140141   349236.671973    ;  uncertainty r = 0.000020, k = 2.428201
         7        23     1        0.139882   340137.187012    ;  uncertainty r = 0.000061, k = 2.332143
         8         9     1        0.139318   370848.753174    ;  uncertainty r = 0.000027, k = 2.020901
         8        30     1        0.108829   334964.696582    ;  uncertainty r = 0.000027, k = 0.785423
         9        10     1        0.139473   369549.476123    ;  uncertainty r = 0.000015, k = 1.353381
         9        31     1        0.108773   333044.305957    ;  uncertainty r = 0.000024, k = 1.073346
        10        11     1        0.139716   351668.009082    ;  uncertainty r = 0.000036, k = 6.008956
        10        32     1        0.108792   333228.173145    ;  uncertainty r = 0.000023, k = 2.570387
        11        12     1        0.150890   206477.092944    ;  uncertainty r = 0.000131, k = 15.740344
        11        23     1        0.139493   344820.309814    ;  uncertainty r = 0.000039, k = 8.051525
        12        13     1        0.151162   204155.948462    ;  uncertainty r = 0.000209, k = 15.151154
        12        16     1        0.149852   225534.965234    ;  uncertainty r = 0.000257, k = 72.040348
        12        21     1        0.153376   180115.607373    ;  uncertainty r = 0.000390, k = 26.443661
        13        14     1        0.151152   209331.439502    ;  uncertainty r = 0.000138, k = 6.033770
        13        15     1        0.151152   209331.439502    ;  uncertainty r = 0.000138, k = 6.033770
        13        33     1        0.108719   310203.430127    ;  uncertainty r = 0.000077, k = 4.479993
        14        15     1        0.150777   217596.218506    ;  uncertainty r = 0.000077, k = 4.692805
        14        34     1        0.108641   313244.057129    ;  uncertainty r = 0.000029, k = 3.058990
        14        35     1        0.108641   313244.057129    ;  uncertainty r = 0.000029, k = 3.059011
        15        36     1        0.108641   313244.057129    ;  uncertainty r = 0.000029, k = 3.059011
        15        37     1        0.108641   313244.057129    ;  uncertainty r = 0.000029, k = 3.059011
        16        17     1        0.133481   527501.324121    ;  uncertainty r = 0.000076, k = 54.235084
        16        38     1        0.101512   426891.242090    ;  uncertainty r = 0.000059, k = 5.031864
        17        18     1        0.133098   316435.455225    ;  uncertainty r = 0.000215, k = 41.951554
        17        19     1        0.135503   283548.050732    ;  uncertainty r = 0.000225, k = 42.568955
        18        39     1        0.101395   420938.439746    ;  uncertainty r = 0.000072, k = 12.186642
        18        45     1        0.101395   420938.439746    ;  uncertainty r = 0.000072, k = 12.186642
        19        20     1        0.146656   261100.676221    ;  uncertainty r = 0.000124, k = 11.833539
        19        21     1        0.142785   299314.151318    ;  uncertainty r = 0.000374, k = 69.452458
        20        40     1        0.109173   309392.626904    ;  uncertainty r = 0.000044, k = 3.074421
        20        41     1        0.109173   309392.626904    ;  uncertainty r = 0.000044, k = 3.074421
        20        42     1        0.109173   309392.626904    ;  uncertainty r = 0.000044, k = 3.074421
        21        22     1        0.120161   629558.083398    ;  uncertainty r = 0.000190, k = 11.702452
        23        43     1        0.108838   333785.469482    ;  uncertainty r = 0.000018, k = 2.036246
        24        44     1        0.108867   333128.016602    ;  uncertainty r = 0.000026, k = 1.214494

[ angles ]
;       ai        aj        ak funct           theta             cth
         1         2         3     1      120.961792      407.900769    ;  uncertainty theta = 0.002986, k = 0.104555
         1         2        24     1      121.749634      423.720657    ;  uncertainty theta = 0.003201, k = 0.057334
         2         1        25     1      109.835434      395.939282    ;  uncertainty theta = 0.000455, k = 0.042890
         2         1        26     1      109.835434      395.939282    ;  uncertainty theta = 0.000455, k = 0.042890
         2         1        27     1      109.835434      395.939282    ;  uncertainty theta = 0.000455, k = 0.042890
         2         3         4     1      124.222496      709.869458    ;  uncertainty theta = 0.000901, k = 0.068212
         2         3        28     1      119.564163      265.932221    ;  uncertainty theta = 0.001511, k = 0.055641
         2        24         6     1      120.709373      541.107343    ;  uncertainty theta = 0.002359, k = 0.175797
         2        24        44     1      119.480759      282.099190    ;  uncertainty theta = 0.001995, k = 0.104522
         3         2        24     1      117.228477      411.828951    ;  uncertainty theta = 0.002857, k = 0.108942
         3         4         5     1      117.495102      396.707822    ;  uncertainty theta = 0.002283, k = 0.127109
         4         3        28     1      115.911331      339.340238    ;  uncertainty theta = 0.001508, k = 0.104897
         4         5         6     1      124.086594      711.774845    ;  uncertainty theta = 0.001884, k = 0.079604
         4         5        29     1      116.452370      343.933087    ;  uncertainty theta = 0.001709, k = 0.081544
         5         6         7     1      120.985596      397.567656    ;  uncertainty theta = 0.003439, k = 0.085575
         5         6        24     1      118.007462      394.672291    ;  uncertainty theta = 0.002494, k = 0.206164
         6         5        29     1      119.275841      263.893641    ;  uncertainty theta = 0.002413, k = 0.088167
         6         7         8     1      121.258728      412.206549    ;  uncertainty theta = 0.002317, k = 0.148521
         6         7        23     1      120.293076      418.103163    ;  uncertainty theta = 0.002152, k = 0.150004
         6        24        44     1      119.231979      276.258151    ;  uncertainty theta = 0.002022, k = 0.052151
         7         6        24     1      121.992615      399.468862    ;  uncertainty theta = 0.003637, k = 0.072949
         7         8         9     1      119.800003      533.141808    ;  uncertainty theta = 0.002425, k = 0.079058
         7         8        30     1      118.908104      279.024267    ;  uncertainty theta = 0.000786, k = 0.085285
         7        23        11     1      122.378555      516.710880    ;  uncertainty theta = 0.002970, k = 0.175610
         7        23        43     1      118.772354      282.727499    ;  uncertainty theta = 0.001745, k = 0.060501
         8         7        23     1      120.222000      404.497151    ;  uncertainty theta = 0.004116, k = 0.249166
         8         9        10     1      120.327454      510.960594    ;  uncertainty theta = 0.002446, k = 0.080635
         8         9        31     1      120.348373      284.404074    ;  uncertainty theta = 0.000706, k = 0.050357
         9         8        30     1      120.250809      294.370346    ;  uncertainty theta = 0.001086, k = 0.018858
         9        10        11     1      120.327293      515.387068    ;  uncertainty theta = 0.004364, k = 0.037328
         9        10        32     1      120.276512      299.592748    ;  uncertainty theta = 0.003027, k = 0.031167
        10         9        31     1      119.840698      282.071674    ;  uncertainty theta = 0.001962, k = 0.039638
        10        11        12     1      117.054367      373.464998    ;  uncertainty theta = 0.006930, k = 0.229722
        10        11        23     1      123.165138      435.334168    ;  uncertainty theta = 0.006601, k = 0.143023
        11        10        32     1      118.569679      271.156124    ;  uncertainty theta = 0.003481, k = 0.042645
        11        12        13     1      112.572487      532.892725    ;  uncertainty theta = 0.006618, k = 0.274850
        11        12        16     1      110.559860      619.554278    ;  uncertainty theta = 0.004317, k = 0.200006
        11        12        21     1      109.418724      482.975497    ;  uncertainty theta = 0.008208, k = 0.137213
        11        23        43     1      118.203896      271.918215    ;  uncertainty theta = 0.003337, k = 0.070604
        12        11        23     1      116.524132      376.094522    ;  uncertainty theta = 0.006500, k = 0.184769
        12        13        14     1      112.597801      318.680333    ;  uncertainty theta = 0.010889, k = 0.113929
        12        13        15     1      112.597801      318.680333    ;  uncertainty theta = 0.010889, k = 0.113929
        12        13        33     1      112.493546      265.775375    ;  uncertainty theta = 0.006435, k = 0.172589
        12        16        17     1      111.925354      603.092866    ;  uncertainty theta = 0.017251, k = 0.409410
        12        16        38     1      117.676224      299.217736    ;  uncertainty theta = 0.008967, k = 0.364636
        12        21        19     1      109.881653      478.461334    ;  uncertainty theta = 0.004913, k = 0.638722
        12        21        22     1      125.898621      417.809039    ;  uncertainty theta = 0.008673, k = 0.151128
        13        12        16     1      110.212158      624.961187    ;  uncertainty theta = 0.003788, k = 0.136123
        13        12        21     1      107.883629      486.446341    ;  uncertainty theta = 0.005882, k = 0.311861
        13        14        15     1       59.234894      167.360000    ;  uncertainty theta = 0.035765, k = 0.000000
        13        14        34     1      109.220169      219.322320    ;  uncertainty theta = 0.004633, k = 0.103843
        13        14        35     1      109.220169      219.322320    ;  uncertainty theta = 0.004633, k = 0.103843
        13        15        14     1       59.234894      167.360000    ;  uncertainty theta = 0.035765, k = 0.000000
        13        15        36     1      109.220169      219.322320    ;  uncertainty theta = 0.004633, k = 0.103843
        13        15        37     1      109.220169      219.322320    ;  uncertainty theta = 0.004633, k = 0.103843
        14        13        15     1       60.483162      167.360000    ;  uncertainty theta = 0.027862, k = 0.000000
        14        13        33     1      109.113136      190.376309    ;  uncertainty theta = 0.005107, k = 0.517015
        14        15        36     1      109.860123      223.014140    ;  uncertainty theta = 0.003076, k = 0.167688
        14        15        37     1      109.860123      223.014140    ;  uncertainty theta = 0.003076, k = 0.167688
        15        13        33     1      109.113136      190.376309    ;  uncertainty theta = 0.005107, k = 0.517015
        15        14        34     1      109.860123      223.014140    ;  uncertainty theta = 0.003076, k = 0.167688
        15        14        35     1      109.860123      223.014140    ;  uncertainty theta = 0.003076, k = 0.167688
        16        12        21     1      102.739685      943.303728    ;  uncertainty theta = 0.008074, k = 0.565001
        16        17        18     1      128.705078      646.711270    ;  uncertainty theta = 0.008044, k = 0.328474
        16        17        19     1      113.162231      705.430278    ;  uncertainty theta = 0.009464, k = 0.270719
        17        16        38     1      119.250565      354.164657    ;  uncertainty theta = 0.008486, k = 0.158432
        17        18        39     1      114.818558      368.234583    ;  uncertainty theta = 0.004127, k = 0.182929
        17        18        45     1      114.818558      368.234583    ;  uncertainty theta = 0.004127, k = 0.182929
        17        19        20     1      118.614197      373.008810    ;  uncertainty theta = 0.007384, k = 0.436302
        17        19        21     1      110.403465      715.219291    ;  uncertainty theta = 0.010415, k = 0.265126
        18        17        19     1      125.894371      534.489050    ;  uncertainty theta = 0.010836, k = 0.297060
        19        20        40     1      107.393509      471.159859    ;  uncertainty theta = 0.002493, k = 0.223269
        19        20        41     1      107.393509      471.159859    ;  uncertainty theta = 0.002493, k = 0.223269
        19        20        42     1      107.393509      471.159859    ;  uncertainty theta = 0.002493, k = 0.223269
        19        21        22     1      125.231102      649.265684    ;  uncertainty theta = 0.010191, k = 0.111304
        20        19        21     1      119.198463      398.913845    ;  uncertainty theta = 0.009079, k = 0.285860
        25         1        26     1      106.716354      316.774658    ;  uncertainty theta = 0.000879, k = 0.013804
        25         1        27     1      106.716354      316.774658    ;  uncertainty theta = 0.000879, k = 0.013804
        26         1        27     1      106.716354      316.774658    ;  uncertainty theta = 0.000879, k = 0.013804
        34        14        35     1      113.833069      202.191516    ;  uncertainty theta = 0.004153, k = 0.109118
        36        15        37     1      113.833054      202.191500    ;  uncertainty theta = 0.004153, k = 0.109119
        39        18        45     1      112.405228      264.736110    ;  uncertainty theta = 0.015790, k = 0.355762
        40        20        41     1      107.626610      325.638397    ;  uncertainty theta = 0.003338, k = 0.102136
        40        20        42     1      107.626610      325.638397    ;  uncertainty theta = 0.003338, k = 0.102136
        41        20        42     1      107.626610      325.638397    ;  uncertainty theta = 0.003338, k = 0.102136

[ dihedrals ] ; propers for gromacs 4.5 or higher, use funct 9
;       ai        aj        ak        al funct           phase               k        pn
         1         2         3         4     9        0.000000        0.248407         1    ;  uncertainty k = 0.537789
         1         2         3         4     9      180.000000       10.154861         2    ;  uncertainty k = 0.293577
         1         2         3         4     9        0.000000        1.246051         3    ;  uncertainty k = 0.346914
         1         2         3         4     9      180.000000        1.645778         4    ;  uncertainty k = 0.065298
         1         2         3        28     9        0.000000       -0.418410         1    ;  uncertainty k = 0.434448
         1         2         3        28     9      180.000000        6.768603         2    ;  uncertainty k = 0.313694
         1         2         3        28     9        0.000000        0.457735         3    ;  uncertainty k = 0.292847
         1         2         3        28     9      180.000000        0.928001         4    ;  uncertainty k = 0.224478
         1         2        24         6     9        0.000000        0.307821         1    ;  uncertainty k = 0.122831
         1         2        24         6     9      180.000000       10.115626         2    ;  uncertainty k = 0.483139
         1         2        24         6     9        0.000000        1.351246         3    ;  uncertainty k = 0.304580
         1         2        24         6     9      180.000000        1.797889         4    ;  uncertainty k = 0.221574
         1         2        24        44     9        0.000000       -0.311346         1    ;  uncertainty k = 0.264561
         1         2        24        44     9      180.000000        8.394331         2    ;  uncertainty k = 0.154177
         1         2        24        44     9        0.000000        0.523556         3    ;  uncertainty k = 0.287976
         1         2        24        44     9      180.000000        0.993300         4    ;  uncertainty k = 0.170864
         2         3         4         5     9        0.000000       -0.230349         1    ;  uncertainty k = 0.372733
         2         3         4         5     9      180.000000       15.482776         2    ;  uncertainty k = 0.377699
         2         3         4         5     9        0.000000        0.936731         3    ;  uncertainty k = 0.680516
         2         3         4         5     9      180.000000        1.345322         4    ;  uncertainty k = 0.150038
         2        24         6         5     9        0.000000        0.030991         1    ;  uncertainty k = 0.067917
         2        24         6         5     9      180.000000       10.546389         2    ;  uncertainty k = 0.387241
         2        24         6         5     9        0.000000       -0.434415         3    ;  uncertainty k = 0.292544
         2        24         6         5     9      180.000000        1.004730         4    ;  uncertainty k = 0.248038
         2        24         6         7     9        0.000000        0.118139         1    ;  uncertainty k = 0.126331
         2        24         6         7     9      180.000000        8.966755         2    ;  uncertainty k = 0.457818
         2        24         6         7     9        0.000000        1.287096         3    ;  uncertainty k = 0.341568
         2        24         6         7     9      180.000000        1.770413         4    ;  uncertainty k = 0.055284
         3         2         1        25     9        0.000000        0.014706         1    ;  uncertainty k = 0.222969
         3         2         1        25     9      180.000000        1.114523         2    ;  uncertainty k = 0.107507
         3         2         1        25     9        0.000000        0.202009         3    ;  uncertainty k = 0.032230
         3         2         1        25     9      180.000000        0.178657         4    ;  uncertainty k = 0.023878
         3         2         1        26     9        0.000000        0.014706         1    ;  uncertainty k = 0.222969
         3         2         1        26     9      180.000000        1.114523         2    ;  uncertainty k = 0.107507
         3         2         1        26     9        0.000000        0.202009         3    ;  uncertainty k = 0.032230
         3         2         1        26     9      180.000000        0.178657         4    ;  uncertainty k = 0.023878
         3         2         1        27     9        0.000000        0.014706         1    ;  uncertainty k = 0.222969
         3         2         1        27     9      180.000000        1.114523         2    ;  uncertainty k = 0.107507
         3         2         1        27     9        0.000000        0.202009         3    ;  uncertainty k = 0.032230
         3         2         1        27     9      180.000000        0.178657         4    ;  uncertainty k = 0.023878
         3         2        24         6     9        0.000000       -0.033944         1    ;  uncertainty k = 0.235795
         3         2        24         6     9      180.000000       11.190000         2    ;  uncertainty k = 0.504871
         3         2        24         6     9        0.000000       -0.402741         3    ;  uncertainty k = 0.420989
         3         2        24         6     9      180.000000        1.002936         4    ;  uncertainty k = 0.413629
         3         2        24        44     9        0.000000        0.001472         1    ;  uncertainty k = 0.281662
         3         2        24        44     9      180.000000        7.145724         2    ;  uncertainty k = 0.448448
         3         2        24        44     9        0.000000        1.376178         3    ;  uncertainty k = 0.318405
         3         2        24        44     9      180.000000        1.633953         4    ;  uncertainty k = 0.112186
         3         4         5         6     9        0.000000       -0.313749         1    ;  uncertainty k = 0.589674
         3         4         5         6     9      180.000000       14.652705         2    ;  uncertainty k = 0.350163
         3         4         5         6     9        0.000000        0.839305         3    ;  uncertainty k = 0.783651
         3         4         5         6     9      180.000000        1.411675         4    ;  uncertainty k = 0.168341
         3         4         5        29     9        0.000000        0.399681         1    ;  uncertainty k = 0.261960
         3         4         5        29     9      180.000000       15.331773         2    ;  uncertainty k = 0.428340
         3         4         5        29     9        0.000000        2.201534         3    ;  uncertainty k = 0.415772
         3         4         5        29     9      180.000000        1.639367         4    ;  uncertainty k = 0.303929
         4         3         2        24     9        0.000000       -0.229466         1    ;  uncertainty k = 0.214572
         4         3         2        24     9      180.000000       12.516262         2    ;  uncertainty k = 0.342224
         4         3         2        24     9        0.000000       -0.618028         3    ;  uncertainty k = 0.481570
         4         3         2        24     9      180.000000        1.017667         4    ;  uncertainty k = 0.176747
         4         5         6         7     9        0.000000        0.149973         1    ;  uncertainty k = 0.231951
         4         5         6         7     9      180.000000        9.578158         2    ;  uncertainty k = 0.254077
         4         5         6         7     9        0.000000        1.028514         3    ;  uncertainty k = 0.283085
         4         5         6         7     9      180.000000        1.713283         4    ;  uncertainty k = 0.167255
         4         5         6        24     9        0.000000       -0.213859         1    ;  uncertainty k = 0.302887
         4         5         6        24     9      180.000000       12.414465         2    ;  uncertainty k = 0.472333
         4         5         6        24     9        0.000000       -0.480683         3    ;  uncertainty k = 0.477382
         4         5         6        24     9      180.000000        1.049676         4    ;  uncertainty k = 0.211543
         5         4         3        28     9        0.000000        0.393773         1    ;  uncertainty k = 0.244218
         5         4         3        28     9      180.000000       15.226499         2    ;  uncertainty k = 0.511574
         5         4         3        28     9        0.000000        2.170275         3    ;  uncertainty k = 0.535238
         5         4         3        28     9      180.000000        1.526266         4    ;  uncertainty k = 0.355324
         5         6         7         8     9        0.000000       -0.255487         1    ;  uncertainty k = 0.759028
         5         6         7         8     9      180.000000        3.322953         2    ;  uncertainty k = 0.053241
         5         6         7         8     9        0.000000        0.326159         3    ;  uncertainty k = 0.224085
         5         6         7         8     9      180.000000       -0.175687         4    ;  uncertainty k = 0.056858
         5         6         7        23     9        0.000000       -0.192936         1    ;  uncertainty k = 0.632657
         5         6         7        23     9      180.000000        3.496460         2    ;  uncertainty k = 0.088174
         5         6         7        23     9        0.000000        0.350171         3    ;  uncertainty k = 0.235990
         5         6         7        23     9      180.000000       -0.134555         4    ;  uncertainty k = 0.043477
         5         6        24        44     9        0.000000        0.083594         1    ;  uncertainty k = 0.340174
         5         6        24        44     9      180.000000        6.864928         2    ;  uncertainty k = 0.561086
         5         6        24        44     9        0.000000        1.294681         3    ;  uncertainty k = 0.258654
         5         6        24        44     9      180.000000        1.470902         4    ;  uncertainty k = 0.202289
         6         7         8         9     9        0.000000       -0.059211         1    ;  uncertainty k = 0.211063
         6         7         8         9     9      180.000000        8.939712         2    ;  uncertainty k = 0.532464
         6         7         8         9     9        0.000000        1.156317         3    ;  uncertainty k = 0.420906
         6         7         8         9     9      180.000000        1.724603         4    ;  uncertainty k = 0.193676
         6         7         8        30     9        0.000000       -0.141670         1    ;  uncertainty k = 0.246928
         6         7         8        30     9      180.000000        7.098570         2    ;  uncertainty k = 0.410526
         6         7         8        30     9        0.000000        0.902402         3    ;  uncertainty k = 0.122940
         6         7         8        30     9      180.000000        1.209253         4    ;  uncertainty k = 0.196126
         6         7        23        11     9        0.000000        0.266862         1    ;  uncertainty k = 0.127015
         6         7        23        11     9      180.000000        8.575274         2    ;  uncertainty k = 0.377101
         6         7        23        11     9        0.000000        1.231953         3    ;  uncertainty k = 0.375297
         6         7        23        11     9      180.000000        1.703760         4    ;  uncertainty k = 0.059696
         6         7        23        43     9        0.000000       -0.124953         1    ;  uncertainty k = 0.211453
         6         7        23        43     9      180.000000        7.335669         2    ;  uncertainty k = 0.255155
         6         7        23        43     9        0.000000        0.879930         3    ;  uncertainty k = 0.170785
         6         7        23        43     9      180.000000        1.274390         4    ;  uncertainty k = 0.196441
         7         6         5        29     9        0.000000       -0.504740         1    ;  uncertainty k = 0.765556
         7         6         5        29     9      180.000000        6.046526         2    ;  uncertainty k = 0.798626
         7         6         5        29     9        0.000000        0.814847         3    ;  uncertainty k = 0.174177
         7         6         5        29     9      180.000000        1.113719         4    ;  uncertainty k = 0.198313
         7         6        24        44     9        0.000000       -0.176178         1    ;  uncertainty k = 0.372770
         7         6        24        44     9      180.000000        7.212770         2    ;  uncertainty k = 0.397524
         7         6        24        44     9        0.000000        0.861544         3    ;  uncertainty k = 0.210225
         7         6        24        44     9      180.000000        1.160204         4    ;  uncertainty k = 0.214139
         7         8         9        10     9        0.000000       -0.086005         1    ;  uncertainty k = 0.251438
         7         8         9        10     9      180.000000       14.052002         2    ;  uncertainty k = 0.223012
         7         8         9        10     9        0.000000       -0.852148         3    ;  uncertainty k = 0.495388
         7         8         9        10     9      180.000000        0.690708         4    ;  uncertainty k = 0.248186
         7         8         9        31     9        0.000000        0.015239         1    ;  uncertainty k = 0.191615
         7         8         9        31     9      180.000000        7.688729         2    ;  uncertainty k = 0.310927
         7         8         9        31     9        0.000000        1.358993         3    ;  uncertainty k = 0.244492
         7         8         9        31     9      180.000000        1.832321         4    ;  uncertainty k = 0.171659
         7        23        11        10     9        0.000000       -0.310909         1    ;  uncertainty k = 0.382630
         7        23        11        10     9      180.000000       11.566050         2    ;  uncertainty k = 0.143922
         7        23        11        10     9        0.000000       -0.219962         3    ;  uncertainty k = 0.279177
         7        23        11        10     9      180.000000        0.945323         4    ;  uncertainty k = 0.249764
         7        23        11        12     9        0.000000        0.078773         1    ;  uncertainty k = 0.191661
         7        23        11        12     9      180.000000        8.488564         2    ;  uncertainty k = 0.286981
         7        23        11        12     9        0.000000        1.340600         3    ;  uncertainty k = 0.281356
         7        23        11        12     9      180.000000        1.869200         4    ;  uncertainty k = 0.128844
         8         7         6        24     9        0.000000       -0.470860         1    ;  uncertainty k = 0.482088
         8         7         6        24     9      180.000000        3.672899         2    ;  uncertainty k = 0.116168
         8         7         6        24     9        0.000000        0.303687         3    ;  uncertainty k = 0.197222
         8         7         6        24     9      180.000000       -0.122432         4    ;  uncertainty k = 0.065440
         8         7        23        11     9        0.000000        0.122096         1    ;  uncertainty k = 0.275955
         8         7        23        11     9      180.000000        9.976249         2    ;  uncertainty k = 0.318335
         8         7        23        11     9        0.000000       -0.121750         3    ;  uncertainty k = 0.292896
         8         7        23        11     9      180.000000        1.096443         4    ;  uncertainty k = 0.283490
         8         7        23        43     9        0.000000        0.071480         1    ;  uncertainty k = 0.165888
         8         7        23        43     9      180.000000        7.207519         2    ;  uncertainty k = 0.658424
         8         7        23        43     9        0.000000        1.430032         3    ;  uncertainty k = 0.160964
         8         7        23        43     9      180.000000        1.637452         4    ;  uncertainty k = 0.239730
         8         9        10        11     9        0.000000       -0.023668         1    ;  uncertainty k = 0.193558
         8         9        10        11     9      180.000000       13.182196         2    ;  uncertainty k = 0.274289
         8         9        10        11     9        0.000000       -0.877258         3    ;  uncertainty k = 0.549227
         8         9        10        11     9      180.000000        0.785751         4    ;  uncertainty k = 0.209022
         8         9        10        32     9        0.000000        0.043717         1    ;  uncertainty k = 0.124640
         8         9        10        32     9      180.000000        7.717288         2    ;  uncertainty k = 0.341608
         8         9        10        32     9        0.000000        1.388023         3    ;  uncertainty k = 0.233632
         8         9        10        32     9      180.000000        1.825533         4    ;  uncertainty k = 0.105979
         9         8         7        23     9        0.000000        0.066957         1    ;  uncertainty k = 0.098874
         9         8         7        23     9      180.000000       11.165156         2    ;  uncertainty k = 0.252285
         9         8         7        23     9        0.000000       -0.461463         3    ;  uncertainty k = 0.328354
         9         8         7        23     9      180.000000        0.911467         4    ;  uncertainty k = 0.269631
         9        10        11        12     9        0.000000        0.053176         1    ;  uncertainty k = 0.363886
         9        10        11        12     9      180.000000        8.749177         2    ;  uncertainty k = 0.377210
         9        10        11        12     9        0.000000        1.391988         3    ;  uncertainty k = 0.437491
         9        10        11        12     9      180.000000        1.885877         4    ;  uncertainty k = 0.185664
         9        10        11        23     9        0.000000       -0.254151         1    ;  uncertainty k = 0.241611
         9        10        11        23     9      180.000000       11.999558         2    ;  uncertainty k = 0.363798
         9        10        11        23     9        0.000000       -0.565308         3    ;  uncertainty k = 0.162798
         9        10        11        23     9      180.000000        0.833725         4    ;  uncertainty k = 0.272522
        10         9         8        30     9        0.000000        0.070628         1    ;  uncertainty k = 0.076364
        10         9         8        30     9      180.000000        7.708402         2    ;  uncertainty k = 0.246031
        10         9         8        30     9        0.000000        1.456289         3    ;  uncertainty k = 0.228039
        10         9         8        30     9      180.000000        1.826304         4    ;  uncertainty k = 0.220310
        10        11        12        13     9        0.000000       -0.343212         1    ;  uncertainty k = 0.834010
        10        11        12        13     9      180.000000        2.474859         2    ;  uncertainty k = 0.084668
        10        11        12        13     9        0.000000        0.269819         3    ;  uncertainty k = 0.246953
        10        11        12        13     9      180.000000        0.270690         4    ;  uncertainty k = 0.042204
        10        11        12        16     9        0.000000       -0.699230         1    ;  uncertainty k = 1.279313
        10        11        12        16     9      180.000000        2.708192         2    ;  uncertainty k = 0.421289
        10        11        12        16     9        0.000000        0.567685         3    ;  uncertainty k = 0.157429
        10        11        12        16     9      180.000000        0.364861         4    ;  uncertainty k = 0.105794
        10        11        12        21     9        0.000000        0.361938         1    ;  uncertainty k = 1.306954
        10        11        12        21     9      180.000000        1.033461         2    ;  uncertainty k = 0.267264
        10        11        12        21     9        0.000000        0.431795         3    ;  uncertainty k = 0.174944
        10        11        12        21     9      180.000000        0.282854         4    ;  uncertainty k = 0.174149
        10        11        23        43     9        0.000000        0.212920         1    ;  uncertainty k = 0.067097
        10        11        23        43     9      180.000000        7.776098         2    ;  uncertainty k = 0.484697
        10        11        23        43     9        0.000000        1.354100         3    ;  uncertainty k = 0.380604
        10        11        23        43     9      180.000000        1.681009         4    ;  uncertainty k = 0.204532
        11        10         9        31     9        0.000000        0.117967         1    ;  uncertainty k = 0.337797
        11        10         9        31     9      180.000000        7.343877         2    ;  uncertainty k = 0.284805
        11        10         9        31     9        0.000000        1.465143         3    ;  uncertainty k = 0.153606
        11        10         9        31     9      180.000000        1.829819         4    ;  uncertainty k = 0.156327
        11        12        13        14     9        0.000000        0.124131         1    ;  uncertainty k = 0.346666
        11        12        13        14     9      180.000000        0.919915         2    ;  uncertainty k = 0.325647
        11        12        13        14     9        0.000000        0.930500         3    ;  uncertainty k = 0.096210
        11        12        13        14     9      180.000000        0.154807         4    ;  uncertainty k = 0.118047
        11        12        13        15     9        0.000000        0.124131         1    ;  uncertainty k = 0.346666
        11        12        13        15     9      180.000000        0.919915         2    ;  uncertainty k = 0.325647
        11        12        13        15     9        0.000000        0.930500         3    ;  uncertainty k = 0.096210
        11        12        13        15     9      180.000000        0.154807         4    ;  uncertainty k = 0.118047
        11        12        13        33     9        0.000000       -0.184080         1    ;  uncertainty k = 0.869603
        11        12        13        33     9      180.000000        0.980165         2    ;  uncertainty k = 0.351885
        11        12        13        33     9        0.000000        1.262443         3    ;  uncertainty k = 0.214708
        11        12        13        33     9      180.000000        0.093460         4    ;  uncertainty k = 0.104840
        11        12        16        17     9        0.000000       -0.314554         1    ;  uncertainty k = 0.899073
        11        12        16        17     9      180.000000        1.056101         2    ;  uncertainty k = 0.497724
        11        12        16        17     9        0.000000        0.714234         3    ;  uncertainty k = 0.291353
        11        12        16        17     9      180.000000        0.470012         4    ;  uncertainty k = 0.235436
        11        12        16        38     9        0.000000        2.855321         1    ;  uncertainty k = 1.115834
        11        12        16        38     9      180.000000        0.428241         2    ;  uncertainty k = 0.917920
        11        12        16        38     9        0.000000        0.644843         3    ;  uncertainty k = 0.382449
        11        12        16        38     9      180.000000        0.075470         4    ;  uncertainty k = 0.107681
        11        12        21        19     9        0.000000       -2.355931         1    ;  uncertainty k = 3.263350
        11        12        21        19     9      180.000000        1.763973         2    ;  uncertainty k = 1.188759
        11        12        21        19     9        0.000000        1.153714         3    ;  uncertainty k = 0.534681
        11        12        21        19     9      180.000000        0.793154         4    ;  uncertainty k = 0.307446
        11        12        21        22     9        0.000000       -0.220821         1    ;  uncertainty k = 1.403176
        11        12        21        22     9      180.000000        3.458790         2    ;  uncertainty k = 0.428270
        11        12        21        22     9        0.000000        0.458758         3    ;  uncertainty k = 0.238474
        11        12        21        22     9      180.000000        0.076056         4    ;  uncertainty k = 0.219098
        12        11        10        32     9        0.000000       -0.463183         1    ;  uncertainty k = 0.271773
        12        11        10        32     9      180.000000        7.054816         2    ;  uncertainty k = 0.400628
        12        11        10        32     9        0.000000        0.651904         3    ;  uncertainty k = 0.322985
        12        11        10        32     9      180.000000        1.061026         4    ;  uncertainty k = 0.224003
        12        11        23        43     9        0.000000       -0.394453         1    ;  uncertainty k = 0.247381
        12        11        23        43     9      180.000000        7.158007         2    ;  uncertainty k = 0.418518
        12        11        23        43     9        0.000000        0.595502         3    ;  uncertainty k = 0.398704
        12        11        23        43     9      180.000000        1.113651         4    ;  uncertainty k = 0.239197
        12        13        14        15     9        0.000000       55.691288         1    ;  uncertainty k = 0.394240
        12        13        14        15     9      180.000000       -5.882489         2    ;  uncertainty k = 1.567145
        12        13        14        15     9        0.000000       -9.247568         3    ;  uncertainty k = 0.879303
        12        13        14        15     9      180.000000        6.395578         4    ;  uncertainty k = 0.338960
        12        13        14        34     9        0.000000        0.527766         1    ;  uncertainty k = 2.763917
        12        13        14        34     9      180.000000       -2.372610         2    ;  uncertainty k = 0.936022
        12        13        14        34     9        0.000000        0.376113         3    ;  uncertainty k = 0.345731
        12        13        14        34     9      180.000000       -0.938628         4    ;  uncertainty k = 0.210436
        12        13        14        35     9        0.000000        0.527765         1    ;  uncertainty k = 2.763918
        12        13        14        35     9      180.000000       -2.372610         2    ;  uncertainty k = 0.936021
        12        13        14        35     9        0.000000        0.376113         3    ;  uncertainty k = 0.345731
        12        13        14        35     9      180.000000       -0.938628         4    ;  uncertainty k = 0.210436
        12        13        15        14     9        0.000000       55.691288         1    ;  uncertainty k = 0.394240
        12        13        15        14     9      180.000000       -5.882489         2    ;  uncertainty k = 1.567145
        12        13        15        14     9        0.000000       -9.247568         3    ;  uncertainty k = 0.879303
        12        13        15        14     9      180.000000        6.395578         4    ;  uncertainty k = 0.338960
        12        13        15        36     9        0.000000        0.527765         1    ;  uncertainty k = 2.763918
        12        13        15        36     9      180.000000       -2.372610         2    ;  uncertainty k = 0.936021
        12        13        15        36     9        0.000000        0.376113         3    ;  uncertainty k = 0.345731
        12        13        15        36     9      180.000000       -0.938628         4    ;  uncertainty k = 0.210436
        12        13        15        37     9        0.000000        0.527765         1    ;  uncertainty k = 2.763918
        12        13        15        37     9      180.000000       -2.372610         2    ;  uncertainty k = 0.936021
        12        13        15        37     9        0.000000        0.376113         3    ;  uncertainty k = 0.345731
        12        13        15        37     9      180.000000       -0.938628         4    ;  uncertainty k = 0.210436
        12        16        17        18     9        0.000000        2.305645         1    ;  uncertainty k = 1.493473
        12        16        17        18     9      180.000000       10.718591         2    ;  uncertainty k = 0.864633
        12        16        17        18     9        0.000000        0.411368         3    ;  uncertainty k = 0.519111
        12        16        17        18     9      180.000000       -0.407368         4    ;  uncertainty k = 0.569375
        12        16        17        19     9        0.000000        1.156213         1    ;  uncertainty k = 1.563052
        12        16        17        19     9      180.000000       15.550314         2    ;  uncertainty k = 0.323936
        12        16        17        19     9        0.000000       -0.236120         3    ;  uncertainty k = 1.036179
        12        16        17        19     9      180.000000       -0.543248         4    ;  uncertainty k = 0.194757
        12        21        19        17     9        0.000000        2.808968         1    ;  uncertainty k = 1.846764
        12        21        19        17     9      180.000000        3.300355         2    ;  uncertainty k = 1.050341
        12        21        19        17     9        0.000000       -0.308801         3    ;  uncertainty k = 0.814077
        12        21        19        17     9      180.000000        0.768890         4    ;  uncertainty k = 0.231649
        12        21        19        20     9        0.000000        4.631721         1    ;  uncertainty k = 2.736875
        12        21        19        20     9      180.000000        4.943812         2    ;  uncertainty k = 1.192433
        12        21        19        20     9        0.000000        1.375169         3    ;  uncertainty k = 0.809666
        12        21        19        20     9      180.000000        0.130252         4    ;  uncertainty k = 0.431012
        13        12        11        23     9        0.000000       -0.345533         1    ;  uncertainty k = 0.729811
        13        12        11        23     9      180.000000        2.470867         2    ;  uncertainty k = 0.101610
        13        12        11        23     9        0.000000        0.222581         3    ;  uncertainty k = 0.286923
        13        12        11        23     9      180.000000        0.266080         4    ;  uncertainty k = 0.064694
        13        12        16        17     9        0.000000       -1.509215         1    ;  uncertainty k = 1.634998
        13        12        16        17     9      180.000000        1.373881         2    ;  uncertainty k = 0.587008
        13        12        16        17     9        0.000000        0.711481         3    ;  uncertainty k = 0.293319
        13        12        16        17     9      180.000000        0.343775         4    ;  uncertainty k = 0.070193
        13        12        16        38     9        0.000000        1.374577         1    ;  uncertainty k = 0.505484
        13        12        16        38     9      180.000000        0.095266         2    ;  uncertainty k = 1.462890
        13        12        16        38     9        0.000000        0.636442         3    ;  uncertainty k = 0.171229
        13        12        16        38     9      180.000000        0.200692         4    ;  uncertainty k = 0.082495
        13        12        21        19     9        0.000000       -4.710270         1    ;  uncertainty k = 2.423676
        13        12        21        19     9      180.000000        2.533546         2    ;  uncertainty k = 1.083368
        13        12        21        19     9        0.000000        0.891935         3    ;  uncertainty k = 0.220453
        13        12        21        19     9      180.000000        0.485228         4    ;  uncertainty k = 0.244815
        13        12        21        22     9        0.000000       -1.254501         1    ;  uncertainty k = 1.170688
        13        12        21        22     9      180.000000        3.913986         2    ;  uncertainty k = 0.980992
        13        12        21        22     9        0.000000        0.126175         3    ;  uncertainty k = 0.285229
        13        12        21        22     9      180.000000        0.109299         4    ;  uncertainty k = 0.165375
        13        14        15        36     9        0.000000       41.997795         1    ;  uncertainty k = 0.538440
        13        14        15        36     9      180.000000       -5.283548         2    ;  uncertainty k = 0.594258
        13        14        15        36     9        0.000000       -9.661772         3    ;  uncertainty k = 1.020602
        13        14        15        36     9      180.000000        4.456143         4    ;  uncertainty k = 0.290760
        13        14        15        37     9        0.000000       41.997795         1    ;  uncertainty k = 0.538440
        13        14        15        37     9      180.000000       -5.283548         2    ;  uncertainty k = 0.594258
        13        14        15        37     9        0.000000       -9.661772         3    ;  uncertainty k = 1.020602
        13        14        15        37     9      180.000000        4.456143         4    ;  uncertainty k = 0.290760
        13        15        14        34     9        0.000000       41.997787         1    ;  uncertainty k = 0.538440
        13        15        14        34     9      180.000000       -5.283550         2    ;  uncertainty k = 0.594257
        13        15        14        34     9        0.000000       -9.661771         3    ;  uncertainty k = 1.020600
        13        15        14        34     9      180.000000        4.456143         4    ;  uncertainty k = 0.290761
        13        15        14        35     9        0.000000       41.997795         1    ;  uncertainty k = 0.538440
        13        15        14        35     9      180.000000       -5.283548         2    ;  uncertainty k = 0.594258
        13        15        14        35     9        0.000000       -9.661772         3    ;  uncertainty k = 1.020602
        13        15        14        35     9      180.000000        4.456143         4    ;  uncertainty k = 0.290760
        14        13        12        16     9        0.000000       -0.552906         1    ;  uncertainty k = 0.547483
        14        13        12        16     9      180.000000       -0.565669         2    ;  uncertainty k = 0.361204
        14        13        12        16     9        0.000000        1.437083         3    ;  uncertainty k = 0.356686
        14        13        12        16     9      180.000000        0.070806         4    ;  uncertainty k = 0.152706
        14        13        12        21     9        0.000000       -0.233084         1    ;  uncertainty k = 0.557743
        14        13        12        21     9      180.000000        0.228842         2    ;  uncertainty k = 0.476467
        14        13        12        21     9        0.000000        0.500882         3    ;  uncertainty k = 0.312867
        14        13        12        21     9      180.000000       -0.034480         4    ;  uncertainty k = 0.127418
        14        13        15        36     9        0.000000       43.224163         1    ;  uncertainty k = 0.407746
        14        13        15        36     9      180.000000       -4.588787         2    ;  uncertainty k = 1.542579
        14        13        15        36     9        0.000000      -10.120758         3    ;  uncertainty k = 0.969735
        14        13        15        36     9      180.000000        4.930648         4    ;  uncertainty k = 0.129617
        14        13        15        37     9        0.000000       43.224163         1    ;  uncertainty k = 0.407746
        14        13        15        37     9      180.000000       -4.588787         2    ;  uncertainty k = 1.542579
        14        13        15        37     9        0.000000      -10.120758         3    ;  uncertainty k = 0.969735
        14        13        15        37     9      180.000000        4.930648         4    ;  uncertainty k = 0.129617
        14        15        13        33     9        0.000000       44.612975         1    ;  uncertainty k = 0.353264
        14        15        13        33     9      180.000000       -1.996065         2    ;  uncertainty k = 1.950391
        14        15        13        33     9        0.000000      -10.253677         3    ;  uncertainty k = 1.215937
        14        15        13        33     9      180.000000        5.302241         4    ;  uncertainty k = 0.482222
        15        13        12        16     9        0.000000       -0.552906         1    ;  uncertainty k = 0.547483
        15        13        12        16     9      180.000000       -0.565669         2    ;  uncertainty k = 0.361204
        15        13        12        16     9        0.000000        1.437083         3    ;  uncertainty k = 0.356686
        15        13        12        16     9      180.000000        0.070806         4    ;  uncertainty k = 0.152706
        15        13        12        21     9        0.000000       -0.233084         1    ;  uncertainty k = 0.557743
        15        13        12        21     9      180.000000        0.228842         2    ;  uncertainty k = 0.476467
        15        13        12        21     9        0.000000        0.500882         3    ;  uncertainty k = 0.312867
        15        13        12        21     9      180.000000       -0.034480         4    ;  uncertainty k = 0.127418
        15        13        14        34     9        0.000000       43.224167         1    ;  uncertainty k = 0.407746
        15        13        14        34     9      180.000000       -4.588788         2    ;  uncertainty k = 1.542575
        15        13        14        34     9        0.000000      -10.120757         3    ;  uncertainty k = 0.969735
        15        13        14        34     9      180.000000        4.930648         4    ;  uncertainty k = 0.129617
        15        13        14        35     9        0.000000       43.224163         1    ;  uncertainty k = 0.407746
        15        13        14        35     9      180.000000       -4.588787         2    ;  uncertainty k = 1.542579
        15        13        14        35     9        0.000000      -10.120758         3    ;  uncertainty k = 0.969735
        15        13        14        35     9      180.000000        4.930648         4    ;  uncertainty k = 0.129617
        15        14        13        33     9        0.000000       44.612975         1    ;  uncertainty k = 0.353264
        15        14        13        33     9      180.000000       -1.996065         2    ;  uncertainty k = 1.950391
        15        14        13        33     9        0.000000      -10.253677         3    ;  uncertainty k = 1.215937
        15        14        13        33     9      180.000000        5.302241         4    ;  uncertainty k = 0.482222
        16        12        11        23     9        0.000000       -0.462482         1    ;  uncertainty k = 1.285332
        16        12        11        23     9      180.000000        2.716521         2    ;  uncertainty k = 0.503961
        16        12        11        23     9        0.000000        0.511918         3    ;  uncertainty k = 0.127509
        16        12        11        23     9      180.000000        0.366708         4    ;  uncertainty k = 0.116716
        16        12        13        33     9        0.000000       -0.897307         1    ;  uncertainty k = 1.542189
        16        12        13        33     9      180.000000       -0.401231         2    ;  uncertainty k = 0.868617
        16        12        13        33     9        0.000000        1.105593         3    ;  uncertainty k = 0.163286
        16        12        13        33     9      180.000000       -0.134803         4    ;  uncertainty k = 0.174724
        16        12        21        19     9        0.000000       -0.033184         1    ;  uncertainty k = 2.595999
        16        12        21        19     9      180.000000        6.806053         2    ;  uncertainty k = 0.896168
        16        12        21        19     9        0.000000        0.460427         3    ;  uncertainty k = 0.494178
        16        12        21        19     9      180.000000        0.257600         4    ;  uncertainty k = 0.622849
        16        12        21        22     9        0.000000       -0.743217         1    ;  uncertainty k = 2.633392
        16        12        21        22     9      180.000000        2.412785         2    ;  uncertainty k = 1.265512
        16        12        21        22     9        0.000000        0.325437         3    ;  uncertainty k = 0.532331
        16        12        21        22     9      180.000000        0.468369         4    ;  uncertainty k = 0.080496
        16        17        18        39     9        0.000000        5.946407         1    ;  uncertainty k = 1.199838
        16        17        18        39     9      180.000000       10.275181         2    ;  uncertainty k = 0.360751
        16        17        18        39     9        0.000000        1.447708         3    ;  uncertainty k = 0.437250
        16        17        18        39     9      180.000000       -0.754945         4    ;  uncertainty k = 0.301542
        16        17        18        45     9        0.000000        5.946407         1    ;  uncertainty k = 1.199838
        16        17        18        45     9      180.000000       10.275181         2    ;  uncertainty k = 0.360751
        16        17        18        45     9        0.000000        1.447708         3    ;  uncertainty k = 0.437250
        16        17        18        45     9      180.000000       -0.754945         4    ;  uncertainty k = 0.301542
        16        17        19        20     9        0.000000       -0.354626         1    ;  uncertainty k = 2.503218
        16        17        19        20     9      180.000000        8.005336         2    ;  uncertainty k = 0.438807
        16        17        19        20     9        0.000000        0.243129         3    ;  uncertainty k = 0.218200
        16        17        19        20     9      180.000000       -0.112594         4    ;  uncertainty k = 0.236887
        16        17        19        21     9        0.000000       -0.138604         1    ;  uncertainty k = 1.579124
        16        17        19        21     9      180.000000        8.478538         2    ;  uncertainty k = 0.785688
        16        17        19        21     9        0.000000       -1.181184         3    ;  uncertainty k = 1.175418
        16        17        19        21     9      180.000000        0.015101         4    ;  uncertainty k = 0.452115
        17        16        12        21     9        0.000000        1.477252         1    ;  uncertainty k = 0.971545
        17        16        12        21     9      180.000000        2.266688         2    ;  uncertainty k = 1.057270
        17        16        12        21     9        0.000000        0.080075         3    ;  uncertainty k = 0.653199
        17        16        12        21     9      180.000000        0.483153         4    ;  uncertainty k = 0.366092
        17        19        20        40     9        0.000000       -0.383531         1    ;  uncertainty k = 0.528522
        17        19        20        40     9      180.000000       -1.086035         2    ;  uncertainty k = 0.435210
        17        19        20        40     9        0.000000        0.451587         3    ;  uncertainty k = 0.207353
        17        19        20        40     9      180.000000        0.189958         4    ;  uncertainty k = 0.051650
        17        19        20        41     9        0.000000       -0.383531         1    ;  uncertainty k = 0.528522
        17        19        20        41     9      180.000000       -1.086035         2    ;  uncertainty k = 0.435210
        17        19        20        41     9        0.000000        0.451587         3    ;  uncertainty k = 0.207353
        17        19        20        41     9      180.000000        0.189958         4    ;  uncertainty k = 0.051650
        17        19        20        42     9        0.000000       -0.383531         1    ;  uncertainty k = 0.528522
        17        19        20        42     9      180.000000       -1.086035         2    ;  uncertainty k = 0.435210
        17        19        20        42     9        0.000000        0.451587         3    ;  uncertainty k = 0.207353
        17        19        20        42     9      180.000000        0.189958         4    ;  uncertainty k = 0.051650
        17        19        21        22     9        0.000000        0.409975         1    ;  uncertainty k = 2.537849
        17        19        21        22     9      180.000000        7.689632         2    ;  uncertainty k = 0.719306
        17        19        21        22     9        0.000000        0.468454         3    ;  uncertainty k = 0.500936
        17        19        21        22     9      180.000000        0.049724         4    ;  uncertainty k = 0.270588
        18        17        16        38     9        0.000000        2.437605         1    ;  uncertainty k = 2.546321
        18        17        16        38     9      180.000000        7.841873         2    ;  uncertainty k = 1.085210
        18        17        16        38     9        0.000000        0.964729         3    ;  uncertainty k = 0.183569
        18        17        16        38     9      180.000000       -0.274988         4    ;  uncertainty k = 0.266490
        18        17        19        20     9        0.000000        0.040729         1    ;  uncertainty k = 0.688651
        18        17        19        20     9      180.000000        6.849005         2    ;  uncertainty k = 0.670727
        18        17        19        20     9        0.000000        0.944277         3    ;  uncertainty k = 0.712078
        18        17        19        20     9      180.000000       -0.000087         4    ;  uncertainty k = 0.304515
        18        17        19        21     9        0.000000       -0.587145         1    ;  uncertainty k = 0.741508
        18        17        19        21     9      180.000000        6.753547         2    ;  uncertainty k = 1.232536
        18        17        19        21     9        0.000000        0.172561         3    ;  uncertainty k = 0.701803
        18        17        19        21     9      180.000000       -0.071451         4    ;  uncertainty k = 0.465547
        19        17        16        38     9        0.000000        4.329568         1    ;  uncertainty k = 3.158571
        19        17        16        38     9      180.000000       10.930589         2    ;  uncertainty k = 0.637838
        19        17        16        38     9        0.000000        1.064631         3    ;  uncertainty k = 0.709812
        19        17        16        38     9      180.000000       -0.447107         4    ;  uncertainty k = 0.165906
        19        17        18        39     9        0.000000        7.494608         1    ;  uncertainty k = 1.970889
        19        17        18        39     9      180.000000        9.421081         2    ;  uncertainty k = 0.641279
        19        17        18        39     9        0.000000        0.993965         3    ;  uncertainty k = 0.510398
        19        17        18        39     9      180.000000       -0.952354         4    ;  uncertainty k = 0.236678
        19        17        18        45     9        0.000000        7.494608         1    ;  uncertainty k = 1.970889
        19        17        18        45     9      180.000000        9.421081         2    ;  uncertainty k = 0.641279
        19        17        18        45     9        0.000000        0.993965         3    ;  uncertainty k = 0.510398
        19        17        18        45     9      180.000000       -0.952354         4    ;  uncertainty k = 0.236678
        20        19        21        22     9        0.000000       -0.538000         1    ;  uncertainty k = 3.055170
        20        19        21        22     9      180.000000        8.216318         2    ;  uncertainty k = 0.440596
        20        19        21        22     9        0.000000        0.583622         3    ;  uncertainty k = 0.511356
        20        19        21        22     9      180.000000        0.214039         4    ;  uncertainty k = 0.224807
        21        12        11        23     9        0.000000        0.366841         1    ;  uncertainty k = 1.327335
        21        12        11        23     9      180.000000        1.027756         2    ;  uncertainty k = 0.209862
        21        12        11        23     9        0.000000        0.376879         3    ;  uncertainty k = 0.176138
        21        12        11        23     9      180.000000        0.297842         4    ;  uncertainty k = 0.170800
        21        12        13        33     9        0.000000        0.743877         1    ;  uncertainty k = 1.366604
        21        12        13        33     9      180.000000       -0.499524         2    ;  uncertainty k = 0.309601
        21        12        13        33     9        0.000000        0.507012         3    ;  uncertainty k = 0.234143
        21        12        13        33     9      180.000000        0.046601         4    ;  uncertainty k = 0.093966
        21        12        16        38     9        0.000000        0.152251         1    ;  uncertainty k = 2.647373
        21        12        16        38     9      180.000000       -0.088867         2    ;  uncertainty k = 1.682950
        21        12        16        38     9        0.000000        0.340119         3    ;  uncertainty k = 0.403307
        21        12        16        38     9      180.000000        0.010664         4    ;  uncertainty k = 0.098531
        21        19        20        40     9        0.000000        0.266638         1    ;  uncertainty k = 0.441703
        21        19        20        40     9      180.000000        0.068445         2    ;  uncertainty k = 0.239611
        21        19        20        40     9        0.000000        0.368367         3    ;  uncertainty k = 0.211351
        21        19        20        40     9      180.000000        0.305973         4    ;  uncertainty k = 0.064879
        21        19        20        41     9        0.000000        0.266638         1    ;  uncertainty k = 0.441703
        21        19        20        41     9      180.000000        0.068445         2    ;  uncertainty k = 0.239611
        21        19        20        41     9        0.000000        0.368367         3    ;  uncertainty k = 0.211351
        21        19        20        41     9      180.000000        0.305973         4    ;  uncertainty k = 0.064879
        21        19        20        42     9        0.000000        0.266638         1    ;  uncertainty k = 0.441703
        21        19        20        42     9      180.000000        0.068445         2    ;  uncertainty k = 0.239611
        21        19        20        42     9        0.000000        0.368367         3    ;  uncertainty k = 0.211351
        21        19        20        42     9      180.000000        0.305973         4    ;  uncertainty k = 0.064879
        23         7         6        24     9        0.000000       -0.257901         1    ;  uncertainty k = 0.474029
        23         7         6        24     9      180.000000        3.922390         2    ;  uncertainty k = 0.151598
        23         7         6        24     9        0.000000        0.266333         3    ;  uncertainty k = 0.227221
        23         7         6        24     9      180.000000       -0.050020         4    ;  uncertainty k = 0.071657
        23         7         8        30     9        0.000000        0.180956         1    ;  uncertainty k = 0.189840
        23         7         8        30     9      180.000000        6.950174         2    ;  uncertainty k = 0.442387
        23         7         8        30     9        0.000000        1.434366         3    ;  uncertainty k = 0.280002
        23         7         8        30     9      180.000000        1.615189         4    ;  uncertainty k = 0.246146
        23        11        10        32     9        0.000000        0.224688         1    ;  uncertainty k = 0.113060
        23        11        10        32     9      180.000000        7.595616         2    ;  uncertainty k = 0.534211
        23        11        10        32     9        0.000000        1.342578         3    ;  uncertainty k = 0.376080
        23        11        10        32     9      180.000000        1.664294         4    ;  uncertainty k = 0.223058
        24         2         1        25     9        0.000000        0.262764         1    ;  uncertainty k = 0.162492
        24         2         1        25     9      180.000000        1.021850         2    ;  uncertainty k = 0.179147
        24         2         1        25     9        0.000000        0.271514         3    ;  uncertainty k = 0.106760
        24         2         1        25     9      180.000000        0.194682         4    ;  uncertainty k = 0.029533
        24         2         1        26     9        0.000000        0.262764         1    ;  uncertainty k = 0.162492
        24         2         1        26     9      180.000000        1.021850         2    ;  uncertainty k = 0.179147
        24         2         1        26     9        0.000000        0.271514         3    ;  uncertainty k = 0.106760
        24         2         1        26     9      180.000000        0.194682         4    ;  uncertainty k = 0.029533
        24         2         1        27     9        0.000000        0.262764         1    ;  uncertainty k = 0.162492
        24         2         1        27     9      180.000000        1.021850         2    ;  uncertainty k = 0.179147
        24         2         1        27     9        0.000000        0.271514         3    ;  uncertainty k = 0.106760
        24         2         1        27     9      180.000000        0.194682         4    ;  uncertainty k = 0.029533
        24         2         3        28     9        0.000000       -0.150571         1    ;  uncertainty k = 0.440594
        24         2         3        28     9      180.000000        5.740007         2    ;  uncertainty k = 0.628751
        24         2         3        28     9        0.000000        1.214950         3    ;  uncertainty k = 0.213465
        24         2         3        28     9      180.000000        1.395576         4    ;  uncertainty k = 0.205102
        24         6         5        29     9        0.000000       -0.145977         1    ;  uncertainty k = 0.457934
        24         6         5        29     9      180.000000        5.462142         2    ;  uncertainty k = 0.633534
        24         6         5        29     9        0.000000        1.060841         3    ;  uncertainty k = 0.238800
        24         6         5        29     9      180.000000        1.382531         4    ;  uncertainty k = 0.181062
        30         8         9        31     9        0.000000       -0.095532         1    ;  uncertainty k = 0.212367
        30         8         9        31     9      180.000000        7.973048         2    ;  uncertainty k = 0.297952
        30         8         9        31     9        0.000000       -0.492866         3    ;  uncertainty k = 0.271198
        30         8         9        31     9      180.000000        0.115954         4    ;  uncertainty k = 0.147408
        31         9        10        32     9        0.000000       -0.102800         1    ;  uncertainty k = 0.340792
        31         9        10        32     9      180.000000        7.837233         2    ;  uncertainty k = 0.295465
        31         9        10        32     9        0.000000       -0.503661         3    ;  uncertainty k = 0.314922
        31         9        10        32     9      180.000000        0.124006         4    ;  uncertainty k = 0.179406
        33        13        14        34     9        0.000000        1.112902         1    ;  uncertainty k = 1.312837
        33        13        14        34     9      180.000000       -1.597056         2    ;  uncertainty k = 0.788588
        33        13        14        34     9        0.000000        0.801310         3    ;  uncertainty k = 0.273126
        33        13        14        34     9      180.000000       -0.760755         4    ;  uncertainty k = 0.075360
        33        13        14        35     9        0.000000        1.112901         1    ;  uncertainty k = 1.312836
        33        13        14        35     9      180.000000       -1.597057         2    ;  uncertainty k = 0.788587
        33        13        14        35     9        0.000000        0.801310         3    ;  uncertainty k = 0.273127
        33        13        14        35     9      180.000000       -0.760755         4    ;  uncertainty k = 0.075359
        33        13        15        36     9        0.000000        1.112901         1    ;  uncertainty k = 1.312836
        33        13        15        36     9      180.000000       -1.597057         2    ;  uncertainty k = 0.788587
        33        13        15        36     9        0.000000        0.801310         3    ;  uncertainty k = 0.273127
        33        13        15        36     9      180.000000       -0.760755         4    ;  uncertainty k = 0.075359
        33        13        15        37     9        0.000000        1.112901         1    ;  uncertainty k = 1.312836
        33        13        15        37     9      180.000000       -1.597057         2    ;  uncertainty k = 0.788587
        33        13        15        37     9        0.000000        0.801310         3    ;  uncertainty k = 0.273127
        33        13        15        37     9      180.000000       -0.760755         4    ;  uncertainty k = 0.075359
        34        14        15        36     9        0.000000        0.219093         1    ;  uncertainty k = 0.548234
        34        14        15        36     9      180.000000       -1.119394         2    ;  uncertainty k = 0.862492
        34        14        15        36     9        0.000000        0.928973         3    ;  uncertainty k = 0.329710
        34        14        15        36     9      180.000000       -0.633440         4    ;  uncertainty k = 0.121162
        34        14        15        37     9        0.000000        0.219093         1    ;  uncertainty k = 0.548234
        34        14        15        37     9      180.000000       -1.119394         2    ;  uncertainty k = 0.862492
        34        14        15        37     9        0.000000        0.928973         3    ;  uncertainty k = 0.329710
        34        14        15        37     9      180.000000       -0.633440         4    ;  uncertainty k = 0.121162
        35        14        15        36     9        0.000000        0.219093         1    ;  uncertainty k = 0.548233
        35        14        15        36     9      180.000000       -1.119397         2    ;  uncertainty k = 0.862491
        35        14        15        36     9        0.000000        0.928973         3    ;  uncertainty k = 0.329710
        35        14        15        36     9      180.000000       -0.633440         4    ;  uncertainty k = 0.121161
        35        14        15        37     9        0.000000        0.219093         1    ;  uncertainty k = 0.548233
        35        14        15        37     9      180.000000       -1.119397         2    ;  uncertainty k = 0.862491
        35        14        15        37     9        0.000000        0.928973         3    ;  uncertainty k = 0.329710
        35        14        15        37     9      180.000000       -0.633440         4    ;  uncertainty k = 0.121161

[ dihedrals ] ; impropers
;       ai        aj        ak        al funct           phase               k        pn
         2         1         3        24     4      180.000000       13.544353         2    ;  uncertainty k = 0.118601
         2         3        24         1     4      180.000000       13.544353         2    ;  uncertainty k = 0.118601
         2        24         1         3     4      180.000000       13.544353         2    ;  uncertainty k = 0.118601
         3         2         4        28     4      180.000000       12.790668         2    ;  uncertainty k = 0.074055
         3         4        28         2     4      180.000000       12.790668         2    ;  uncertainty k = 0.074055
         3        28         2         4     4      180.000000       12.790668         2    ;  uncertainty k = 0.074055
         5         4         6        29     4      180.000000       12.993809         2    ;  uncertainty k = 0.043991
         5         6        29         4     4      180.000000       12.993809         2    ;  uncertainty k = 0.043991
         5        29         4         6     4      180.000000       12.993809         2    ;  uncertainty k = 0.043991
         6         5         7        24     4      180.000000       13.431607         2    ;  uncertainty k = 0.097052
         6         7        24         5     4      180.000000       13.431607         2    ;  uncertainty k = 0.097052
         6        24         5         7     4      180.000000       13.431607         2    ;  uncertainty k = 0.097052
         7         6         8        23     4      180.000000       15.340237         2    ;  uncertainty k = 0.050401
         7         8        23         6     4      180.000000       15.340237         2    ;  uncertainty k = 0.050401
         7        23         6         8     4      180.000000       15.340237         2    ;  uncertainty k = 0.050401
         8         7         9        30     4      180.000000        4.386772         2    ;  uncertainty k = 0.140687
         8         9        30         7     4      180.000000        4.386772         2    ;  uncertainty k = 0.140687
         8        30         7         9     4      180.000000        4.386772         2    ;  uncertainty k = 0.140687
         9         8        10        31     4      180.000000        4.013211         2    ;  uncertainty k = 0.092194
         9        10        31         8     4      180.000000        4.013211         2    ;  uncertainty k = 0.092194
         9        31         8        10     4      180.000000        4.013211         2    ;  uncertainty k = 0.092194
        10         9        11        32     4      180.000000        3.735094         2    ;  uncertainty k = 0.215510
        10        11        32         9     4      180.000000        3.735094         2    ;  uncertainty k = 0.215510
        10        32         9        11     4      180.000000        3.735094         2    ;  uncertainty k = 0.215510
        11        10        12        23     4      180.000000       11.038880         2    ;  uncertainty k = 0.200619
        11        12        23        10     4      180.000000       11.038880         2    ;  uncertainty k = 0.200619
        11        23        10        12     4      180.000000       11.038880         2    ;  uncertainty k = 0.200619
        17        16        18        19     4      180.000000       30.611211         2    ;  uncertainty k = 0.136444
        17        18        19        16     4      180.000000       30.611211         2    ;  uncertainty k = 0.136444
        17        19        16        18     4      180.000000       30.611211         2    ;  uncertainty k = 0.136444
        18        17        39        45     4      180.000000        0.046824         2    ;  uncertainty k = 0.104702
        18        39        45        17     4      180.000000        0.046824         2    ;  uncertainty k = 0.104702
        18        45        17        39     4      180.000000        0.046824         2    ;  uncertainty k = 0.104702
        19        17        20        21     4      180.000000        1.740987         2    ;  uncertainty k = 0.618488
        19        20        21        17     4      180.000000        1.740987         2    ;  uncertainty k = 0.618488
        19        21        17        20     4      180.000000        1.740987         2    ;  uncertainty k = 0.618488
        21        12        19        22     4      180.000000       50.502757         2    ;  uncertainty k = 0.034923
        21        19        22        12     4      180.000000       50.502757         2    ;  uncertainty k = 0.034923
        21        22        12        19     4      180.000000       50.502757         2    ;  uncertainty k = 0.034923
        23         7        11        43     4      180.000000        4.197497         2    ;  uncertainty k = 0.240719
        23        11        43         7     4      180.000000        4.197497         2    ;  uncertainty k = 0.240719
        23        43         7        11     4      180.000000        4.197497         2    ;  uncertainty k = 0.240719
        24         2         6        44     4      180.000000        5.824287         2    ;  uncertainty k = 0.167329
        24         6        44         2     4      180.000000        5.824287         2    ;  uncertainty k = 0.167329
        24        44         2         6     4      180.000000        5.824287         2    ;  uncertainty k = 0.167329

[ pairs ]
;       ai        aj funct
         1         4     1
         1         6     1
         1        28     1
         1        44     1
         2         5     1
         2         7     1
         3         6     1
         3        25     1
         3        26     1
         3        27     1
         3        29     1
         3        44     1
         4         7     1
         4        24     1
         5         8     1
         5        23     1
         5        28     1
         5        44     1
         6         9     1
         6        11     1
         6        30     1
         6        43     1
         7        10     1
         7        12     1
         7        29     1
         7        31     1
         7        44     1
         8        11     1
         8        24     1
         8        32     1
         8        43     1
         9        12     1
         9        23     1
        10        13     1
        10        16     1
        10        21     1
        10        30     1
        10        43     1
        11        14     1
        11        15     1
        11        17     1
        11        19     1
        11        22     1
        11        31     1
        11        33     1
        11        38     1
        12        18     1
        12        20     1
        12        32     1
        12        34     1
        12        35     1
        12        36     1
        12        37     1
        12        43     1
        13        17     1
        13        19     1
        13        22     1
        13        23     1
        13        38     1
        14        16     1
        14        21     1
        15        16     1
        15        21     1
        16        20     1
        16        22     1
        16        23     1
        16        33     1
        16        39     1
        16        45     1
        17        22     1
        17        40     1
        17        41     1
        17        42     1
        18        20     1
        18        21     1
        18        38     1
        19        38     1
        19        39     1
        19        45     1
        20        22     1
        21        23     1
        21        33     1
        21        38     1
        21        40     1
        21        41     1
        21        42     1
        23        24     1
        23        30     1
        23        32     1
        24        25     1
        24        26     1
        24        27     1
        24        28     1
        24        29     1
        30        31     1
        31        32     1
        33        34     1
        33        35     1
        33        36     1
        33        37     1
        34        36     1
        34        37     1
        35        36     1
        35        37     1
