; ITP file created by ByteFF-joint-25, 2026-02-18 03:16:25.150319

[ atomtypes ]
;name           bonded.type        at.num        mass        charge   ptype           sigma         epsilon
 c0bf                                   6      0.0000       0.00000       A     3.39732e-01     4.51256e-01    ;  uncertainty sigma = 0.000013, epsilon = 0.001265
 n1bf                                   7      0.0000       0.00000       A     3.18087e-01     6.83766e-01    ;  uncertainty sigma = 0.000075, epsilon = 0.006885
 c2bf                                   6      0.0000       0.00000       A     3.31506e-01     4.12464e-01    ;  uncertainty sigma = 0.000050, epsilon = 0.001613
 n3bf                                   7      0.0000       0.00000       A     3.36544e-01     4.71564e-01    ;  uncertainty sigma = 0.000086, epsilon = 0.005524
 n4bf                                   7      0.0000       0.00000       A     3.27714e-01     6.54625e-01    ;  uncertainty sigma = 0.000095, epsilon = 0.013877
 c5bf                                   6      0.0000       0.00000       A     3.39821e-01     4.52210e-01    ;  uncertainty sigma = 0.000064, epsilon = 0.004753
 c6bf                                   6      0.0000       0.00000       A     3.31618e-01     4.13658e-01    ;  uncertainty sigma = 0.000049, epsilon = 0.001302
 c7bf                                   6      0.0000       0.00000       A     3.31513e-01     4.13281e-01    ;  uncertainty sigma = 0.000002, epsilon = 0.000693
 c8bf                                   6      0.0000       0.00000       A     3.31522e-01     4.13312e-01    ;  uncertainty sigma = 0.000003, epsilon = 0.000635
 c9bf                                   6      0.0000       0.00000       A     3.31513e-01     4.13269e-01    ;  uncertainty sigma = 0.000005, epsilon = 0.000649
 c10bf                                  6      0.0000       0.00000       A     3.31498e-01     4.13558e-01    ;  uncertainty sigma = 0.000008, epsilon = 0.000546
 c11bf                                  6      0.0000       0.00000       A     3.31513e-01     4.13167e-01    ;  uncertainty sigma = 0.000009, epsilon = 0.000575
 c12bf                                  6      0.0000       0.00000       A     3.31511e-01     4.13320e-01    ;  uncertainty sigma = 0.000005, epsilon = 0.000665
 c13bf                                  6      0.0000       0.00000       A     3.31521e-01     4.13375e-01    ;  uncertainty sigma = 0.000003, epsilon = 0.000656
 c14bf                                  6      0.0000       0.00000       A     3.31522e-01     4.13446e-01    ;  uncertainty sigma = 0.000004, epsilon = 0.000552
 c15bf                                  6      0.0000       0.00000       A     3.31526e-01     4.13122e-01    ;  uncertainty sigma = 0.000006, epsilon = 0.000502
 cl16bf                                17      0.0000       0.00000       A     3.46610e-01     1.10414e+00    ;  uncertainty sigma = 0.000013, epsilon = 0.001445
 c17bf                                  6      0.0000       0.00000       A     3.31523e-01     4.13401e-01    ;  uncertainty sigma = 0.000007, epsilon = 0.000655
 c18bf                                  6      0.0000       0.00000       A     3.31524e-01     4.13258e-01    ;  uncertainty sigma = 0.000020, epsilon = 0.001210
 c19bf                                  6      0.0000       0.00000       A     3.31535e-01     4.12359e-01    ;  uncertainty sigma = 0.000023, epsilon = 0.001522
 n20bf                                  7      0.0000       0.00000       A     3.38408e-01     3.93926e-01    ;  uncertainty sigma = 0.000017, epsilon = 0.001174
 c21bf                                  6      0.0000       0.00000       A     3.31521e-01     4.13102e-01    ;  uncertainty sigma = 0.000008, epsilon = 0.000396
 c22bf                                  6      0.0000       0.00000       A     3.31526e-01     4.13582e-01    ;  uncertainty sigma = 0.000016, epsilon = 0.001154
 c23bf                                  6      0.0000       0.00000       A     3.31521e-01     4.13102e-01    ;  uncertainty sigma = 0.000008, epsilon = 0.000396
 n24bf                                  7      0.0000       0.00000       A     3.38408e-01     3.93926e-01    ;  uncertainty sigma = 0.000017, epsilon = 0.001174
 c25bf                                  6      0.0000       0.00000       A     3.31528e-01     4.13886e-01    ;  uncertainty sigma = 0.000008, epsilon = 0.000837
 o26bf                                  8      0.0000       0.00000       A     3.04818e-01     6.11949e-01    ;  uncertainty sigma = 0.000053, epsilon = 0.002550
 h27bf                                  1      0.0000       0.00000       A     2.42208e-01     8.66970e-02    ;  uncertainty sigma = 0.000028, epsilon = 0.000664
 h28bf                                  1      0.0000       0.00000       A     2.42208e-01     8.66970e-02    ;  uncertainty sigma = 0.000028, epsilon = 0.000664
 h29bf                                  1      0.0000       0.00000       A     2.42208e-01     8.66970e-02    ;  uncertainty sigma = 0.000028, epsilon = 0.000664
 h30bf                                  1      0.0000       0.00000       A     1.10696e-01     4.12787e-02    ;  uncertainty sigma = 0.000128, epsilon = 0.001559
 h31bf                                  1      0.0000       0.00000       A     1.10640e-01     4.03115e-02    ;  uncertainty sigma = 0.000292, epsilon = 0.001653
 h32bf                                  1      0.0000       0.00000       A     2.62558e-01     6.70852e-02    ;  uncertainty sigma = 0.000008, epsilon = 0.000421
 h33bf                                  1      0.0000       0.00000       A     2.62564e-01     6.70137e-02    ;  uncertainty sigma = 0.000010, epsilon = 0.000418
 h34bf                                  1      0.0000       0.00000       A     2.62562e-01     6.70409e-02    ;  uncertainty sigma = 0.000012, epsilon = 0.000507
 h35bf                                  1      0.0000       0.00000       A     2.62562e-01     6.70409e-02    ;  uncertainty sigma = 0.000012, epsilon = 0.000507
 h36bf                                  1      0.0000       0.00000       A     2.62568e-01     6.69666e-02    ;  uncertainty sigma = 0.000007, epsilon = 0.000468
 h37bf                                  1      0.0000       0.00000       A     2.62560e-01     6.70939e-02    ;  uncertainty sigma = 0.000009, epsilon = 0.000590
 h38bf                                  1      0.0000       0.00000       A     2.62559e-01     6.71672e-02    ;  uncertainty sigma = 0.000013, epsilon = 0.000620
 h39bf                                  1      0.0000       0.00000       A     2.62550e-01     6.72376e-02    ;  uncertainty sigma = 0.000014, epsilon = 0.000655
 h40bf                                  1      0.0000       0.00000       A     2.53650e-01     6.71978e-02    ;  uncertainty sigma = 0.000014, epsilon = 0.000577
 h41bf                                  1      0.0000       0.00000       A     2.62575e-01     6.72349e-02    ;  uncertainty sigma = 0.000016, epsilon = 0.000568
 h42bf                                  1      0.0000       0.00000       A     2.53650e-01     6.71978e-02    ;  uncertainty sigma = 0.000014, epsilon = 0.000577
 h43bf                                  1      0.0000       0.00000       A     1.10696e-01     4.12787e-02    ;  uncertainty sigma = 0.000128, epsilon = 0.001559

[ moleculetype ]
;name             nrexcl
 MOL                   3

[ atoms ]
;       nr            type      resi   res      atom      cgnr      charge          mass ; qtot
         1            c0bf         1   UNL        c0         1     0.07562       12.0110 ; qtot    0.076
         2            n1bf         1   UNL        n1         2    -0.41274       14.0070 ; qtot   -0.337
         3            c2bf         1   UNL        c2         3     0.46494       12.0110 ; qtot    0.128
         4            n3bf         1   UNL        n3         4    -0.47652       14.0070 ; qtot   -0.349
         5            n4bf         1   UNL        n4         5    -0.35778       14.0070 ; qtot   -0.706
         6            c5bf         1   UNL        c5         6     0.00107       12.0110 ; qtot   -0.705
         7            c6bf         1   UNL        c6         7    -0.14006       12.0110 ; qtot   -0.845
         8            c7bf         1   UNL        c7         8    -0.08982       12.0110 ; qtot   -0.935
         9            c8bf         1   UNL        c8         9    -0.10857       12.0110 ; qtot   -1.044
        10            c9bf         1   UNL        c9        10    -0.09155       12.0110 ; qtot   -1.135
        11           c10bf         1   UNL       c10        11    -0.01373       12.0110 ; qtot   -1.149
        12           c11bf         1   UNL       c11        12    -0.03571       12.0110 ; qtot   -1.185
        13           c12bf         1   UNL       c12        13    -0.11891       12.0110 ; qtot   -1.304
        14           c13bf         1   UNL       c13        14    -0.12274       12.0110 ; qtot   -1.427
        15           c14bf         1   UNL       c14        15    -0.11373       12.0110 ; qtot   -1.540
        16           c15bf         1   UNL       c15        16     0.03067       12.0110 ; qtot   -1.510
        17          cl16bf         1   UNL      cl16        17    -0.11712       35.4530 ; qtot   -1.627
        18           c17bf         1   UNL       c17        18    -0.11226       12.0110 ; qtot   -1.739
        19           c18bf         1   UNL       c18        19    -0.07625       12.0110 ; qtot   -1.815
        20           c19bf         1   UNL       c19        20     0.62807       12.0110 ; qtot   -1.187
        21           n20bf         1   UNL       n20        21    -0.69584       14.0070 ; qtot   -1.883
        22           c21bf         1   UNL       c21        22     0.45427       12.0110 ; qtot   -1.429
        23           c22bf         1   UNL       c22        23    -0.33493       12.0110 ; qtot   -1.764
        24           c23bf         1   UNL       c23        24     0.45427       12.0110 ; qtot   -1.309
        25           n24bf         1   UNL       n24        25    -0.69584       14.0070 ; qtot   -2.005
        26           c25bf         1   UNL       c25        26     0.71599       12.0110 ; qtot   -1.289
        27           o26bf         1   UNL       o26        27    -0.43866       15.9990 ; qtot   -1.728
        28           h27bf         1   UNL       h27        28     0.09057        1.0080 ; qtot   -1.637
        29           h28bf         1   UNL       h28        29     0.09057        1.0080 ; qtot   -1.547
        30           h29bf         1   UNL       h29        30     0.09057        1.0080 ; qtot   -1.456
        31           h30bf         1   UNL       h30        31     0.33582        1.0080 ; qtot   -1.120
        32           h31bf         1   UNL       h31        32     0.36593        1.0080 ; qtot   -0.754
        33           h32bf         1   UNL       h32        33     0.14961        1.0080 ; qtot   -0.605
        34           h33bf         1   UNL       h33        34     0.14845        1.0080 ; qtot   -0.456
        35           h34bf         1   UNL       h34        35     0.13653        1.0080 ; qtot   -0.320
        36           h35bf         1   UNL       h35        36     0.13932        1.0080 ; qtot   -0.180
        37           h36bf         1   UNL       h36        37     0.13920        1.0080 ; qtot   -0.041
        38           h37bf         1   UNL       h37        38     0.15171        1.0080 ; qtot    0.110
        39           h38bf         1   UNL       h38        39     0.15143        1.0080 ; qtot    0.262
        40           h39bf         1   UNL       h39        40     0.15162        1.0080 ; qtot    0.413
        41           h40bf         1   UNL       h40        41     0.04677        1.0080 ; qtot    0.460
        42           h41bf         1   UNL       h41        42     0.15717        1.0080 ; qtot    0.617
        43           h42bf         1   UNL       h42        43     0.04677        1.0080 ; qtot    0.664
        44           h43bf         1   UNL       h43        44     0.33582        1.0080 ; qtot    1.000

[ bonds ]
;       ai        aj funct               r               k
         1         2     1        0.146725   260353.026270    ;  uncertainty r = 0.000126, k = 13.925558
         1        28     1        0.109174   309405.420996    ;  uncertainty r = 0.000045, k = 3.044469
         1        29     1        0.109174   309405.420996    ;  uncertainty r = 0.000045, k = 3.044469
         1        30     1        0.109174   309405.420996    ;  uncertainty r = 0.000045, k = 3.044469
         2         3     1        0.135623   279194.612012    ;  uncertainty r = 0.000180, k = 42.602442
         2        26     1        0.142721   296983.302734    ;  uncertainty r = 0.000357, k = 73.514916
         3         4     1        0.132878   305715.640674    ;  uncertainty r = 0.000267, k = 36.375820
         3         5     1        0.133732   531001.338184    ;  uncertainty r = 0.000168, k = 45.705921
         4        31     1        0.101396   420869.489551    ;  uncertainty r = 0.000073, k = 12.258235
         4        44     1        0.101396   420869.489551    ;  uncertainty r = 0.000073, k = 12.258266
         5         6     1        0.148490   210295.771826    ;  uncertainty r = 0.000400, k = 82.010238
         5        32     1        0.101654   421464.121143    ;  uncertainty r = 0.000085, k = 11.736588
         6         7     1        0.150508   207874.483569    ;  uncertainty r = 0.000283, k = 24.427874
         6        20     1        0.152158   212860.323267    ;  uncertainty r = 0.000315, k = 11.023851
         6        26     1        0.154770   190802.427979    ;  uncertainty r = 0.000182, k = 34.131260
         7         8     1        0.139646   347265.922168    ;  uncertainty r = 0.000036, k = 8.269185
         7        19     1        0.139472   342176.376270    ;  uncertainty r = 0.000089, k = 7.908853
         8         9     1        0.139485   368581.466455    ;  uncertainty r = 0.000043, k = 1.573036
         8        33     1        0.108756   332692.557813    ;  uncertainty r = 0.000039, k = 2.995293
         9        10     1        0.139322   371310.183203    ;  uncertainty r = 0.000027, k = 2.710963
         9        34     1        0.108768   333105.365186    ;  uncertainty r = 0.000026, k = 1.115190
        10        11     1        0.140091   347280.120801    ;  uncertainty r = 0.000012, k = 0.960266
        10        35     1        0.108820   334865.306152    ;  uncertainty r = 0.000023, k = 0.943333
        11        12     1        0.147934   271374.663916    ;  uncertainty r = 0.000042, k = 4.511247
        11        19     1        0.139767   337557.964502    ;  uncertainty r = 0.000039, k = 2.577194
        12        13     1        0.140235   345940.929248    ;  uncertainty r = 0.000017, k = 2.209472
        12        18     1        0.140145   349973.877246    ;  uncertainty r = 0.000025, k = 1.038770
        13        14     1        0.139452   367068.213965    ;  uncertainty r = 0.000025, k = 1.779929
        13        36     1        0.108805   334917.401855    ;  uncertainty r = 0.000025, k = 0.881864
        14        15     1        0.139500   374338.220410    ;  uncertainty r = 0.000020, k = 1.415152
        14        37     1        0.108776   333408.771582    ;  uncertainty r = 0.000008, k = 1.051669
        15        16     1        0.139473   361470.709424    ;  uncertainty r = 0.000016, k = 2.291888
        15        38     1        0.108715   335671.742529    ;  uncertainty r = 0.000009, k = 0.604869
        16        17     1        0.175805   197124.279858    ;  uncertainty r = 0.000030, k = 2.861100
        16        18     1        0.139310   357391.896777    ;  uncertainty r = 0.000022, k = 1.821603
        18        39     1        0.108730   336354.375000    ;  uncertainty r = 0.000018, k = 1.108077
        19        40     1        0.108796   333085.880371    ;  uncertainty r = 0.000021, k = 2.360899
        20        21     1        0.133126   372374.569922    ;  uncertainty r = 0.000173, k = 13.846173
        20        25     1        0.133126   372374.569922    ;  uncertainty r = 0.000173, k = 13.846162
        21        22     1        0.134269   409640.694873    ;  uncertainty r = 0.000093, k = 15.526045
        22        23     1        0.139752   427804.730029    ;  uncertainty r = 0.000042, k = 0.938326
        22        41     1        0.108892   334862.445996    ;  uncertainty r = 0.000035, k = 1.241811
        23        24     1        0.139752   427804.730029    ;  uncertainty r = 0.000042, k = 0.938296
        23        42     1        0.108839   341973.713770    ;  uncertainty r = 0.000030, k = 3.585281
        24        25     1        0.134269   409640.643799    ;  uncertainty r = 0.000093, k = 15.526062
        24        43     1        0.108892   334862.420459    ;  uncertainty r = 0.000035, k = 1.241778
        26        27     1        0.120025   624272.514648    ;  uncertainty r = 0.000141, k = 12.621290

[ angles ]
;       ai        aj        ak funct           theta             cth
         1         2         3     1      118.644150      374.416192    ;  uncertainty theta = 0.006972, k = 0.401871
         1         2        26     1      118.914955      404.030141    ;  uncertainty theta = 0.007322, k = 0.169199
         2         1        28     1      107.322227      469.712927    ;  uncertainty theta = 0.002521, k = 0.224952
         2         1        29     1      107.322227      469.712927    ;  uncertainty theta = 0.002521, k = 0.224952
         2         1        30     1      107.322227      469.712927    ;  uncertainty theta = 0.002521, k = 0.224952
         2         3         4     1      125.867577      536.714066    ;  uncertainty theta = 0.010418, k = 0.296821
         2         3         5     1      113.605492      697.582788    ;  uncertainty theta = 0.009531, k = 0.301416
         2        26         6     1      108.706131      491.970561    ;  uncertainty theta = 0.011072, k = 0.589339
         2        26        27     1      125.846230      656.911111    ;  uncertainty theta = 0.012227, k = 0.147290
         3         2        26     1      110.466698      708.424440    ;  uncertainty theta = 0.009918, k = 0.221449
         3         4        31     1      114.860680      368.191298    ;  uncertainty theta = 0.004545, k = 0.193352
         3         4        44     1      114.860680      368.191298    ;  uncertainty theta = 0.004545, k = 0.193352
         3         5         6     1      111.680496      598.190826    ;  uncertainty theta = 0.021115, k = 0.418486
         3         5        32     1      119.561623      345.339032    ;  uncertainty theta = 0.013238, k = 0.230315
         4         3         5     1      128.624680      641.118516    ;  uncertainty theta = 0.010234, k = 0.275115
         5         6         7     1      111.284584      614.150498    ;  uncertainty theta = 0.005397, k = 0.323508
         5         6        20     1      105.720558      544.198993    ;  uncertainty theta = 0.017548, k = 0.237551
         5         6        26     1      103.262222      901.492648    ;  uncertainty theta = 0.009083, k = 0.500938
         6         5        32     1      116.965698      293.381645    ;  uncertainty theta = 0.011574, k = 0.439305
         6         7         8     1      116.685097      370.320901    ;  uncertainty theta = 0.006846, k = 0.202314
         6         7        19     1      116.177528      372.990263    ;  uncertainty theta = 0.005856, k = 0.144772
         6        20        21     1      114.923683      380.322574    ;  uncertainty theta = 0.013205, k = 0.117098
         6        20        25     1      114.923683      380.322574    ;  uncertainty theta = 0.013205, k = 0.117097
         6        26        27     1      125.524948      421.038654    ;  uncertainty theta = 0.009276, k = 0.311299
         7         6        20     1      111.223770      471.968875    ;  uncertainty theta = 0.014440, k = 0.186338
         7         6        26     1      109.658493      474.950045    ;  uncertainty theta = 0.013489, k = 0.092809
         7         8         9     1      120.083267      510.122466    ;  uncertainty theta = 0.004134, k = 0.057664
         7         8        33     1      118.502823      273.548632    ;  uncertainty theta = 0.003752, k = 0.079803
         7        19        11     1      122.135986      509.439348    ;  uncertainty theta = 0.003612, k = 0.199726
         7        19        40     1      118.127563      274.589524    ;  uncertainty theta = 0.003187, k = 0.062872
         8         7        19     1      123.663391      432.308212    ;  uncertainty theta = 0.007773, k = 0.190722
         8         9        10     1      120.267044      507.797855    ;  uncertainty theta = 0.002633, k = 0.084749
         8         9        34     1      119.712097      281.114607    ;  uncertainty theta = 0.002357, k = 0.054061
         9         8        33     1      120.377121      301.398701    ;  uncertainty theta = 0.002546, k = 0.037644
         9        10        11     1      119.832321      534.552031    ;  uncertainty theta = 0.002361, k = 0.068297
         9        10        35     1      120.219772      294.473835    ;  uncertainty theta = 0.001120, k = 0.016578
        10         9        34     1      120.395386      284.232911    ;  uncertainty theta = 0.000987, k = 0.052321
        10        11        12     1      121.149208      406.404805    ;  uncertainty theta = 0.001695, k = 0.140468
        10        11        19     1      119.940231      403.905009    ;  uncertainty theta = 0.004142, k = 0.212968
        11        10        35     1      118.934425      278.372624    ;  uncertainty theta = 0.000588, k = 0.103232
        11        12        13     1      120.541405      411.758851    ;  uncertainty theta = 0.002471, k = 0.047662
        11        12        18     1      119.765121      410.682781    ;  uncertainty theta = 0.001914, k = 0.050844
        11        19        40     1      118.925095      283.779564    ;  uncertainty theta = 0.002092, k = 0.092828
        12        11        19     1      119.921204      413.134791    ;  uncertainty theta = 0.003141, k = 0.167942
        12        13        14     1      120.504349      532.913346    ;  uncertainty theta = 0.001618, k = 0.068709
        12        13        36     1      119.203636      278.269901    ;  uncertainty theta = 0.001744, k = 0.040876
        12        18        16     1      119.741173      510.605660    ;  uncertainty theta = 0.001091, k = 0.073584
        12        18        39     1      120.095413      273.299613    ;  uncertainty theta = 0.001008, k = 0.066605
        13        12        18     1      120.374191      415.451390    ;  uncertainty theta = 0.002120, k = 0.132953
        13        14        15     1      120.717369      509.837057    ;  uncertainty theta = 0.001401, k = 0.048240
        13        14        37     1      120.238693      282.499708    ;  uncertainty theta = 0.001326, k = 0.011496
        14        13        36     1      120.338745      294.190341    ;  uncertainty theta = 0.001360, k = 0.032086
        14        15        16     1      117.430496      514.054606    ;  uncertainty theta = 0.001033, k = 0.048095
        14        15        38     1      121.325417      283.555061    ;  uncertainty theta = 0.001286, k = 0.023037
        15        14        37     1      119.863380      284.707455    ;  uncertainty theta = 0.000778, k = 0.019642
        15        16        17     1      120.461792      447.827848    ;  uncertainty theta = 0.001141, k = 0.053761
        15        16        18     1      121.555298      359.688909    ;  uncertainty theta = 0.001133, k = 0.149052
        16        15        38     1      121.035461      285.494859    ;  uncertainty theta = 0.001567, k = 0.028924
        16        18        39     1      120.760788      292.340624    ;  uncertainty theta = 0.001328, k = 0.049697
        17        16        18     1      120.006104      442.243297    ;  uncertainty theta = 0.000762, k = 0.110065
        20         6        26     1      113.474648      494.047462    ;  uncertainty theta = 0.019727, k = 0.073813
        20        21        22     1      115.075661      355.582446    ;  uncertainty theta = 0.005809, k = 0.252153
        20        25        24     1      115.075661      355.582478    ;  uncertainty theta = 0.005809, k = 0.252153
        21        20        25     1      130.007050      824.204204    ;  uncertainty theta = 0.006639, k = 0.238957
        21        22        23     1      121.581886      718.445330    ;  uncertainty theta = 0.002681, k = 0.036909
        21        22        41     1      116.833763      324.945959    ;  uncertainty theta = 0.003206, k = 0.148584
        22        23        24     1      114.151039      456.435035    ;  uncertainty theta = 0.007451, k = 0.151463
        22        23        42     1      122.959061      285.874596    ;  uncertainty theta = 0.002861, k = 0.055865
        23        22        41     1      121.965744      276.283305    ;  uncertainty theta = 0.003356, k = 0.102186
        23        24        25     1      121.581886      718.445202    ;  uncertainty theta = 0.002681, k = 0.036909
        23        24        43     1      121.965744      276.283273    ;  uncertainty theta = 0.003356, k = 0.102187
        24        23        42     1      122.959061      285.874596    ;  uncertainty theta = 0.002861, k = 0.055864
        25        24        43     1      116.833763      324.945927    ;  uncertainty theta = 0.003206, k = 0.148584
        28         1        29     1      107.627052      325.730906    ;  uncertainty theta = 0.003369, k = 0.100967
        28         1        30     1      107.627052      325.730906    ;  uncertainty theta = 0.003369, k = 0.100967
        29         1        30     1      107.627052      325.730906    ;  uncertainty theta = 0.003369, k = 0.100967
        31         4        44     1      112.418320      264.652971    ;  uncertainty theta = 0.015777, k = 0.354183

[ dihedrals ] ; propers for gromacs 4.5 or higher, use funct 9
;       ai        aj        ak        al funct           phase               k        pn
         1         2         3         4     9        0.000000       -0.067379         1    ;  uncertainty k = 0.829871
         1         2         3         4     9      180.000000        6.918735         2    ;  uncertainty k = 0.658815
         1         2         3         4     9        0.000000        0.926141         3    ;  uncertainty k = 0.740668
         1         2         3         4     9      180.000000       -0.000459         4    ;  uncertainty k = 0.301720
         1         2         3         5     9        0.000000       -0.522568         1    ;  uncertainty k = 2.586809
         1         2         3         5     9      180.000000        8.524944         2    ;  uncertainty k = 0.306882
         1         2         3         5     9        0.000000        0.253703         3    ;  uncertainty k = 0.104059
         1         2         3         5     9      180.000000       -0.160324         4    ;  uncertainty k = 0.268078
         1         2        26         6     9        0.000000        4.847279         1    ;  uncertainty k = 2.001210
         1         2        26         6     9      180.000000        4.550888         2    ;  uncertainty k = 1.585813
         1         2        26         6     9        0.000000        1.088535         3    ;  uncertainty k = 0.615600
         1         2        26         6     9      180.000000        0.098888         4    ;  uncertainty k = 0.583829
         1         2        26        27     9        0.000000       -0.294165         1    ;  uncertainty k = 3.013205
         1         2        26        27     9      180.000000        8.387578         2    ;  uncertainty k = 0.498373
         1         2        26        27     9        0.000000        0.538169         3    ;  uncertainty k = 0.527476
         1         2        26        27     9      180.000000        0.224470         4    ;  uncertainty k = 0.242014
         2         3         4        31     9        0.000000        7.665919         1    ;  uncertainty k = 2.003747
         2         3         4        31     9      180.000000        9.624109         2    ;  uncertainty k = 0.632906
         2         3         4        31     9        0.000000        0.993137         3    ;  uncertainty k = 0.554027
         2         3         4        31     9      180.000000       -0.982078         4    ;  uncertainty k = 0.232316
         2         3         4        44     9        0.000000        7.665917         1    ;  uncertainty k = 2.003747
         2         3         4        44     9      180.000000        9.624108         2    ;  uncertainty k = 0.632906
         2         3         4        44     9        0.000000        0.993136         3    ;  uncertainty k = 0.554027
         2         3         4        44     9      180.000000       -0.982078         4    ;  uncertainty k = 0.232316
         2         3         5         6     9        0.000000        1.184914         1    ;  uncertainty k = 2.225800
         2         3         5         6     9      180.000000       15.219748         2    ;  uncertainty k = 0.435920
         2         3         5         6     9        0.000000       -0.135249         3    ;  uncertainty k = 0.888012
         2         3         5         6     9      180.000000       -0.569488         4    ;  uncertainty k = 0.319312
         2         3         5        32     9        0.000000        4.305788         1    ;  uncertainty k = 3.774189
         2         3         5        32     9      180.000000       10.850853         2    ;  uncertainty k = 0.672032
         2         3         5        32     9        0.000000        0.864171         3    ;  uncertainty k = 0.882056
         2         3         5        32     9      180.000000       -0.480509         4    ;  uncertainty k = 0.259198
         2        26         6         5     9        0.000000        0.053208         1    ;  uncertainty k = 3.534847
         2        26         6         5     9      180.000000        6.607599         2    ;  uncertainty k = 0.587868
         2        26         6         5     9        0.000000        0.173352         3    ;  uncertainty k = 0.395269
         2        26         6         5     9      180.000000        0.311826         4    ;  uncertainty k = 0.526856
         2        26         6         7     9        0.000000       -2.192700         1    ;  uncertainty k = 2.972294
         2        26         6         7     9      180.000000        1.522497         2    ;  uncertainty k = 1.123983
         2        26         6         7     9        0.000000        1.138782         3    ;  uncertainty k = 0.593206
         2        26         6         7     9      180.000000        0.789779         4    ;  uncertainty k = 0.345295
         2        26         6        20     9        0.000000      -10.674014         1    ;  uncertainty k = 5.720117
         2        26         6        20     9      180.000000        4.147195         2    ;  uncertainty k = 1.289198
         2        26         6        20     9        0.000000        1.063024         3    ;  uncertainty k = 0.628028
         2        26         6        20     9      180.000000        0.648723         4    ;  uncertainty k = 0.317553
         3         2         1        28     9        0.000000       -0.403940         1    ;  uncertainty k = 0.538123
         3         2         1        28     9      180.000000       -1.091858         2    ;  uncertainty k = 0.411688
         3         2         1        28     9        0.000000        0.448329         3    ;  uncertainty k = 0.205289
         3         2         1        28     9      180.000000        0.197474         4    ;  uncertainty k = 0.047500
         3         2         1        29     9        0.000000       -0.403940         1    ;  uncertainty k = 0.538123
         3         2         1        29     9      180.000000       -1.091858         2    ;  uncertainty k = 0.411688
         3         2         1        29     9        0.000000        0.448329         3    ;  uncertainty k = 0.205289
         3         2         1        29     9      180.000000        0.197474         4    ;  uncertainty k = 0.047500
         3         2         1        30     9        0.000000       -0.403940         1    ;  uncertainty k = 0.538123
         3         2         1        30     9      180.000000       -1.091858         2    ;  uncertainty k = 0.411688
         3         2         1        30     9        0.000000        0.448329         3    ;  uncertainty k = 0.205289
         3         2         1        30     9      180.000000        0.197474         4    ;  uncertainty k = 0.047500
         3         2        26         6     9        0.000000        2.642786         1    ;  uncertainty k = 2.280892
         3         2        26         6     9      180.000000        2.917183         2    ;  uncertainty k = 1.504543
         3         2        26         6     9        0.000000       -0.357024         3    ;  uncertainty k = 0.929507
         3         2        26         6     9      180.000000        0.680022         4    ;  uncertainty k = 0.277581
         3         2        26        27     9        0.000000        0.840497         1    ;  uncertainty k = 2.786598
         3         2        26        27     9      180.000000        7.988738         2    ;  uncertainty k = 0.762557
         3         2        26        27     9        0.000000        0.495002         3    ;  uncertainty k = 0.514874
         3         2        26        27     9      180.000000        0.044957         4    ;  uncertainty k = 0.320832
         3         5         6         7     9        0.000000        0.144908         1    ;  uncertainty k = 0.725702
         3         5         6         7     9      180.000000        1.095380         2    ;  uncertainty k = 0.698213
         3         5         6         7     9        0.000000        0.743369         3    ;  uncertainty k = 0.324090
         3         5         6         7     9      180.000000        0.541026         4    ;  uncertainty k = 0.321045
         3         5         6        20     9        0.000000       -0.722702         1    ;  uncertainty k = 3.032560
         3         5         6        20     9      180.000000        2.039301         2    ;  uncertainty k = 0.538917
         3         5         6        20     9        0.000000        0.467647         3    ;  uncertainty k = 0.225481
         3         5         6        20     9      180.000000        0.432981         4    ;  uncertainty k = 0.250034
         3         5         6        26     9        0.000000        2.423202         1    ;  uncertainty k = 1.823939
         3         5         6        26     9      180.000000        2.061411         2    ;  uncertainty k = 0.372506
         3         5         6        26     9        0.000000        0.170914         3    ;  uncertainty k = 0.725402
         3         5         6        26     9      180.000000        0.461286         4    ;  uncertainty k = 0.315507
         4         3         2        26     9        0.000000       -0.649668         1    ;  uncertainty k = 0.927823
         4         3         2        26     9      180.000000        6.544622         2    ;  uncertainty k = 1.385882
         4         3         2        26     9        0.000000        0.178337         3    ;  uncertainty k = 0.725252
         4         3         2        26     9      180.000000       -0.067996         4    ;  uncertainty k = 0.522999
         4         3         5         6     9        0.000000        3.034000         1    ;  uncertainty k = 1.797407
         4         3         5         6     9      180.000000       10.594013         2    ;  uncertainty k = 0.689354
         4         3         5         6     9        0.000000        0.703657         3    ;  uncertainty k = 0.361682
         4         3         5         6     9      180.000000       -0.525569         4    ;  uncertainty k = 0.651491
         4         3         5        32     9        0.000000        2.449452         1    ;  uncertainty k = 3.074929
         4         3         5        32     9      180.000000        7.321555         2    ;  uncertainty k = 1.138922
         4         3         5        32     9        0.000000        0.896279         3    ;  uncertainty k = 0.225625
         4         3         5        32     9      180.000000       -0.278798         4    ;  uncertainty k = 0.251907
         5         3         2        26     9        0.000000       -0.665041         1    ;  uncertainty k = 1.364506
         5         3         2        26     9      180.000000        8.588652         2    ;  uncertainty k = 0.946143
         5         3         2        26     9        0.000000       -1.156234         3    ;  uncertainty k = 1.172335
         5         3         2        26     9      180.000000       -0.007427         4    ;  uncertainty k = 0.432180
         5         3         4        31     9        0.000000        5.380862         1    ;  uncertainty k = 1.793168
         5         3         4        31     9      180.000000       10.749118         2    ;  uncertainty k = 0.286831
         5         3         4        31     9        0.000000        1.461956         3    ;  uncertainty k = 0.464338
         5         3         4        31     9      180.000000       -0.759144         4    ;  uncertainty k = 0.309768
         5         3         4        44     9        0.000000        5.380864         1    ;  uncertainty k = 1.793167
         5         3         4        44     9      180.000000       10.749121         2    ;  uncertainty k = 0.286830
         5         3         4        44     9        0.000000        1.461955         3    ;  uncertainty k = 0.464337
         5         3         4        44     9      180.000000       -0.759145         4    ;  uncertainty k = 0.309769
         5         6         7         8     9        0.000000       -0.623057         1    ;  uncertainty k = 1.439311
         5         6         7         8     9      180.000000        2.671610         2    ;  uncertainty k = 0.590032
         5         6         7         8     9        0.000000        0.482420         3    ;  uncertainty k = 0.247013
         5         6         7         8     9      180.000000        0.333886         4    ;  uncertainty k = 0.176235
         5         6         7        19     9        0.000000       -0.487200         1    ;  uncertainty k = 1.390016
         5         6         7        19     9      180.000000        2.681302         2    ;  uncertainty k = 0.648998
         5         6         7        19     9        0.000000        0.443780         3    ;  uncertainty k = 0.229816
         5         6         7        19     9      180.000000        0.334682         4    ;  uncertainty k = 0.187905
         5         6        20        21     9        0.000000        3.072511         1    ;  uncertainty k = 1.916335
         5         6        20        21     9      180.000000        4.661631         2    ;  uncertainty k = 0.472430
         5         6        20        21     9        0.000000        0.357847         3    ;  uncertainty k = 0.291523
         5         6        20        21     9      180.000000        0.216692         4    ;  uncertainty k = 0.169413
         5         6        20        25     9        0.000000        3.072510         1    ;  uncertainty k = 1.916334
         5         6        20        25     9      180.000000        4.661632         2    ;  uncertainty k = 0.472430
         5         6        20        25     9        0.000000        0.357847         3    ;  uncertainty k = 0.291523
         5         6        20        25     9      180.000000        0.216693         4    ;  uncertainty k = 0.169414
         5         6        26        27     9        0.000000        0.018784         1    ;  uncertainty k = 2.954677
         5         6        26        27     9      180.000000        3.315645         2    ;  uncertainty k = 1.653661
         5         6        26        27     9        0.000000        0.164773         3    ;  uncertainty k = 0.519508
         5         6        26        27     9      180.000000        0.370837         4    ;  uncertainty k = 0.165142
         6         7         8         9     9        0.000000        0.061437         1    ;  uncertainty k = 0.250049
         6         7         8         9     9      180.000000        9.123765         2    ;  uncertainty k = 0.318067
         6         7         8         9     9        0.000000        1.407726         3    ;  uncertainty k = 0.400923
         6         7         8         9     9      180.000000        1.791278         4    ;  uncertainty k = 0.103771
         6         7         8        33     9        0.000000       -0.419460         1    ;  uncertainty k = 0.106085
         6         7         8        33     9      180.000000        6.921988         2    ;  uncertainty k = 0.479735
         6         7         8        33     9        0.000000        0.529481         3    ;  uncertainty k = 0.387031
         6         7         8        33     9      180.000000        1.000213         4    ;  uncertainty k = 0.236645
         6         7        19        11     9        0.000000        0.046182         1    ;  uncertainty k = 0.202420
         6         7        19        11     9      180.000000        8.478499         2    ;  uncertainty k = 0.359979
         6         7        19        11     9        0.000000        1.305682         3    ;  uncertainty k = 0.257837
         6         7        19        11     9      180.000000        1.822137         4    ;  uncertainty k = 0.096605
         6         7        19        40     9        0.000000       -0.355999         1    ;  uncertainty k = 0.157636
         6         7        19        40     9      180.000000        7.089974         2    ;  uncertainty k = 0.515235
         6         7        19        40     9        0.000000        0.506296         3    ;  uncertainty k = 0.426578
         6         7        19        40     9      180.000000        1.049008         4    ;  uncertainty k = 0.282324
         6        20        21        22     9        0.000000        0.984390         1    ;  uncertainty k = 1.749975
         6        20        21        22     9      180.000000       13.202403         2    ;  uncertainty k = 0.600872
         6        20        21        22     9        0.000000        2.327468         3    ;  uncertainty k = 0.900369
         6        20        21        22     9      180.000000        1.205905         4    ;  uncertainty k = 0.303731
         6        20        25        24     9        0.000000        0.984390         1    ;  uncertainty k = 1.749976
         6        20        25        24     9      180.000000       13.202401         2    ;  uncertainty k = 0.600872
         6        20        25        24     9        0.000000        2.327469         3    ;  uncertainty k = 0.900369
         6        20        25        24     9      180.000000        1.205906         4    ;  uncertainty k = 0.303731
         7         6         5        32     9        0.000000        3.434923         1    ;  uncertainty k = 1.414916
         7         6         5        32     9      180.000000        0.158476         2    ;  uncertainty k = 1.108856
         7         6         5        32     9        0.000000        0.562021         3    ;  uncertainty k = 0.555403
         7         6         5        32     9      180.000000        0.045804         4    ;  uncertainty k = 0.178601
         7         6        20        21     9        0.000000        0.709051         1    ;  uncertainty k = 1.454393
         7         6        20        21     9      180.000000        2.516850         2    ;  uncertainty k = 0.318677
         7         6        20        21     9        0.000000        0.313844         3    ;  uncertainty k = 0.313457
         7         6        20        21     9      180.000000        0.242573         4    ;  uncertainty k = 0.074376
         7         6        20        25     9        0.000000        0.709050         1    ;  uncertainty k = 1.454394
         7         6        20        25     9      180.000000        2.516850         2    ;  uncertainty k = 0.318677
         7         6        20        25     9        0.000000        0.313844         3    ;  uncertainty k = 0.313456
         7         6        20        25     9      180.000000        0.242573         4    ;  uncertainty k = 0.074376
         7         6        26        27     9        0.000000       -0.143557         1    ;  uncertainty k = 1.809932
         7         6        26        27     9      180.000000        3.391676         2    ;  uncertainty k = 0.684681
         7         6        26        27     9        0.000000        0.281384         3    ;  uncertainty k = 0.295446
         7         6        26        27     9      180.000000        0.053149         4    ;  uncertainty k = 0.237083
         7         8         9        10     9        0.000000        0.003975         1    ;  uncertainty k = 0.234017
         7         8         9        10     9      180.000000       13.285239         2    ;  uncertainty k = 0.405135
         7         8         9        10     9        0.000000       -0.845153         3    ;  uncertainty k = 0.481570
         7         8         9        10     9      180.000000        0.763807         4    ;  uncertainty k = 0.217181
         7         8         9        34     9        0.000000        0.146572         1    ;  uncertainty k = 0.358746
         7         8         9        34     9      180.000000        7.605130         2    ;  uncertainty k = 0.226638
         7         8         9        34     9        0.000000        1.424377         3    ;  uncertainty k = 0.133944
         7         8         9        34     9      180.000000        1.789734         4    ;  uncertainty k = 0.182605
         7        19        11        10     9        0.000000        0.192749         1    ;  uncertainty k = 0.464701
         7        19        11        10     9      180.000000        9.931137         2    ;  uncertainty k = 0.484220
         7        19        11        10     9        0.000000       -0.075864         3    ;  uncertainty k = 0.230311
         7        19        11        10     9      180.000000        1.119180         4    ;  uncertainty k = 0.292106
         7        19        11        12     9        0.000000        0.339116         1    ;  uncertainty k = 0.104800
         7        19        11        12     9      180.000000        8.438668         2    ;  uncertainty k = 0.475478
         7        19        11        12     9        0.000000        1.305633         3    ;  uncertainty k = 0.431264
         7        19        11        12     9      180.000000        1.721686         4    ;  uncertainty k = 0.110284
         8         7         6        20     9        0.000000        0.827030         1    ;  uncertainty k = 1.350912
         8         7         6        20     9      180.000000        1.266438         2    ;  uncertainty k = 0.704143
         8         7         6        20     9        0.000000        0.287692         3    ;  uncertainty k = 0.087012
         8         7         6        20     9      180.000000        0.063572         4    ;  uncertainty k = 0.115529
         8         7         6        26     9        0.000000        0.305573         1    ;  uncertainty k = 1.314949
         8         7         6        26     9      180.000000        0.961743         2    ;  uncertainty k = 0.542285
         8         7         6        26     9        0.000000        0.451644         3    ;  uncertainty k = 0.039683
         8         7         6        26     9      180.000000        0.291400         4    ;  uncertainty k = 0.181796
         8         7        19        11     9        0.000000       -0.350369         1    ;  uncertainty k = 0.446794
         8         7        19        11     9      180.000000       11.629607         2    ;  uncertainty k = 0.137765
         8         7        19        11     9        0.000000       -0.216453         3    ;  uncertainty k = 0.188476
         8         7        19        11     9      180.000000        0.965999         4    ;  uncertainty k = 0.186313
         8         7        19        40     9        0.000000        0.297159         1    ;  uncertainty k = 0.097349
         8         7        19        40     9      180.000000        7.780085         2    ;  uncertainty k = 0.553307
         8         7        19        40     9        0.000000        1.314548         3    ;  uncertainty k = 0.378501
         8         7        19        40     9      180.000000        1.647405         4    ;  uncertainty k = 0.214649
         8         9        10        11     9        0.000000       -0.084173         1    ;  uncertainty k = 0.250079
         8         9        10        11     9      180.000000       13.905642         2    ;  uncertainty k = 0.272364
         8         9        10        11     9        0.000000       -0.827891         3    ;  uncertainty k = 0.469157
         8         9        10        11     9      180.000000        0.723736         4    ;  uncertainty k = 0.207501
         8         9        10        35     9        0.000000        0.005220         1    ;  uncertainty k = 0.130725
         8         9        10        35     9      180.000000        7.684233         2    ;  uncertainty k = 0.201805
         8         9        10        35     9        0.000000        1.426693         3    ;  uncertainty k = 0.211164
         8         9        10        35     9      180.000000        1.806986         4    ;  uncertainty k = 0.229837
         9         8         7        19     9        0.000000       -0.312016         1    ;  uncertainty k = 0.339408
         9         8         7        19     9      180.000000       12.031473         2    ;  uncertainty k = 0.308779
         9         8         7        19     9        0.000000       -0.552389         3    ;  uncertainty k = 0.183621
         9         8         7        19     9      180.000000        0.852265         4    ;  uncertainty k = 0.255567
         9        10        11        12     9        0.000000        0.049063         1    ;  uncertainty k = 0.223194
         9        10        11        12     9      180.000000        8.981274         2    ;  uncertainty k = 0.562006
         9        10        11        12     9        0.000000        1.186843         3    ;  uncertainty k = 0.433239
         9        10        11        12     9      180.000000        1.736601         4    ;  uncertainty k = 0.174677
         9        10        11        19     9        0.000000        0.152407         1    ;  uncertainty k = 0.220824
         9        10        11        19     9      180.000000       11.055543         2    ;  uncertainty k = 0.228533
         9        10        11        19     9        0.000000       -0.446850         3    ;  uncertainty k = 0.345678
         9        10        11        19     9      180.000000        0.958479         4    ;  uncertainty k = 0.273720
        10         9         8        33     9        0.000000        0.055487         1    ;  uncertainty k = 0.097793
        10         9         8        33     9      180.000000        7.794735         2    ;  uncertainty k = 0.390051
        10         9         8        33     9        0.000000        1.354884         3    ;  uncertainty k = 0.249505
        10         9         8        33     9      180.000000        1.808455         4    ;  uncertainty k = 0.097368
        10        11        12        13     9        0.000000       -0.408717         1    ;  uncertainty k = 0.427326
        10        11        12        13     9      180.000000        3.910175         2    ;  uncertainty k = 0.069113
        10        11        12        13     9        0.000000        0.295018         3    ;  uncertainty k = 0.129989
        10        11        12        13     9      180.000000       -0.084564         4    ;  uncertainty k = 0.059893
        10        11        12        18     9        0.000000       -0.384458         1    ;  uncertainty k = 0.345316
        10        11        12        18     9      180.000000        3.939023         2    ;  uncertainty k = 0.071369
        10        11        12        18     9        0.000000        0.277955         3    ;  uncertainty k = 0.120919
        10        11        12        18     9      180.000000       -0.060721         4    ;  uncertainty k = 0.040687
        10        11        19        40     9        0.000000        0.104536         1    ;  uncertainty k = 0.188778
        10        11        19        40     9      180.000000        7.242833         2    ;  uncertainty k = 0.699456
        10        11        19        40     9        0.000000        1.420608         3    ;  uncertainty k = 0.102279
        10        11        19        40     9      180.000000        1.631385         4    ;  uncertainty k = 0.244464
        11        10         9        34     9        0.000000        0.004846         1    ;  uncertainty k = 0.185506
        11        10         9        34     9      180.000000        7.682975         2    ;  uncertainty k = 0.355739
        11        10         9        34     9        0.000000        1.346210         3    ;  uncertainty k = 0.215124
        11        10         9        34     9      180.000000        1.832713         4    ;  uncertainty k = 0.197660
        11        12        13        14     9        0.000000       -0.012184         1    ;  uncertainty k = 0.227422
        11        12        13        14     9      180.000000        8.758916         2    ;  uncertainty k = 0.613456
        11        12        13        14     9        0.000000        1.208763         3    ;  uncertainty k = 0.406041
        11        12        13        14     9      180.000000        1.774600         4    ;  uncertainty k = 0.160441
        11        12        13        36     9        0.000000       -0.232931         1    ;  uncertainty k = 0.316358
        11        12        13        36     9      180.000000        7.089907         2    ;  uncertainty k = 0.463208
        11        12        13        36     9        0.000000        0.824541         3    ;  uncertainty k = 0.159657
        11        12        13        36     9      180.000000        1.171341         4    ;  uncertainty k = 0.211972
        11        12        18        16     9        0.000000        0.081828         1    ;  uncertainty k = 0.177881
        11        12        18        16     9      180.000000        8.977720         2    ;  uncertainty k = 0.389832
        11        12        18        16     9        0.000000        1.285568         3    ;  uncertainty k = 0.282771
        11        12        18        16     9      180.000000        1.701574         4    ;  uncertainty k = 0.067432
        11        12        18        39     9        0.000000       -0.199323         1    ;  uncertainty k = 0.276024
        11        12        18        39     9      180.000000        7.103119         2    ;  uncertainty k = 0.424011
        11        12        18        39     9        0.000000        0.828277         3    ;  uncertainty k = 0.177369
        11        12        18        39     9      180.000000        1.171126         4    ;  uncertainty k = 0.201356
        12        11        10        35     9        0.000000       -0.135992         1    ;  uncertainty k = 0.280065
        12        11        10        35     9      180.000000        7.186357         2    ;  uncertainty k = 0.470277
        12        11        10        35     9        0.000000        0.826873         3    ;  uncertainty k = 0.116546
        12        11        10        35     9      180.000000        1.194064         4    ;  uncertainty k = 0.174597
        12        11        19        40     9        0.000000       -0.073813         1    ;  uncertainty k = 0.164497
        12        11        19        40     9      180.000000        7.324858         2    ;  uncertainty k = 0.240839
        12        11        19        40     9        0.000000        0.863716         3    ;  uncertainty k = 0.175261
        12        11        19        40     9      180.000000        1.304416         4    ;  uncertainty k = 0.179998
        12        13        14        15     9        0.000000       -0.042208         1    ;  uncertainty k = 0.231516
        12        13        14        15     9      180.000000       14.171992         2    ;  uncertainty k = 0.189515
        12        13        14        15     9        0.000000       -0.870742         3    ;  uncertainty k = 0.485056
        12        13        14        15     9      180.000000        0.699208         4    ;  uncertainty k = 0.253427
        12        13        14        37     9        0.000000        0.022680         1    ;  uncertainty k = 0.242894
        12        13        14        37     9      180.000000        7.703942         2    ;  uncertainty k = 0.339132
        12        13        14        37     9        0.000000        1.372427         3    ;  uncertainty k = 0.261098
        12        13        14        37     9      180.000000        1.835688         4    ;  uncertainty k = 0.149481
        12        18        16        15     9        0.000000       -0.010279         1    ;  uncertainty k = 0.315076
        12        18        16        15     9      180.000000        9.861218         2    ;  uncertainty k = 0.417908
        12        18        16        15     9        0.000000       -0.044172         3    ;  uncertainty k = 0.331365
        12        18        16        15     9      180.000000        1.160540         4    ;  uncertainty k = 0.311928
        12        18        16        17     9        0.000000        0.036466         1    ;  uncertainty k = 0.115484
        12        18        16        17     9      180.000000        9.485434         2    ;  uncertainty k = 0.578648
        12        18        16        17     9        0.000000        1.367643         3    ;  uncertainty k = 0.425703
        12        18        16        17     9      180.000000        1.685065         4    ;  uncertainty k = 0.101287
        13        12        11        19     9        0.000000       -0.208019         1    ;  uncertainty k = 0.429896
        13        12        11        19     9      180.000000        4.197410         2    ;  uncertainty k = 0.154896
        13        12        11        19     9        0.000000        0.289953         3    ;  uncertainty k = 0.155575
        13        12        11        19     9      180.000000       -0.008310         4    ;  uncertainty k = 0.061310
        13        12        18        16     9        0.000000        0.112971         1    ;  uncertainty k = 0.107592
        13        12        18        16     9      180.000000       11.459687         2    ;  uncertainty k = 0.265370
        13        12        18        16     9        0.000000       -0.359029         3    ;  uncertainty k = 0.399359
        13        12        18        16     9      180.000000        0.945001         4    ;  uncertainty k = 0.278886
        13        12        18        39     9        0.000000        0.189437         1    ;  uncertainty k = 0.134814
        13        12        18        39     9      180.000000        6.927558         2    ;  uncertainty k = 0.531255
        13        12        18        39     9        0.000000        1.476130         3    ;  uncertainty k = 0.227216
        13        12        18        39     9      180.000000        1.643456         4    ;  uncertainty k = 0.236170
        13        14        15        16     9        0.000000        0.034101         1    ;  uncertainty k = 0.181604
        13        14        15        16     9      180.000000       14.637857         2    ;  uncertainty k = 0.207905
        13        14        15        16     9        0.000000       -1.037223         3    ;  uncertainty k = 0.574419
        13        14        15        16     9      180.000000        0.689985         4    ;  uncertainty k = 0.252256
        13        14        15        38     9        0.000000        0.080157         1    ;  uncertainty k = 0.044174
        13        14        15        38     9      180.000000        7.631927         2    ;  uncertainty k = 0.319811
        13        14        15        38     9        0.000000        1.497161         3    ;  uncertainty k = 0.267179
        13        14        15        38     9      180.000000        1.800300         4    ;  uncertainty k = 0.165698
        14        13        12        18     9        0.000000       -0.014258         1    ;  uncertainty k = 0.046197
        14        13        12        18     9      180.000000       11.353969         2    ;  uncertainty k = 0.284679
        14        13        12        18     9        0.000000       -0.419125         3    ;  uncertainty k = 0.329524
        14        13        12        18     9      180.000000        0.851477         4    ;  uncertainty k = 0.284931
        14        15        16        17     9        0.000000        0.039415         1    ;  uncertainty k = 0.185710
        14        15        16        17     9      180.000000        9.400893         2    ;  uncertainty k = 0.673917
        14        15        16        17     9        0.000000        1.522713         3    ;  uncertainty k = 0.432767
        14        15        16        17     9      180.000000        1.637619         4    ;  uncertainty k = 0.162550
        14        15        16        18     9        0.000000       -0.035280         1    ;  uncertainty k = 0.114525
        14        15        16        18     9      180.000000       10.458549         2    ;  uncertainty k = 0.352853
        14        15        16        18     9        0.000000       -0.351603         3    ;  uncertainty k = 0.544621
        14        15        16        18     9      180.000000        0.999885         4    ;  uncertainty k = 0.326950
        15        14        13        36     9        0.000000        0.052492         1    ;  uncertainty k = 0.058932
        15        14        13        36     9      180.000000        7.952026         2    ;  uncertainty k = 0.267692
        15        14        13        36     9        0.000000        1.470677         3    ;  uncertainty k = 0.256858
        15        14        13        36     9      180.000000        1.851649         4    ;  uncertainty k = 0.164393
        15        16        18        39     9        0.000000       -0.045893         1    ;  uncertainty k = 0.245307
        15        16        18        39     9      180.000000        6.349827         2    ;  uncertainty k = 0.564330
        15        16        18        39     9        0.000000        1.416183         3    ;  uncertainty k = 0.310677
        15        16        18        39     9      180.000000        1.600595         4    ;  uncertainty k = 0.148712
        16        15        14        37     9        0.000000        0.013468         1    ;  uncertainty k = 0.140072
        16        15        14        37     9      180.000000        7.595964         2    ;  uncertainty k = 0.326736
        16        15        14        37     9        0.000000        1.451185         3    ;  uncertainty k = 0.275082
        16        15        14        37     9      180.000000        1.856285         4    ;  uncertainty k = 0.184737
        17        16        15        38     9        0.000000       -0.148142         1    ;  uncertainty k = 0.212406
        17        16        15        38     9      180.000000        7.328405         2    ;  uncertainty k = 0.291144
        17        16        15        38     9        0.000000        0.580550         3    ;  uncertainty k = 0.353024
        17        16        15        38     9      180.000000        0.942602         4    ;  uncertainty k = 0.155635
        17        16        18        39     9        0.000000       -0.243273         1    ;  uncertainty k = 0.262026
        17        16        18        39     9      180.000000        7.505922         2    ;  uncertainty k = 0.286010
        17        16        18        39     9        0.000000        0.606748         3    ;  uncertainty k = 0.290520
        17        16        18        39     9      180.000000        1.026416         4    ;  uncertainty k = 0.149534
        18        12        11        19     9        0.000000       -0.162097         1    ;  uncertainty k = 0.353830
        18        12        11        19     9      180.000000        4.206600         2    ;  uncertainty k = 0.151794
        18        12        11        19     9        0.000000        0.254608         3    ;  uncertainty k = 0.163226
        18        12        11        19     9      180.000000        0.014384         4    ;  uncertainty k = 0.058256
        18        12        13        36     9        0.000000        0.134272         1    ;  uncertainty k = 0.144927
        18        12        13        36     9      180.000000        6.905301         2    ;  uncertainty k = 0.558344
        18        12        13        36     9        0.000000        1.477109         3    ;  uncertainty k = 0.223699
        18        12        13        36     9      180.000000        1.638259         4    ;  uncertainty k = 0.236471
        18        16        15        38     9        0.000000        0.008768         1    ;  uncertainty k = 0.120181
        18        16        15        38     9      180.000000        6.217604         2    ;  uncertainty k = 0.626406
        18        16        15        38     9        0.000000        1.411019         3    ;  uncertainty k = 0.350782
        18        16        15        38     9      180.000000        1.518245         4    ;  uncertainty k = 0.154069
        19         7         6        20     9        0.000000        0.776991         1    ;  uncertainty k = 1.442448
        19         7         6        20     9      180.000000        1.336473         2    ;  uncertainty k = 0.624467
        19         7         6        20     9        0.000000        0.229104         3    ;  uncertainty k = 0.111699
        19         7         6        20     9      180.000000        0.071207         4    ;  uncertainty k = 0.098884
        19         7         6        26     9        0.000000        0.309664         1    ;  uncertainty k = 1.369288
        19         7         6        26     9      180.000000        0.969931         2    ;  uncertainty k = 0.485084
        19         7         6        26     9        0.000000        0.391875         3    ;  uncertainty k = 0.093711
        19         7         6        26     9      180.000000        0.294690         4    ;  uncertainty k = 0.173115
        19         7         8        33     9        0.000000        0.332703         1    ;  uncertainty k = 0.194788
        19         7         8        33     9      180.000000        7.634544         2    ;  uncertainty k = 0.587491
        19         7         8        33     9        0.000000        1.275536         3    ;  uncertainty k = 0.356012
        19         7         8        33     9      180.000000        1.657561         4    ;  uncertainty k = 0.225205
        19        11        10        35     9        0.000000        0.158379         1    ;  uncertainty k = 0.192612
        19        11        10        35     9      180.000000        7.147755         2    ;  uncertainty k = 0.464511
        19        11        10        35     9        0.000000        1.387409         3    ;  uncertainty k = 0.246592
        19        11        10        35     9      180.000000        1.584890         4    ;  uncertainty k = 0.265102
        20         6         5        32     9        0.000000        3.782496         1    ;  uncertainty k = 0.882785
        20         6         5        32     9      180.000000       -0.668170         2    ;  uncertainty k = 0.831911
        20         6         5        32     9        0.000000        0.149167         3    ;  uncertainty k = 0.502783
        20         6         5        32     9      180.000000        0.160285         4    ;  uncertainty k = 0.102924
        20         6        26        27     9        0.000000       -2.925171         1    ;  uncertainty k = 2.558590
        20         6        26        27     9      180.000000        4.759212         2    ;  uncertainty k = 0.777328
        20         6        26        27     9        0.000000        0.206892         3    ;  uncertainty k = 0.365814
        20         6        26        27     9      180.000000       -0.030889         4    ;  uncertainty k = 0.274068
        20        21        22        23     9        0.000000       -0.300718         1    ;  uncertainty k = 0.275855
        20        21        22        23     9      180.000000       14.437325         2    ;  uncertainty k = 0.400512
        20        21        22        23     9        0.000000        0.156639         3    ;  uncertainty k = 0.699231
        20        21        22        23     9      180.000000        1.303614         4    ;  uncertainty k = 0.273745
        20        21        22        41     9        0.000000        0.894416         1    ;  uncertainty k = 1.243026
        20        21        22        41     9      180.000000       14.893825         2    ;  uncertainty k = 0.375907
        20        21        22        41     9        0.000000        1.991804         3    ;  uncertainty k = 0.815549
        20        21        22        41     9      180.000000        1.319611         4    ;  uncertainty k = 0.308066
        20        25        24        23     9        0.000000       -0.300717         1    ;  uncertainty k = 0.275856
        20        25        24        23     9      180.000000       14.437322         2    ;  uncertainty k = 0.400512
        20        25        24        23     9        0.000000        0.156638         3    ;  uncertainty k = 0.699232
        20        25        24        23     9      180.000000        1.303614         4    ;  uncertainty k = 0.273745
        20        25        24        43     9        0.000000        0.894417         1    ;  uncertainty k = 1.243025
        20        25        24        43     9      180.000000       14.893827         2    ;  uncertainty k = 0.375907
        20        25        24        43     9        0.000000        1.991804         3    ;  uncertainty k = 0.815550
        20        25        24        43     9      180.000000        1.319611         4    ;  uncertainty k = 0.308066
        21        20         6        26     9        0.000000       -1.094290         1    ;  uncertainty k = 1.616283
        21        20         6        26     9      180.000000        3.803156         2    ;  uncertainty k = 0.648195
        21        20         6        26     9        0.000000        0.272241         3    ;  uncertainty k = 0.376859
        21        20         6        26     9      180.000000        0.287240         4    ;  uncertainty k = 0.118044
        21        20        25        24     9        0.000000       -0.773540         1    ;  uncertainty k = 0.365478
        21        20        25        24     9      180.000000       14.410674         2    ;  uncertainty k = 0.352176
        21        20        25        24     9        0.000000        0.710530         3    ;  uncertainty k = 0.662030
        21        20        25        24     9      180.000000        1.116011         4    ;  uncertainty k = 0.157677
        21        22        23        24     9        0.000000       -0.197257         1    ;  uncertainty k = 0.468205
        21        22        23        24     9      180.000000       14.683250         2    ;  uncertainty k = 0.390694
        21        22        23        24     9        0.000000       -1.856140         3    ;  uncertainty k = 0.831873
        21        22        23        24     9      180.000000        0.842503         4    ;  uncertainty k = 0.150665
        21        22        23        42     9        0.000000       -0.006393         1    ;  uncertainty k = 0.437170
        21        22        23        42     9      180.000000        9.671655         2    ;  uncertainty k = 0.655928
        21        22        23        42     9        0.000000        0.889862         3    ;  uncertainty k = 0.387893
        21        22        23        42     9      180.000000        1.660497         4    ;  uncertainty k = 0.131267
        22        21        20        25     9        0.000000       -0.773541         1    ;  uncertainty k = 0.365479
        22        21        20        25     9      180.000000       14.410674         2    ;  uncertainty k = 0.352175
        22        21        20        25     9        0.000000        0.710530         3    ;  uncertainty k = 0.662030
        22        21        20        25     9      180.000000        1.116011         4    ;  uncertainty k = 0.157678
        22        23        24        25     9        0.000000       -0.197256         1    ;  uncertainty k = 0.468204
        22        23        24        25     9      180.000000       14.683250         2    ;  uncertainty k = 0.390694
        22        23        24        25     9        0.000000       -1.856140         3    ;  uncertainty k = 0.831872
        22        23        24        25     9      180.000000        0.842503         4    ;  uncertainty k = 0.150666
        22        23        24        43     9        0.000000       -0.693698         1    ;  uncertainty k = 0.327792
        22        23        24        43     9      180.000000        6.242657         2    ;  uncertainty k = 0.512121
        22        23        24        43     9        0.000000        0.837219         3    ;  uncertainty k = 0.199781
        22        23        24        43     9      180.000000        1.169350         4    ;  uncertainty k = 0.136567
        24        23        22        41     9        0.000000       -0.693699         1    ;  uncertainty k = 0.327793
        24        23        22        41     9      180.000000        6.242657         2    ;  uncertainty k = 0.512121
        24        23        22        41     9        0.000000        0.837218         3    ;  uncertainty k = 0.199780
        24        23        22        41     9      180.000000        1.169351         4    ;  uncertainty k = 0.136568
        25        20         6        26     9        0.000000       -1.094291         1    ;  uncertainty k = 1.616282
        25        20         6        26     9      180.000000        3.803156         2    ;  uncertainty k = 0.648195
        25        20         6        26     9        0.000000        0.272241         3    ;  uncertainty k = 0.376859
        25        20         6        26     9      180.000000        0.287239         4    ;  uncertainty k = 0.118044
        25        24        23        42     9        0.000000       -0.006394         1    ;  uncertainty k = 0.437170
        25        24        23        42     9      180.000000        9.671654         2    ;  uncertainty k = 0.655927
        25        24        23        42     9        0.000000        0.889862         3    ;  uncertainty k = 0.387893
        25        24        23        42     9      180.000000        1.660497         4    ;  uncertainty k = 0.131268
        26         2         1        28     9        0.000000        0.310068         1    ;  uncertainty k = 0.411441
        26         2         1        28     9      180.000000       -0.019061         2    ;  uncertainty k = 0.318743
        26         2         1        28     9        0.000000        0.334391         3    ;  uncertainty k = 0.234298
        26         2         1        28     9      180.000000        0.304383         4    ;  uncertainty k = 0.083410
        26         2         1        29     9        0.000000        0.310068         1    ;  uncertainty k = 0.411441
        26         2         1        29     9      180.000000       -0.019061         2    ;  uncertainty k = 0.318743
        26         2         1        29     9        0.000000        0.334391         3    ;  uncertainty k = 0.234298
        26         2         1        29     9      180.000000        0.304383         4    ;  uncertainty k = 0.083410
        26         2         1        30     9        0.000000        0.310068         1    ;  uncertainty k = 0.411441
        26         2         1        30     9      180.000000       -0.019061         2    ;  uncertainty k = 0.318743
        26         2         1        30     9        0.000000        0.334391         3    ;  uncertainty k = 0.234298
        26         2         1        30     9      180.000000        0.304383         4    ;  uncertainty k = 0.083410
        26         6         5        32     9        0.000000        0.437664         1    ;  uncertainty k = 1.928945
        26         6         5        32     9      180.000000        0.320243         2    ;  uncertainty k = 2.298558
        26         6         5        32     9        0.000000        0.367994         3    ;  uncertainty k = 0.496661
        26         6         5        32     9      180.000000        0.056580         4    ;  uncertainty k = 0.190610
        33         8         9        34     9        0.000000       -0.178627         1    ;  uncertainty k = 0.362584
        33         8         9        34     9      180.000000        7.846384         2    ;  uncertainty k = 0.326363
        33         8         9        34     9        0.000000       -0.467119         3    ;  uncertainty k = 0.330417
        33         8         9        34     9      180.000000        0.167186         4    ;  uncertainty k = 0.199576
        34         9        10        35     9        0.000000       -0.091339         1    ;  uncertainty k = 0.201671
        34         9        10        35     9      180.000000        7.955101         2    ;  uncertainty k = 0.286440
        34         9        10        35     9        0.000000       -0.501360         3    ;  uncertainty k = 0.277132
        34         9        10        35     9      180.000000        0.117607         4    ;  uncertainty k = 0.149001
        36        13        14        37     9        0.000000       -0.071837         1    ;  uncertainty k = 0.139578
        36        13        14        37     9      180.000000        7.837295         2    ;  uncertainty k = 0.341152
        36        13        14        37     9        0.000000       -0.474130         3    ;  uncertainty k = 0.274222
        36        13        14        37     9      180.000000        0.116282         4    ;  uncertainty k = 0.133076
        37        14        15        38     9        0.000000       -0.080242         1    ;  uncertainty k = 0.065182
        37        14        15        38     9      180.000000        7.728195         2    ;  uncertainty k = 0.460598
        37        14        15        38     9        0.000000       -0.435760         3    ;  uncertainty k = 0.241595
        37        14        15        38     9      180.000000        0.035511         4    ;  uncertainty k = 0.167623
        41        22        23        42     9        0.000000       -0.470831         1    ;  uncertainty k = 0.262302
        41        22        23        42     9      180.000000        6.764620         2    ;  uncertainty k = 0.243550
        41        22        23        42     9        0.000000        0.016424         3    ;  uncertainty k = 0.205255
        41        22        23        42     9      180.000000        0.349865         4    ;  uncertainty k = 0.090673
        42        23        24        43     9        0.000000       -0.470830         1    ;  uncertainty k = 0.262303
        42        23        24        43     9      180.000000        6.764619         2    ;  uncertainty k = 0.243549
        42        23        24        43     9        0.000000        0.016424         3    ;  uncertainty k = 0.205254
        42        23        24        43     9      180.000000        0.349864         4    ;  uncertainty k = 0.090673

[ dihedrals ] ; impropers
;       ai        aj        ak        al funct           phase               k        pn
         2         1         3        26     4      180.000000        1.996869         2    ;  uncertainty k = 0.521854
         2         3        26         1     4      180.000000        1.996869         2    ;  uncertainty k = 0.521854
         2        26         1         3     4      180.000000        1.996869         2    ;  uncertainty k = 0.521854
         3         2         4         5     4      180.000000       30.357220         2    ;  uncertainty k = 0.147272
         3         4         5         2     4      180.000000       30.357220         2    ;  uncertainty k = 0.147272
         3         5         2         4     4      180.000000       30.357220         2    ;  uncertainty k = 0.147272
         4         3        31        44     4      180.000000        0.154440         2    ;  uncertainty k = 0.345339
         4        31        44         3     4      180.000000        0.154440         2    ;  uncertainty k = 0.345339
         4        44         3        31     4      180.000000        0.154440         2    ;  uncertainty k = 0.345339
         7         6         8        19     4      180.000000        9.747215         2    ;  uncertainty k = 0.222694
         7         8        19         6     4      180.000000        9.747215         2    ;  uncertainty k = 0.222694
         7        19         6         8     4      180.000000        9.747215         2    ;  uncertainty k = 0.222694
         8         7         9        33     4      180.000000        4.127710         2    ;  uncertainty k = 0.167703
         8         9        33         7     4      180.000000        4.127710         2    ;  uncertainty k = 0.167703
         8        33         7         9     4      180.000000        4.127710         2    ;  uncertainty k = 0.167703
         9         8        10        34     4      180.000000        4.122093         2    ;  uncertainty k = 0.159131
         9        10        34         8     4      180.000000        4.122093         2    ;  uncertainty k = 0.159131
         9        34         8        10     4      180.000000        4.122093         2    ;  uncertainty k = 0.159131
        10         9        11        35     4      180.000000        4.561358         2    ;  uncertainty k = 0.119601
        10        11        35         9     4      180.000000        4.561358         2    ;  uncertainty k = 0.119601
        10        35         9        11     4      180.000000        4.561358         2    ;  uncertainty k = 0.119601
        11        10        12        19     4      180.000000       15.273139         2    ;  uncertainty k = 0.058411
        11        12        19        10     4      180.000000       15.273139         2    ;  uncertainty k = 0.058411
        11        19        10        12     4      180.000000       15.273139         2    ;  uncertainty k = 0.058411
        12        11        13        18     4      180.000000       14.796451         2    ;  uncertainty k = 0.057403
        12        13        18        11     4      180.000000       14.796451         2    ;  uncertainty k = 0.057403
        12        18        11        13     4      180.000000       14.796451         2    ;  uncertainty k = 0.057403
        13        12        14        36     4      180.000000        3.700191         2    ;  uncertainty k = 0.086941
        13        14        36        12     4      180.000000        3.700191         2    ;  uncertainty k = 0.086941
        13        36        12        14     4      180.000000        3.700191         2    ;  uncertainty k = 0.086941
        14        13        15        37     4      180.000000        4.249204         2    ;  uncertainty k = 0.103731
        14        15        37        13     4      180.000000        4.249204         2    ;  uncertainty k = 0.103731
        14        37        13        15     4      180.000000        4.249204         2    ;  uncertainty k = 0.103731
        15        14        16        38     4      180.000000        3.525381         2    ;  uncertainty k = 0.172936
        15        16        38        14     4      180.000000        3.525381         2    ;  uncertainty k = 0.172936
        15        38        14        16     4      180.000000        3.525381         2    ;  uncertainty k = 0.172936
        16        15        17        18     4      180.000000       13.371882         2    ;  uncertainty k = 0.047246
        16        17        18        15     4      180.000000       13.371882         2    ;  uncertainty k = 0.047246
        16        18        15        17     4      180.000000       13.371882         2    ;  uncertainty k = 0.047246
        18        12        16        39     4      180.000000        3.443520         2    ;  uncertainty k = 0.143383
        18        16        39        12     4      180.000000        3.443520         2    ;  uncertainty k = 0.143383
        18        39        12        16     4      180.000000        3.443520         2    ;  uncertainty k = 0.143383
        19         7        11        40     4      180.000000        4.327576         2    ;  uncertainty k = 0.279246
        19        11        40         7     4      180.000000        4.327576         2    ;  uncertainty k = 0.279246
        19        40         7        11     4      180.000000        4.327576         2    ;  uncertainty k = 0.279246
        20         6        21        25     4      180.000000       30.018723         2    ;  uncertainty k = 0.153036
        20        21        25         6     4      180.000000       30.018723         2    ;  uncertainty k = 0.153036
        20        25         6        21     4      180.000000       30.018723         2    ;  uncertainty k = 0.153036
        22        21        23        41     4      180.000000       16.785851         2    ;  uncertainty k = 0.043684
        22        23        41        21     4      180.000000       16.785851         2    ;  uncertainty k = 0.043684
        22        41        21        23     4      180.000000       16.785851         2    ;  uncertainty k = 0.043684
        23        22        24        42     4      180.000000        2.194359         2    ;  uncertainty k = 1.084005
        23        24        42        22     4      180.000000        2.194359         2    ;  uncertainty k = 1.084005
        23        42        22        24     4      180.000000        2.194359         2    ;  uncertainty k = 1.084005
        24        23        25        43     4      180.000000       16.785855         2    ;  uncertainty k = 0.043684
        24        25        43        23     4      180.000000       16.785855         2    ;  uncertainty k = 0.043684
        24        43        23        25     4      180.000000       16.785855         2    ;  uncertainty k = 0.043684
        26         2         6        27     4      180.000000       49.703291         2    ;  uncertainty k = 0.048317
        26         6        27         2     4      180.000000       49.703291         2    ;  uncertainty k = 0.048317
        26        27         2         6     4      180.000000       49.703291         2    ;  uncertainty k = 0.048317

[ pairs ]
;       ai        aj funct
         1         4     1
         1         5     1
         1         6     1
         1        27     1
         2         7     1
         2        20     1
         2        31     1
         2        32     1
         2        44     1
         3         7     1
         3        20     1
         3        27     1
         3        28     1
         3        29     1
         3        30     1
         4         6     1
         4        26     1
         4        32     1
         5         8     1
         5        19     1
         5        21     1
         5        25     1
         5        27     1
         5        31     1
         5        44     1
         6         9     1
         6        11     1
         6        22     1
         6        24     1
         6        33     1
         6        40     1
         7        10     1
         7        12     1
         7        21     1
         7        25     1
         7        27     1
         7        32     1
         7        34     1
         8        11     1
         8        20     1
         8        26     1
         8        35     1
         8        40     1
         9        12     1
         9        19     1
        10        13     1
        10        18     1
        10        33     1
        10        40     1
        11        14     1
        11        16     1
        11        34     1
        11        36     1
        11        39     1
        12        15     1
        12        17     1
        12        35     1
        12        37     1
        12        40     1
        13        16     1
        13        19     1
        13        38     1
        13        39     1
        14        17     1
        14        18     1
        15        36     1
        15        39     1
        16        37     1
        17        38     1
        17        39     1
        18        19     1
        18        36     1
        18        38     1
        19        20     1
        19        26     1
        19        33     1
        19        35     1
        20        23     1
        20        27     1
        20        32     1
        20        41     1
        20        43     1
        21        24     1
        21        26     1
        21        42     1
        22        25     1
        22        43     1
        24        41     1
        25        26     1
        25        42     1
        26        28     1
        26        29     1
        26        30     1
        26        32     1
        33        34     1
        34        35     1
        36        37     1
        37        38     1
        41        42     1
        42        43     1
