; ITP file created by ByteFF-joint-25, 2026-02-18 03:16:23.055342

[ atomtypes ]
;name           bonded.type        at.num        mass        charge   ptype           sigma         epsilon
 c0bf                                   6      0.0000       0.00000       A     3.39765e-01     4.50595e-01    ;  uncertainty sigma = 0.000006, epsilon = 0.001121
 c1bf                                   6      0.0000       0.00000       A     3.39743e-01     4.51347e-01    ;  uncertainty sigma = 0.000013, epsilon = 0.000854
 c2bf                                   6      0.0000       0.00000       A     3.39771e-01     4.53174e-01    ;  uncertainty sigma = 0.000048, epsilon = 0.002083
 c3bf                                   6      0.0000       0.00000       A     3.31526e-01     4.13704e-01    ;  uncertainty sigma = 0.000018, epsilon = 0.000529
 c4bf                                   6      0.0000       0.00000       A     3.31508e-01     4.13213e-01    ;  uncertainty sigma = 0.000004, epsilon = 0.000692
 c5bf                                   6      0.0000       0.00000       A     3.31522e-01     4.13319e-01    ;  uncertainty sigma = 0.000003, epsilon = 0.000647
 c6bf                                   6      0.0000       0.00000       A     3.31513e-01     4.13269e-01    ;  uncertainty sigma = 0.000005, epsilon = 0.000649
 c7bf                                   6      0.0000       0.00000       A     3.31498e-01     4.13502e-01    ;  uncertainty sigma = 0.000009, epsilon = 0.000554
 c8bf                                   6      0.0000       0.00000       A     3.31513e-01     4.13167e-01    ;  uncertainty sigma = 0.000009, epsilon = 0.000575
 c9bf                                   6      0.0000       0.00000       A     3.31511e-01     4.13320e-01    ;  uncertainty sigma = 0.000005, epsilon = 0.000665
 c10bf                                  6      0.0000       0.00000       A     3.31521e-01     4.13375e-01    ;  uncertainty sigma = 0.000003, epsilon = 0.000656
 c11bf                                  6      0.0000       0.00000       A     3.31522e-01     4.13446e-01    ;  uncertainty sigma = 0.000004, epsilon = 0.000552
 c12bf                                  6      0.0000       0.00000       A     3.31526e-01     4.13122e-01    ;  uncertainty sigma = 0.000006, epsilon = 0.000502
 cl13bf                                17      0.0000       0.00000       A     3.46610e-01     1.10414e+00    ;  uncertainty sigma = 0.000013, epsilon = 0.001445
 c14bf                                  6      0.0000       0.00000       A     3.31523e-01     4.13401e-01    ;  uncertainty sigma = 0.000007, epsilon = 0.000655
 c15bf                                  6      0.0000       0.00000       A     3.31517e-01     4.13303e-01    ;  uncertainty sigma = 0.000017, epsilon = 0.001056
 n16bf                                  7      0.0000       0.00000       A     3.27515e-01     6.56835e-01    ;  uncertainty sigma = 0.000126, epsilon = 0.010259
 c17bf                                  6      0.0000       0.00000       A     3.31516e-01     4.12137e-01    ;  uncertainty sigma = 0.000055, epsilon = 0.001525
 n18bf                                  7      0.0000       0.00000       A     3.36545e-01     4.71525e-01    ;  uncertainty sigma = 0.000086, epsilon = 0.005555
 n19bf                                  7      0.0000       0.00000       A     3.18095e-01     6.83538e-01    ;  uncertainty sigma = 0.000070, epsilon = 0.006666
 c20bf                                  6      0.0000       0.00000       A     3.39732e-01     4.51240e-01    ;  uncertainty sigma = 0.000013, epsilon = 0.001269
 c21bf                                  6      0.0000       0.00000       A     3.31551e-01     4.13941e-01    ;  uncertainty sigma = 0.000008, epsilon = 0.000544
 o22bf                                  8      0.0000       0.00000       A     3.04815e-01     6.12056e-01    ;  uncertainty sigma = 0.000062, epsilon = 0.002155
 h23bf                                  1      0.0000       0.00000       A     2.60008e-01     8.66642e-02    ;  uncertainty sigma = 0.000012, epsilon = 0.000641
 h24bf                                  1      0.0000       0.00000       A     2.60008e-01     8.66642e-02    ;  uncertainty sigma = 0.000012, epsilon = 0.000641
 h25bf                                  1      0.0000       0.00000       A     2.60008e-01     8.66642e-02    ;  uncertainty sigma = 0.000012, epsilon = 0.000641
 h26bf                                  1      0.0000       0.00000       A     2.59986e-01     8.68828e-02    ;  uncertainty sigma = 0.000030, epsilon = 0.001215
 h27bf                                  1      0.0000       0.00000       A     2.59986e-01     8.68828e-02    ;  uncertainty sigma = 0.000030, epsilon = 0.001215
 h28bf                                  1      0.0000       0.00000       A     2.62562e-01     6.71057e-02    ;  uncertainty sigma = 0.000007, epsilon = 0.000376
 h29bf                                  1      0.0000       0.00000       A     2.62564e-01     6.70136e-02    ;  uncertainty sigma = 0.000010, epsilon = 0.000418
 h30bf                                  1      0.0000       0.00000       A     2.62562e-01     6.70409e-02    ;  uncertainty sigma = 0.000012, epsilon = 0.000506
 h31bf                                  1      0.0000       0.00000       A     2.62562e-01     6.70409e-02    ;  uncertainty sigma = 0.000012, epsilon = 0.000506
 h32bf                                  1      0.0000       0.00000       A     2.62568e-01     6.69666e-02    ;  uncertainty sigma = 0.000007, epsilon = 0.000468
 h33bf                                  1      0.0000       0.00000       A     2.62560e-01     6.70939e-02    ;  uncertainty sigma = 0.000009, epsilon = 0.000590
 h34bf                                  1      0.0000       0.00000       A     2.62559e-01     6.71672e-02    ;  uncertainty sigma = 0.000013, epsilon = 0.000620
 h35bf                                  1      0.0000       0.00000       A     2.62552e-01     6.72601e-02    ;  uncertainty sigma = 0.000014, epsilon = 0.000631
 h36bf                                  1      0.0000       0.00000       A     1.10554e-01     4.03457e-02    ;  uncertainty sigma = 0.000096, epsilon = 0.001613
 h37bf                                  1      0.0000       0.00000       A     1.10696e-01     4.12785e-02    ;  uncertainty sigma = 0.000128, epsilon = 0.001560
 h38bf                                  1      0.0000       0.00000       A     2.42208e-01     8.66970e-02    ;  uncertainty sigma = 0.000028, epsilon = 0.000664
 h39bf                                  1      0.0000       0.00000       A     2.42208e-01     8.66970e-02    ;  uncertainty sigma = 0.000028, epsilon = 0.000664
 h40bf                                  1      0.0000       0.00000       A     2.42208e-01     8.66970e-02    ;  uncertainty sigma = 0.000028, epsilon = 0.000664
 h41bf                                  1      0.0000       0.00000       A     1.10696e-01     4.12786e-02    ;  uncertainty sigma = 0.000128, epsilon = 0.001559

[ moleculetype ]
;name             nrexcl
 MOL                   3

[ atoms ]
;       nr            type      resi   res      atom      cgnr      charge          mass ; qtot
         1            c0bf         1   UNL        c0         1    -0.09906       12.0110 ; qtot   -0.099
         2            c1bf         1   UNL        c1         2    -0.08073       12.0110 ; qtot   -0.180
         3            c2bf         1   UNL        c2         3     0.03988       12.0110 ; qtot   -0.140
         4            c3bf         1   UNL        c3         4    -0.13522       12.0110 ; qtot   -0.275
         5            c4bf         1   UNL        c4         5    -0.09765       12.0110 ; qtot   -0.373
         6            c5bf         1   UNL        c5         6    -0.11265       12.0110 ; qtot   -0.485
         7            c6bf         1   UNL        c6         7    -0.09209       12.0110 ; qtot   -0.578
         8            c7bf         1   UNL        c7         8    -0.01707       12.0110 ; qtot   -0.595
         9            c8bf         1   UNL        c8         9    -0.03558       12.0110 ; qtot   -0.630
        10            c9bf         1   UNL        c9        10    -0.11891       12.0110 ; qtot   -0.749
        11           c10bf         1   UNL       c10        11    -0.12274       12.0110 ; qtot   -0.872
        12           c11bf         1   UNL       c11        12    -0.11373       12.0110 ; qtot   -0.986
        13           c12bf         1   UNL       c12        13     0.03067       12.0110 ; qtot   -0.955
        14          cl13bf         1   UNL      cl13        14    -0.11712       35.4530 ; qtot   -1.072
        15           c14bf         1   UNL       c14        15    -0.11226       12.0110 ; qtot   -1.184
        16           c15bf         1   UNL       c15        16    -0.08332       12.0110 ; qtot   -1.268
        17           n16bf         1   UNL       n16        17    -0.38263       14.0070 ; qtot   -1.650
        18           c17bf         1   UNL       c17        18     0.46315       12.0110 ; qtot   -1.187
        19           n18bf         1   UNL       n18        19    -0.47942       14.0070 ; qtot   -1.666
        20           n19bf         1   UNL       n19        20    -0.42220       14.0070 ; qtot   -2.089
        21           c20bf         1   UNL       c20        21     0.07456       12.0110 ; qtot   -2.014
        22           c21bf         1   UNL       c21        22     0.70170       12.0110 ; qtot   -1.312
        23           o22bf         1   UNL       o22        23    -0.44945       15.9990 ; qtot   -1.762
        24           h23bf         1   UNL       h23        24     0.05161        1.0080 ; qtot   -1.710
        25           h24bf         1   UNL       h24        25     0.05161        1.0080 ; qtot   -1.659
        26           h25bf         1   UNL       h25        26     0.05161        1.0080 ; qtot   -1.607
        27           h26bf         1   UNL       h26        27     0.07648        1.0080 ; qtot   -1.531
        28           h27bf         1   UNL       h27        28     0.07648        1.0080 ; qtot   -1.454
        29           h28bf         1   UNL       h28        29     0.14450        1.0080 ; qtot   -1.310
        30           h29bf         1   UNL       h29        30     0.14921        1.0080 ; qtot   -1.160
        31           h30bf         1   UNL       h30        31     0.13653        1.0080 ; qtot   -1.024
        32           h31bf         1   UNL       h31        32     0.13932        1.0080 ; qtot   -0.885
        33           h32bf         1   UNL       h32        33     0.13920        1.0080 ; qtot   -0.745
        34           h33bf         1   UNL       h33        34     0.15171        1.0080 ; qtot   -0.594
        35           h34bf         1   UNL       h34        35     0.15143        1.0080 ; qtot   -0.442
        36           h35bf         1   UNL       h35        36     0.14654        1.0080 ; qtot   -0.296
        37           h36bf         1   UNL       h36        37     0.35165        1.0080 ; qtot    0.056
        38           h37bf         1   UNL       h37        38     0.33566        1.0080 ; qtot    0.392
        39           h38bf         1   UNL       h38        39     0.09090        1.0080 ; qtot    0.483
        40           h39bf         1   UNL       h39        40     0.09090        1.0080 ; qtot    0.573
        41           h40bf         1   UNL       h40        41     0.09090        1.0080 ; qtot    0.664
        42           h41bf         1   UNL       h41        42     0.33563        1.0080 ; qtot    1.000

[ bonds ]
;       ai        aj funct               r               k
         1         2     1        0.153082   214135.506055    ;  uncertainty r = 0.000049, k = 3.041839
         1        24     1        0.109480   311826.951855    ;  uncertainty r = 0.000018, k = 1.739158
         1        25     1        0.109480   311826.951855    ;  uncertainty r = 0.000018, k = 1.739158
         1        26     1        0.109480   311826.951855    ;  uncertainty r = 0.000018, k = 1.739158
         2         3     1        0.152749   195100.489478    ;  uncertainty r = 0.000242, k = 11.341041
         2        27     1        0.109542   311168.400879    ;  uncertainty r = 0.000025, k = 3.462575
         2        28     1        0.109542   311168.400879    ;  uncertainty r = 0.000025, k = 3.462575
         3         4     1        0.150961   205836.175342    ;  uncertainty r = 0.000204, k = 11.293719
         3        17     1        0.149765   222960.747998    ;  uncertainty r = 0.000318, k = 62.668790
         3        22     1        0.153001   179994.970068    ;  uncertainty r = 0.000098, k = 20.817375
         4         5     1        0.139736   351483.529004    ;  uncertainty r = 0.000060, k = 6.551304
         4        16     1        0.139527   345030.939893    ;  uncertainty r = 0.000047, k = 8.545137
         5         6     1        0.139503   369846.268408    ;  uncertainty r = 0.000018, k = 1.071424
         5        29     1        0.108795   333177.047852    ;  uncertainty r = 0.000024, k = 2.644099
         6         7     1        0.139319   371496.987158    ;  uncertainty r = 0.000024, k = 2.498412
         6        30     1        0.108763   333115.733252    ;  uncertainty r = 0.000025, k = 1.049747
         7         8     1        0.140096   347410.360059    ;  uncertainty r = 0.000016, k = 0.841794
         7        31     1        0.108820   334865.306152    ;  uncertainty r = 0.000023, k = 0.943338
         8         9     1        0.147947   271569.971729    ;  uncertainty r = 0.000036, k = 4.467606
         8        16     1        0.139856   339066.696924    ;  uncertainty r = 0.000075, k = 3.098877
         9        10     1        0.140235   345940.929248    ;  uncertainty r = 0.000017, k = 2.209476
         9        15     1        0.140145   349973.877246    ;  uncertainty r = 0.000025, k = 1.038770
        10        11     1        0.139452   367068.213965    ;  uncertainty r = 0.000025, k = 1.779929
        10        32     1        0.108805   334917.401855    ;  uncertainty r = 0.000025, k = 0.881878
        11        12     1        0.139500   374338.220410    ;  uncertainty r = 0.000020, k = 1.415152
        11        33     1        0.108776   333408.771582    ;  uncertainty r = 0.000008, k = 1.051669
        12        13     1        0.139473   361470.709424    ;  uncertainty r = 0.000016, k = 2.291888
        12        34     1        0.108715   335671.742529    ;  uncertainty r = 0.000009, k = 0.604869
        13        14     1        0.175805   197124.279858    ;  uncertainty r = 0.000030, k = 2.861100
        13        15     1        0.139310   357391.896777    ;  uncertainty r = 0.000022, k = 1.821603
        15        35     1        0.108730   336354.375000    ;  uncertainty r = 0.000018, k = 1.108077
        16        36     1        0.108841   333466.434375    ;  uncertainty r = 0.000023, k = 1.880628
        17        18     1        0.133486   516690.188867    ;  uncertainty r = 0.000144, k = 45.813976
        17        37     1        0.101516   428822.358301    ;  uncertainty r = 0.000051, k = 3.966304
        18        19     1        0.133045   314363.093262    ;  uncertainty r = 0.000180, k = 43.433015
        18        20     1        0.135559   281631.720508    ;  uncertainty r = 0.000163, k = 44.055283
        19        38     1        0.101394   420987.547607    ;  uncertainty r = 0.000069, k = 12.104675
        19        42     1        0.101394   420987.547607    ;  uncertainty r = 0.000069, k = 12.104675
        20        21     1        0.146700   260994.084326    ;  uncertainty r = 0.000139, k = 11.881164
        20        22     1        0.142622   294675.565234    ;  uncertainty r = 0.000247, k = 72.867673
        21        39     1        0.109172   309349.341504    ;  uncertainty r = 0.000046, k = 3.240010
        21        40     1        0.109172   309349.341504    ;  uncertainty r = 0.000046, k = 3.240010
        21        41     1        0.109172   309349.341504    ;  uncertainty r = 0.000046, k = 3.240010
        22        23     1        0.120161   624485.187695    ;  uncertainty r = 0.000162, k = 12.579319

[ angles ]
;       ai        aj        ak funct           theta             cth
         1         2         3     1      109.070877      537.465623    ;  uncertainty theta = 0.005959, k = 0.039804
         1         2        27     1      108.759315      407.212895    ;  uncertainty theta = 0.003564, k = 0.064936
         1         2        28     1      108.759315      407.212895    ;  uncertainty theta = 0.003564, k = 0.064936
         2         1        24     1      107.914932      397.030802    ;  uncertainty theta = 0.001272, k = 0.046883
         2         1        25     1      107.914932      397.030802    ;  uncertainty theta = 0.001272, k = 0.046883
         2         1        26     1      107.914932      397.030802    ;  uncertainty theta = 0.001272, k = 0.046883
         2         3         4     1      112.242287      554.507877    ;  uncertainty theta = 0.007688, k = 0.165895
         2         3        17     1      109.967186      615.032231    ;  uncertainty theta = 0.005611, k = 0.233465
         2         3        22     1      107.771935      459.648369    ;  uncertainty theta = 0.006435, k = 0.135636
         3         2        27     1      105.042435      381.439631    ;  uncertainty theta = 0.003964, k = 0.158226
         3         2        28     1      105.042435      381.439631    ;  uncertainty theta = 0.003964, k = 0.158226
         3         4         5     1      117.165161      374.103043    ;  uncertainty theta = 0.008745, k = 0.238320
         3         4        16     1      116.587234      375.426663    ;  uncertainty theta = 0.008259, k = 0.164880
         3        17        18     1      111.974411      604.061999    ;  uncertainty theta = 0.018303, k = 0.402741
         3        17        37     1      117.308090      301.433974    ;  uncertainty theta = 0.009257, k = 0.447796
         3        22        20     1      109.817825      472.606281    ;  uncertainty theta = 0.004227, k = 0.490422
         3        22        23     1      126.042557      413.365008    ;  uncertainty theta = 0.009290, k = 0.268485
         4         3        17     1      110.327499      630.392674    ;  uncertainty theta = 0.004815, k = 0.210639
         4         3        22     1      109.069351      489.538726    ;  uncertainty theta = 0.007259, k = 0.130042
         4         5         6     1      120.340050      514.599376    ;  uncertainty theta = 0.003940, k = 0.057681
         4         5        29     1      118.514427      271.232352    ;  uncertainty theta = 0.002840, k = 0.027596
         4        16         8     1      122.453293      512.542745    ;  uncertainty theta = 0.002902, k = 0.198395
         4        16        36     1      118.137169      273.105722    ;  uncertainty theta = 0.002155, k = 0.092066
         5         4        16     1      123.208862      435.509863    ;  uncertainty theta = 0.006140, k = 0.103064
         5         6         7     1      120.374611      511.531699    ;  uncertainty theta = 0.002659, k = 0.079075
         5         6        30     1      119.846878      281.919122    ;  uncertainty theta = 0.001922, k = 0.040682
         6         5        29     1      120.268776      299.918187    ;  uncertainty theta = 0.003028, k = 0.041926
         6         7         8     1      119.835899      534.582611    ;  uncertainty theta = 0.002583, k = 0.069043
         6         7        31     1      120.223473      294.279944    ;  uncertainty theta = 0.000909, k = 0.020015
         7         6        30     1      120.400124      284.448732    ;  uncertainty theta = 0.000730, k = 0.051587
         7         8         9     1      121.136307      405.832295    ;  uncertainty theta = 0.001763, k = 0.152560
         7         8        16     1      120.153969      406.674764    ;  uncertainty theta = 0.004543, k = 0.216818
         8         7        31     1      118.947998      277.803306    ;  uncertainty theta = 0.000462, k = 0.096136
         8         9        10     1      120.552269      411.585997    ;  uncertainty theta = 0.002088, k = 0.049199
         8         9        15     1      119.775406      410.577058    ;  uncertainty theta = 0.001557, k = 0.055464
         8        16        36     1      118.806725      282.830445    ;  uncertainty theta = 0.002221, k = 0.085832
         9         8        16     1      120.055649      414.029483    ;  uncertainty theta = 0.002340, k = 0.160338
         9        10        11     1      120.504349      532.913346    ;  uncertainty theta = 0.001618, k = 0.068709
         9        10        32     1      119.203636      278.269901    ;  uncertainty theta = 0.001744, k = 0.040876
         9        15        13     1      119.741173      510.605660    ;  uncertainty theta = 0.001091, k = 0.073584
         9        15        35     1      120.095413      273.299613    ;  uncertainty theta = 0.001008, k = 0.066605
        10         9        15     1      120.374191      415.451390    ;  uncertainty theta = 0.002120, k = 0.132953
        10        11        12     1      120.717369      509.837057    ;  uncertainty theta = 0.001401, k = 0.048240
        10        11        33     1      120.238693      282.499708    ;  uncertainty theta = 0.001326, k = 0.011496
        11        10        32     1      120.338760      294.190309    ;  uncertainty theta = 0.001360, k = 0.032086
        11        12        13     1      117.430496      514.054606    ;  uncertainty theta = 0.001033, k = 0.048095
        11        12        34     1      121.325417      283.555061    ;  uncertainty theta = 0.001286, k = 0.023037
        12        11        33     1      119.863380      284.707455    ;  uncertainty theta = 0.000778, k = 0.019642
        12        13        14     1      120.461792      447.827848    ;  uncertainty theta = 0.001141, k = 0.053761
        12        13        15     1      121.555298      359.688909    ;  uncertainty theta = 0.001133, k = 0.149052
        13        12        34     1      121.035461      285.494859    ;  uncertainty theta = 0.001567, k = 0.028924
        13        15        35     1      120.760788      292.340624    ;  uncertainty theta = 0.001328, k = 0.049697
        14        13        15     1      120.006104      442.243297    ;  uncertainty theta = 0.000762, k = 0.110065
        17         3        22     1      102.914429      935.148005    ;  uncertainty theta = 0.006407, k = 0.513562
        17        18        19     1      128.593719      642.530143    ;  uncertainty theta = 0.008114, k = 0.325886
        17        18        20     1      113.196144      707.119494    ;  uncertainty theta = 0.008613, k = 0.271607
        18        17        37     1      119.331741      355.148347    ;  uncertainty theta = 0.009088, k = 0.091606
        18        19        38     1      114.794762      367.831480    ;  uncertainty theta = 0.004073, k = 0.188444
        18        19        42     1      114.794762      367.831480    ;  uncertainty theta = 0.004073, k = 0.188444
        18        20        21     1      118.633835      372.695916    ;  uncertainty theta = 0.007072, k = 0.445755
        18        20        22     1      110.325806      716.205087    ;  uncertainty theta = 0.010314, k = 0.261829
        19        18        20     1      125.857033      535.041864    ;  uncertainty theta = 0.010827, k = 0.293792
        20        21        39     1      107.394547      471.115648    ;  uncertainty theta = 0.002433, k = 0.223871
        20        21        40     1      107.394547      471.115648    ;  uncertainty theta = 0.002433, k = 0.223871
        20        21        41     1      107.394554      471.115648    ;  uncertainty theta = 0.002433, k = 0.223871
        20        22        23     1      125.301041      648.275482    ;  uncertainty theta = 0.010654, k = 0.098856
        21        20        22     1      119.191162      399.434898    ;  uncertainty theta = 0.008947, k = 0.270392
        24         1        25     1      105.129944      318.842111    ;  uncertainty theta = 0.000889, k = 0.011675
        24         1        26     1      105.129944      318.842111    ;  uncertainty theta = 0.000889, k = 0.011675
        25         1        26     1      105.129944      318.842111    ;  uncertainty theta = 0.000889, k = 0.011675
        27         2        28     1      105.523537      319.258110    ;  uncertainty theta = 0.005747, k = 0.187192
        38        19        42     1      112.416359      264.752614    ;  uncertainty theta = 0.015901, k = 0.355235
        39        21        40     1      107.633835      325.689216    ;  uncertainty theta = 0.003363, k = 0.104763
        39        21        41     1      107.633835      325.689216    ;  uncertainty theta = 0.003363, k = 0.104763
        40        21        41     1      107.633835      325.689216    ;  uncertainty theta = 0.003363, k = 0.104763

[ dihedrals ] ; propers for gromacs 4.5 or higher, use funct 9
;       ai        aj        ak        al funct           phase               k        pn
         1         2         3         4     9        0.000000       -1.758602         1    ;  uncertainty k = 0.945935
         1         2         3         4     9      180.000000        0.801545         2    ;  uncertainty k = 0.266004
         1         2         3         4     9        0.000000        1.157478         3    ;  uncertainty k = 0.352288
         1         2         3         4     9      180.000000       -0.097816         4    ;  uncertainty k = 0.101946
         1         2         3        17     9        0.000000       -3.103957         1    ;  uncertainty k = 0.864311
         1         2         3        17     9      180.000000        0.003474         2    ;  uncertainty k = 0.308599
         1         2         3        17     9        0.000000        1.399399         3    ;  uncertainty k = 0.338059
         1         2         3        17     9      180.000000       -0.318787         4    ;  uncertainty k = 0.182599
         1         2         3        22     9        0.000000       -3.033810         1    ;  uncertainty k = 0.263248
         1         2         3        22     9      180.000000       -0.185644         2    ;  uncertainty k = 0.295179
         1         2         3        22     9        0.000000        0.760852         3    ;  uncertainty k = 0.136141
         1         2         3        22     9      180.000000       -0.139441         4    ;  uncertainty k = 0.115051
         2         3         4         5     9        0.000000       -0.431945         1    ;  uncertainty k = 0.762524
         2         3         4         5     9      180.000000        2.155862         2    ;  uncertainty k = 0.315051
         2         3         4         5     9        0.000000        0.412304         3    ;  uncertainty k = 0.291636
         2         3         4         5     9      180.000000        0.240463         4    ;  uncertainty k = 0.041450
         2         3         4        16     9        0.000000       -0.422234         1    ;  uncertainty k = 0.715651
         2         3         4        16     9      180.000000        2.186673         2    ;  uncertainty k = 0.323928
         2         3         4        16     9        0.000000        0.350935         3    ;  uncertainty k = 0.316452
         2         3         4        16     9      180.000000        0.228096         4    ;  uncertainty k = 0.058510
         2         3        17        18     9        0.000000       -1.533728         1    ;  uncertainty k = 0.933420
         2         3        17        18     9      180.000000        0.954864         2    ;  uncertainty k = 0.319848
         2         3        17        18     9        0.000000        0.803194         3    ;  uncertainty k = 0.451584
         2         3        17        18     9      180.000000        0.360868         4    ;  uncertainty k = 0.098820
         2         3        17        37     9        0.000000        0.704919         1    ;  uncertainty k = 1.766147
         2         3        17        37     9      180.000000       -0.023338         2    ;  uncertainty k = 1.120422
         2         3        17        37     9        0.000000        0.675482         3    ;  uncertainty k = 0.252403
         2         3        17        37     9      180.000000        0.115100         4    ;  uncertainty k = 0.107631
         2         3        22        20     9        0.000000       -5.372485         1    ;  uncertainty k = 1.681477
         2         3        22        20     9      180.000000        2.484265         2    ;  uncertainty k = 0.708737
         2         3        22        20     9        0.000000        0.964589         3    ;  uncertainty k = 0.223455
         2         3        22        20     9      180.000000        0.402485         4    ;  uncertainty k = 0.365881
         2         3        22        23     9        0.000000       -1.033788         1    ;  uncertainty k = 1.116264
         2         3        22        23     9      180.000000        4.256576         2    ;  uncertainty k = 0.843169
         2         3        22        23     9        0.000000        0.289029         3    ;  uncertainty k = 0.177635
         2         3        22        23     9      180.000000        0.016049         4    ;  uncertainty k = 0.271017
         3         2         1        24     9        0.000000       -0.220620         1    ;  uncertainty k = 0.142306
         3         2         1        24     9      180.000000       -2.378226         2    ;  uncertainty k = 0.238208
         3         2         1        24     9        0.000000        1.198405         3    ;  uncertainty k = 0.203595
         3         2         1        24     9      180.000000       -0.306317         4    ;  uncertainty k = 0.051735
         3         2         1        25     9        0.000000       -0.220620         1    ;  uncertainty k = 0.142306
         3         2         1        25     9      180.000000       -2.378226         2    ;  uncertainty k = 0.238208
         3         2         1        25     9        0.000000        1.198405         3    ;  uncertainty k = 0.203595
         3         2         1        25     9      180.000000       -0.306317         4    ;  uncertainty k = 0.051735
         3         2         1        26     9        0.000000       -0.220620         1    ;  uncertainty k = 0.142306
         3         2         1        26     9      180.000000       -2.378226         2    ;  uncertainty k = 0.238208
         3         2         1        26     9        0.000000        1.198405         3    ;  uncertainty k = 0.203595
         3         2         1        26     9      180.000000       -0.306317         4    ;  uncertainty k = 0.051735
         3         4         5         6     9        0.000000        0.095925         1    ;  uncertainty k = 0.396718
         3         4         5         6     9      180.000000        8.999504         2    ;  uncertainty k = 0.403207
         3         4         5         6     9        0.000000        1.413264         3    ;  uncertainty k = 0.413201
         3         4         5         6     9      180.000000        1.845642         4    ;  uncertainty k = 0.156125
         3         4         5        29     9        0.000000       -0.434445         1    ;  uncertainty k = 0.284187
         3         4         5        29     9      180.000000        7.027062         2    ;  uncertainty k = 0.483045
         3         4         5        29     9        0.000000        0.658598         3    ;  uncertainty k = 0.263941
         3         4         5        29     9      180.000000        1.038544         4    ;  uncertainty k = 0.217519
         3         4        16         8     9        0.000000        0.119991         1    ;  uncertainty k = 0.210682
         3         4        16         8     9      180.000000        8.726618         2    ;  uncertainty k = 0.290695
         3         4        16         8     9        0.000000        1.340948         3    ;  uncertainty k = 0.275860
         3         4        16         8     9      180.000000        1.826136         4    ;  uncertainty k = 0.116153
         3         4        16        36     9        0.000000       -0.348277         1    ;  uncertainty k = 0.256470
         3         4        16        36     9      180.000000        7.128103         2    ;  uncertainty k = 0.513603
         3         4        16        36     9        0.000000        0.617960         3    ;  uncertainty k = 0.329870
         3         4        16        36     9      180.000000        1.091640         4    ;  uncertainty k = 0.242775
         3        17        18        19     9        0.000000        2.395476         1    ;  uncertainty k = 1.849397
         3        17        18        19     9      180.000000       10.651067         2    ;  uncertainty k = 0.772465
         3        17        18        19     9        0.000000        0.546853         3    ;  uncertainty k = 0.428479
         3        17        18        19     9      180.000000       -0.482080         4    ;  uncertainty k = 0.572023
         3        17        18        20     9        0.000000        1.325400         1    ;  uncertainty k = 1.716840
         3        17        18        20     9      180.000000       15.355563         2    ;  uncertainty k = 0.333602
         3        17        18        20     9        0.000000       -0.096509         3    ;  uncertainty k = 0.965677
         3        17        18        20     9      180.000000       -0.523050         4    ;  uncertainty k = 0.168681
         3        22        20        18     9        0.000000        2.710610         1    ;  uncertainty k = 2.048161
         3        22        20        18     9      180.000000        3.407223         2    ;  uncertainty k = 1.033674
         3        22        20        18     9        0.000000       -0.290222         3    ;  uncertainty k = 0.841353
         3        22        20        18     9      180.000000        0.723059         4    ;  uncertainty k = 0.250929
         3        22        20        21     9        0.000000        4.832196         1    ;  uncertainty k = 2.897273
         3        22        20        21     9      180.000000        4.840279         2    ;  uncertainty k = 1.283057
         3        22        20        21     9        0.000000        1.285460         3    ;  uncertainty k = 0.786436
         3        22        20        21     9      180.000000        0.132069         4    ;  uncertainty k = 0.474406
         4         3         2        27     9        0.000000        0.153070         1    ;  uncertainty k = 0.453560
         4         3         2        27     9      180.000000       -0.017890         2    ;  uncertainty k = 0.361022
         4         3         2        27     9        0.000000        0.622728         3    ;  uncertainty k = 0.211331
         4         3         2        27     9      180.000000        0.021199         4    ;  uncertainty k = 0.096172
         4         3         2        28     9        0.000000        0.153070         1    ;  uncertainty k = 0.453560
         4         3         2        28     9      180.000000       -0.017890         2    ;  uncertainty k = 0.361022
         4         3         2        28     9        0.000000        0.622728         3    ;  uncertainty k = 0.211331
         4         3         2        28     9      180.000000        0.021199         4    ;  uncertainty k = 0.096172
         4         3        17        18     9        0.000000       -0.010271         1    ;  uncertainty k = 0.368004
         4         3        17        18     9      180.000000        1.010752         2    ;  uncertainty k = 0.457490
         4         3        17        18     9        0.000000        0.758044         3    ;  uncertainty k = 0.287158
         4         3        17        18     9      180.000000        0.510718         4    ;  uncertainty k = 0.258116
         4         3        17        37     9        0.000000        2.926056         1    ;  uncertainty k = 1.235069
         4         3        17        37     9      180.000000        0.272273         2    ;  uncertainty k = 0.920422
         4         3        17        37     9        0.000000        0.683808         3    ;  uncertainty k = 0.414155
         4         3        17        37     9      180.000000        0.045083         4    ;  uncertainty k = 0.120492
         4         3        22        20     9        0.000000       -2.573258         1    ;  uncertainty k = 3.032788
         4         3        22        20     9      180.000000        1.944092         2    ;  uncertainty k = 0.914053
         4         3        22        20     9        0.000000        1.151471         3    ;  uncertainty k = 0.509709
         4         3        22        20     9      180.000000        0.759193         4    ;  uncertainty k = 0.266830
         4         3        22        23     9        0.000000       -0.073537         1    ;  uncertainty k = 1.438199
         4         3        22        23     9      180.000000        3.381071         2    ;  uncertainty k = 0.471811
         4         3        22        23     9        0.000000        0.498011         3    ;  uncertainty k = 0.185970
         4         3        22        23     9      180.000000        0.075529         4    ;  uncertainty k = 0.257122
         4         5         6         7     9        0.000000       -0.038497         1    ;  uncertainty k = 0.217082
         4         5         6         7     9      180.000000       13.006774         2    ;  uncertainty k = 0.282455
         4         5         6         7     9        0.000000       -0.927737         3    ;  uncertainty k = 0.518384
         4         5         6         7     9      180.000000        0.780879         4    ;  uncertainty k = 0.220671
         4         5         6        30     9        0.000000        0.140418         1    ;  uncertainty k = 0.310964
         4         5         6        30     9      180.000000        7.258074         2    ;  uncertainty k = 0.239894
         4         5         6        30     9        0.000000        1.476040         3    ;  uncertainty k = 0.146872
         4         5         6        30     9      180.000000        1.833866         4    ;  uncertainty k = 0.154153
         4        16         8         7     9        0.000000        0.142716         1    ;  uncertainty k = 0.346119
         4        16         8         7     9      180.000000        9.771701         2    ;  uncertainty k = 0.404237
         4        16         8         7     9        0.000000       -0.140580         3    ;  uncertainty k = 0.248046
         4        16         8         7     9      180.000000        1.105360         4    ;  uncertainty k = 0.274705
         4        16         8         9     9        0.000000        0.279629         1    ;  uncertainty k = 0.143288
         4        16         8         9     9      180.000000        8.335289         2    ;  uncertainty k = 0.426329
         4        16         8         9     9        0.000000        1.241554         3    ;  uncertainty k = 0.394486
         4        16         8         9     9      180.000000        1.736474         4    ;  uncertainty k = 0.090943
         5         4         3        17     9        0.000000       -0.877817         1    ;  uncertainty k = 1.248311
         5         4         3        17     9      180.000000        2.841328         2    ;  uncertainty k = 0.433404
         5         4         3        17     9        0.000000        0.590270         3    ;  uncertainty k = 0.216077
         5         4         3        17     9      180.000000        0.367094         4    ;  uncertainty k = 0.140886
         5         4         3        22     9        0.000000        0.333923         1    ;  uncertainty k = 1.351328
         5         4         3        22     9      180.000000        1.125426         2    ;  uncertainty k = 0.222665
         5         4         3        22     9        0.000000        0.447500         3    ;  uncertainty k = 0.174399
         5         4         3        22     9      180.000000        0.284968         4    ;  uncertainty k = 0.160189
         5         4        16         8     9        0.000000       -0.280125         1    ;  uncertainty k = 0.392058
         5         4        16         8     9      180.000000       11.527926         2    ;  uncertainty k = 0.173453
         5         4        16         8     9        0.000000       -0.199617         3    ;  uncertainty k = 0.274923
         5         4        16         8     9      180.000000        0.954702         4    ;  uncertainty k = 0.238251
         5         4        16        36     9        0.000000        0.226955         1    ;  uncertainty k = 0.122475
         5         4        16        36     9      180.000000        7.700086         2    ;  uncertainty k = 0.458154
         5         4        16        36     9        0.000000        1.354564         3    ;  uncertainty k = 0.367556
         5         4        16        36     9      180.000000        1.682139         4    ;  uncertainty k = 0.194575
         5         6         7         8     9        0.000000       -0.056502         1    ;  uncertainty k = 0.251005
         5         6         7         8     9      180.000000       14.029662         2    ;  uncertainty k = 0.234119
         5         6         7         8     9        0.000000       -0.847735         3    ;  uncertainty k = 0.457586
         5         6         7         8     9      180.000000        0.706428         4    ;  uncertainty k = 0.225769
         5         6         7        31     9        0.000000        0.081240         1    ;  uncertainty k = 0.067154
         5         6         7        31     9      180.000000        7.695303         2    ;  uncertainty k = 0.220521
         5         6         7        31     9        0.000000        1.455451         3    ;  uncertainty k = 0.228538
         5         6         7        31     9      180.000000        1.830403         4    ;  uncertainty k = 0.218981
         6         5         4        16     9        0.000000       -0.245736         1    ;  uncertainty k = 0.231356
         6         5         4        16     9      180.000000       11.980178         2    ;  uncertainty k = 0.431435
         6         5         4        16     9        0.000000       -0.548505         3    ;  uncertainty k = 0.170379
         6         5         4        16     9      180.000000        0.833010         4    ;  uncertainty k = 0.280501
         6         7         8         9     9        0.000000        0.051444         1    ;  uncertainty k = 0.220032
         6         7         8         9     9      180.000000        8.978039         2    ;  uncertainty k = 0.548837
         6         7         8         9     9        0.000000        1.185213         3    ;  uncertainty k = 0.439163
         6         7         8         9     9      180.000000        1.740227         4    ;  uncertainty k = 0.176287
         6         7         8        16     9        0.000000        0.112649         1    ;  uncertainty k = 0.146463
         6         7         8        16     9      180.000000       11.216673         2    ;  uncertainty k = 0.234247
         6         7         8        16     9        0.000000       -0.449459         3    ;  uncertainty k = 0.341363
         6         7         8        16     9      180.000000        0.924397         4    ;  uncertainty k = 0.280915
         7         6         5        29     9        0.000000        0.035987         1    ;  uncertainty k = 0.111485
         7         6         5        29     9      180.000000        7.663604         2    ;  uncertainty k = 0.323078
         7         6         5        29     9        0.000000        1.379384         3    ;  uncertainty k = 0.241468
         7         6         5        29     9      180.000000        1.817540         4    ;  uncertainty k = 0.105556
         7         8         9        10     9        0.000000       -0.400132         1    ;  uncertainty k = 0.435124
         7         8         9        10     9      180.000000        3.916865         2    ;  uncertainty k = 0.074040
         7         8         9        10     9        0.000000        0.295848         3    ;  uncertainty k = 0.128843
         7         8         9        10     9      180.000000       -0.084277         4    ;  uncertainty k = 0.061339
         7         8         9        15     9        0.000000       -0.377778         1    ;  uncertainty k = 0.353240
         7         8         9        15     9      180.000000        3.944286         2    ;  uncertainty k = 0.075284
         7         8         9        15     9        0.000000        0.278895         3    ;  uncertainty k = 0.120310
         7         8         9        15     9      180.000000       -0.060376         4    ;  uncertainty k = 0.043118
         7         8        16        36     9        0.000000        0.077015         1    ;  uncertainty k = 0.142519
         7         8        16        36     9      180.000000        7.160499         2    ;  uncertainty k = 0.630474
         7         8        16        36     9        0.000000        1.428230         3    ;  uncertainty k = 0.123468
         7         8        16        36     9      180.000000        1.631270         4    ;  uncertainty k = 0.235388
         8         7         6        30     9        0.000000        0.003391         1    ;  uncertainty k = 0.188585
         8         7         6        30     9      180.000000        7.689111         2    ;  uncertainty k = 0.353011
         8         7         6        30     9        0.000000        1.344077         3    ;  uncertainty k = 0.219648
         8         7         6        30     9      180.000000        1.842130         4    ;  uncertainty k = 0.191282
         8         9        10        11     9        0.000000       -0.022460         1    ;  uncertainty k = 0.223705
         8         9        10        11     9      180.000000        8.765601         2    ;  uncertainty k = 0.607517
         8         9        10        11     9        0.000000        1.206317         3    ;  uncertainty k = 0.404754
         8         9        10        11     9      180.000000        1.770716         4    ;  uncertainty k = 0.158362
         8         9        10        32     9        0.000000       -0.230673         1    ;  uncertainty k = 0.315718
         8         9        10        32     9      180.000000        7.076119         2    ;  uncertainty k = 0.454995
         8         9        10        32     9        0.000000        0.824202         3    ;  uncertainty k = 0.162886
         8         9        10        32     9      180.000000        1.171979         4    ;  uncertainty k = 0.211933
         8         9        15        13     9        0.000000        0.071563         1    ;  uncertainty k = 0.169936
         8         9        15        13     9      180.000000        8.986359         2    ;  uncertainty k = 0.377505
         8         9        15        13     9        0.000000        1.285611         3    ;  uncertainty k = 0.282693
         8         9        15        13     9      180.000000        1.696802         4    ;  uncertainty k = 0.070596
         8         9        15        35     9        0.000000       -0.196999         1    ;  uncertainty k = 0.276460
         8         9        15        35     9      180.000000        7.094784         2    ;  uncertainty k = 0.418329
         8         9        15        35     9        0.000000        0.826994         3    ;  uncertainty k = 0.180881
         8         9        15        35     9      180.000000        1.171392         4    ;  uncertainty k = 0.202121
         9         8         7        31     9        0.000000       -0.139395         1    ;  uncertainty k = 0.276606
         9         8         7        31     9      180.000000        7.151255         2    ;  uncertainty k = 0.452735
         9         8         7        31     9        0.000000        0.828235         3    ;  uncertainty k = 0.119210
         9         8         7        31     9      180.000000        1.195925         4    ;  uncertainty k = 0.179673
         9         8        16        36     9        0.000000       -0.097830         1    ;  uncertainty k = 0.212363
         9         8        16        36     9      180.000000        7.320901         2    ;  uncertainty k = 0.309473
         9         8        16        36     9        0.000000        0.825647         3    ;  uncertainty k = 0.176734
         9         8        16        36     9      180.000000        1.268462         4    ;  uncertainty k = 0.199282
         9        10        11        12     9        0.000000       -0.042208         1    ;  uncertainty k = 0.231516
         9        10        11        12     9      180.000000       14.171992         2    ;  uncertainty k = 0.189515
         9        10        11        12     9        0.000000       -0.870742         3    ;  uncertainty k = 0.485056
         9        10        11        12     9      180.000000        0.699208         4    ;  uncertainty k = 0.253427
         9        10        11        33     9        0.000000        0.022680         1    ;  uncertainty k = 0.242894
         9        10        11        33     9      180.000000        7.703942         2    ;  uncertainty k = 0.339132
         9        10        11        33     9        0.000000        1.372427         3    ;  uncertainty k = 0.261098
         9        10        11        33     9      180.000000        1.835688         4    ;  uncertainty k = 0.149481
         9        15        13        12     9        0.000000       -0.010279         1    ;  uncertainty k = 0.315076
         9        15        13        12     9      180.000000        9.861218         2    ;  uncertainty k = 0.417908
         9        15        13        12     9        0.000000       -0.044172         3    ;  uncertainty k = 0.331365
         9        15        13        12     9      180.000000        1.160540         4    ;  uncertainty k = 0.311928
         9        15        13        14     9        0.000000        0.036466         1    ;  uncertainty k = 0.115484
         9        15        13        14     9      180.000000        9.485434         2    ;  uncertainty k = 0.578648
         9        15        13        14     9        0.000000        1.367643         3    ;  uncertainty k = 0.425703
         9        15        13        14     9      180.000000        1.685065         4    ;  uncertainty k = 0.101287
        10         9         8        16     9        0.000000       -0.188381         1    ;  uncertainty k = 0.466097
        10         9         8        16     9      180.000000        4.185515         2    ;  uncertainty k = 0.153513
        10         9         8        16     9        0.000000        0.274034         3    ;  uncertainty k = 0.154785
        10         9         8        16     9      180.000000       -0.002759         4    ;  uncertainty k = 0.040352
        10         9        15        13     9        0.000000        0.112971         1    ;  uncertainty k = 0.107592
        10         9        15        13     9      180.000000       11.459687         2    ;  uncertainty k = 0.265370
        10         9        15        13     9        0.000000       -0.359029         3    ;  uncertainty k = 0.399359
        10         9        15        13     9      180.000000        0.945001         4    ;  uncertainty k = 0.278886
        10         9        15        35     9        0.000000        0.189437         1    ;  uncertainty k = 0.134814
        10         9        15        35     9      180.000000        6.927558         2    ;  uncertainty k = 0.531255
        10         9        15        35     9        0.000000        1.476130         3    ;  uncertainty k = 0.227216
        10         9        15        35     9      180.000000        1.643456         4    ;  uncertainty k = 0.236170
        10        11        12        13     9        0.000000        0.034101         1    ;  uncertainty k = 0.181604
        10        11        12        13     9      180.000000       14.637857         2    ;  uncertainty k = 0.207905
        10        11        12        13     9        0.000000       -1.037223         3    ;  uncertainty k = 0.574419
        10        11        12        13     9      180.000000        0.689985         4    ;  uncertainty k = 0.252256
        10        11        12        34     9        0.000000        0.080157         1    ;  uncertainty k = 0.044174
        10        11        12        34     9      180.000000        7.631927         2    ;  uncertainty k = 0.319811
        10        11        12        34     9        0.000000        1.497161         3    ;  uncertainty k = 0.267179
        10        11        12        34     9      180.000000        1.800300         4    ;  uncertainty k = 0.165698
        11        10         9        15     9        0.000000       -0.014258         1    ;  uncertainty k = 0.046197
        11        10         9        15     9      180.000000       11.353969         2    ;  uncertainty k = 0.284679
        11        10         9        15     9        0.000000       -0.419125         3    ;  uncertainty k = 0.329524
        11        10         9        15     9      180.000000        0.851477         4    ;  uncertainty k = 0.284931
        11        12        13        14     9        0.000000        0.039415         1    ;  uncertainty k = 0.185710
        11        12        13        14     9      180.000000        9.400893         2    ;  uncertainty k = 0.673917
        11        12        13        14     9        0.000000        1.522713         3    ;  uncertainty k = 0.432767
        11        12        13        14     9      180.000000        1.637619         4    ;  uncertainty k = 0.162550
        11        12        13        15     9        0.000000       -0.035280         1    ;  uncertainty k = 0.114525
        11        12        13        15     9      180.000000       10.458549         2    ;  uncertainty k = 0.352853
        11        12        13        15     9        0.000000       -0.351603         3    ;  uncertainty k = 0.544621
        11        12        13        15     9      180.000000        0.999885         4    ;  uncertainty k = 0.326950
        12        11        10        32     9        0.000000        0.052492         1    ;  uncertainty k = 0.058933
        12        11        10        32     9      180.000000        7.952025         2    ;  uncertainty k = 0.267693
        12        11        10        32     9        0.000000        1.470677         3    ;  uncertainty k = 0.256858
        12        11        10        32     9      180.000000        1.851650         4    ;  uncertainty k = 0.164394
        12        13        15        35     9        0.000000       -0.045893         1    ;  uncertainty k = 0.245307
        12        13        15        35     9      180.000000        6.349827         2    ;  uncertainty k = 0.564330
        12        13        15        35     9        0.000000        1.416183         3    ;  uncertainty k = 0.310677
        12        13        15        35     9      180.000000        1.600595         4    ;  uncertainty k = 0.148712
        13        12        11        33     9        0.000000        0.013468         1    ;  uncertainty k = 0.140072
        13        12        11        33     9      180.000000        7.595964         2    ;  uncertainty k = 0.326736
        13        12        11        33     9        0.000000        1.451185         3    ;  uncertainty k = 0.275082
        13        12        11        33     9      180.000000        1.856285         4    ;  uncertainty k = 0.184737
        14        13        12        34     9        0.000000       -0.148142         1    ;  uncertainty k = 0.212406
        14        13        12        34     9      180.000000        7.328405         2    ;  uncertainty k = 0.291144
        14        13        12        34     9        0.000000        0.580550         3    ;  uncertainty k = 0.353024
        14        13        12        34     9      180.000000        0.942602         4    ;  uncertainty k = 0.155635
        14        13        15        35     9        0.000000       -0.243273         1    ;  uncertainty k = 0.262026
        14        13        15        35     9      180.000000        7.505922         2    ;  uncertainty k = 0.286010
        14        13        15        35     9        0.000000        0.606748         3    ;  uncertainty k = 0.290520
        14        13        15        35     9      180.000000        1.026416         4    ;  uncertainty k = 0.149534
        15         9         8        16     9        0.000000       -0.147495         1    ;  uncertainty k = 0.376853
        15         9         8        16     9      180.000000        4.196371         2    ;  uncertainty k = 0.139273
        15         9         8        16     9        0.000000        0.236808         3    ;  uncertainty k = 0.159648
        15         9         8        16     9      180.000000        0.020483         4    ;  uncertainty k = 0.038847
        15         9        10        32     9        0.000000        0.134271         1    ;  uncertainty k = 0.144927
        15         9        10        32     9      180.000000        6.905300         2    ;  uncertainty k = 0.558345
        15         9        10        32     9        0.000000        1.477109         3    ;  uncertainty k = 0.223699
        15         9        10        32     9      180.000000        1.638260         4    ;  uncertainty k = 0.236471
        15        13        12        34     9        0.000000        0.008768         1    ;  uncertainty k = 0.120181
        15        13        12        34     9      180.000000        6.217604         2    ;  uncertainty k = 0.626406
        15        13        12        34     9        0.000000        1.411019         3    ;  uncertainty k = 0.350782
        15        13        12        34     9      180.000000        1.518245         4    ;  uncertainty k = 0.154069
        16         4         3        17     9        0.000000       -0.626782         1    ;  uncertainty k = 1.178608
        16         4         3        17     9      180.000000        2.818993         2    ;  uncertainty k = 0.512210
        16         4         3        17     9        0.000000        0.543115         3    ;  uncertainty k = 0.208146
        16         4         3        17     9      180.000000        0.372920         4    ;  uncertainty k = 0.144385
        16         4         3        22     9        0.000000        0.320207         1    ;  uncertainty k = 1.368919
        16         4         3        22     9      180.000000        1.125541         2    ;  uncertainty k = 0.201213
        16         4         3        22     9        0.000000        0.407082         3    ;  uncertainty k = 0.169763
        16         4         3        22     9      180.000000        0.296729         4    ;  uncertainty k = 0.166332
        16         4         5        29     9        0.000000        0.249622         1    ;  uncertainty k = 0.180296
        16         4         5        29     9      180.000000        7.551898         2    ;  uncertainty k = 0.515600
        16         4         5        29     9        0.000000        1.327948         3    ;  uncertainty k = 0.365141
        16         4         5        29     9      180.000000        1.654479         4    ;  uncertainty k = 0.206943
        16         8         7        31     9        0.000000        0.201646         1    ;  uncertainty k = 0.166706
        16         8         7        31     9      180.000000        7.038929         2    ;  uncertainty k = 0.450810
        16         8         7        31     9        0.000000        1.422648         3    ;  uncertainty k = 0.248358
        16         8         7        31     9      180.000000        1.611456         4    ;  uncertainty k = 0.249355
        17         3         2        27     9        0.000000       -1.098582         1    ;  uncertainty k = 0.449912
        17         3         2        27     9      180.000000       -0.412771         2    ;  uncertainty k = 0.278569
        17         3         2        27     9        0.000000        0.433562         3    ;  uncertainty k = 0.241700
        17         3         2        27     9      180.000000       -0.152890         4    ;  uncertainty k = 0.134829
        17         3         2        28     9        0.000000       -1.098582         1    ;  uncertainty k = 0.449912
        17         3         2        28     9      180.000000       -0.412771         2    ;  uncertainty k = 0.278569
        17         3         2        28     9        0.000000        0.433562         3    ;  uncertainty k = 0.241700
        17         3         2        28     9      180.000000       -0.152890         4    ;  uncertainty k = 0.134829
        17         3        22        20     9        0.000000       -0.017234         1    ;  uncertainty k = 2.253867
        17         3        22        20     9      180.000000        6.759758         2    ;  uncertainty k = 0.843442
        17         3        22        20     9        0.000000        0.330794         3    ;  uncertainty k = 0.467451
        17         3        22        20     9      180.000000        0.265738         4    ;  uncertainty k = 0.663879
        17         3        22        23     9        0.000000       -1.001185         1    ;  uncertainty k = 2.243970
        17         3        22        23     9      180.000000        2.730430         2    ;  uncertainty k = 1.290370
        17         3        22        23     9        0.000000        0.332268         3    ;  uncertainty k = 0.477253
        17         3        22        23     9      180.000000        0.438019         4    ;  uncertainty k = 0.134909
        17        18        19        38     9        0.000000        5.951487         1    ;  uncertainty k = 1.287703
        17        18        19        38     9      180.000000       10.338810         2    ;  uncertainty k = 0.358004
        17        18        19        38     9        0.000000        1.439047         3    ;  uncertainty k = 0.463061
        17        18        19        38     9      180.000000       -0.762375         4    ;  uncertainty k = 0.302140
        17        18        19        42     9        0.000000        5.951487         1    ;  uncertainty k = 1.287703
        17        18        19        42     9      180.000000       10.338810         2    ;  uncertainty k = 0.358004
        17        18        19        42     9        0.000000        1.439047         3    ;  uncertainty k = 0.463061
        17        18        19        42     9      180.000000       -0.762375         4    ;  uncertainty k = 0.302140
        17        18        20        21     9        0.000000       -0.292432         1    ;  uncertainty k = 2.634947
        17        18        20        21     9      180.000000        8.104084         2    ;  uncertainty k = 0.472675
        17        18        20        21     9        0.000000        0.248747         3    ;  uncertainty k = 0.263814
        17        18        20        21     9      180.000000       -0.118308         4    ;  uncertainty k = 0.231592
        17        18        20        22     9        0.000000       -0.137954         1    ;  uncertainty k = 1.786537
        17        18        20        22     9      180.000000        8.426785         2    ;  uncertainty k = 0.752557
        17        18        20        22     9        0.000000       -1.183859         3    ;  uncertainty k = 1.167772
        17        18        20        22     9      180.000000        0.046112         4    ;  uncertainty k = 0.453489
        18        17         3        22     9        0.000000        1.578234         1    ;  uncertainty k = 1.181124
        18        17         3        22     9      180.000000        2.488247         2    ;  uncertainty k = 1.164261
        18        17         3        22     9        0.000000        0.146657         3    ;  uncertainty k = 0.653535
        18        17         3        22     9      180.000000        0.470902         4    ;  uncertainty k = 0.510477
        18        20        21        39     9        0.000000       -0.380140         1    ;  uncertainty k = 0.532132
        18        20        21        39     9      180.000000       -1.096410         2    ;  uncertainty k = 0.437167
        18        20        21        39     9        0.000000        0.448502         3    ;  uncertainty k = 0.201205
        18        20        21        39     9      180.000000        0.191465         4    ;  uncertainty k = 0.052270
        18        20        21        40     9        0.000000       -0.380140         1    ;  uncertainty k = 0.532132
        18        20        21        40     9      180.000000       -1.096410         2    ;  uncertainty k = 0.437167
        18        20        21        40     9        0.000000        0.448502         3    ;  uncertainty k = 0.201205
        18        20        21        40     9      180.000000        0.191465         4    ;  uncertainty k = 0.052270
        18        20        21        41     9        0.000000       -0.380140         1    ;  uncertainty k = 0.532132
        18        20        21        41     9      180.000000       -1.096410         2    ;  uncertainty k = 0.437167
        18        20        21        41     9        0.000000        0.448502         3    ;  uncertainty k = 0.201205
        18        20        21        41     9      180.000000        0.191465         4    ;  uncertainty k = 0.052270
        18        20        22        23     9        0.000000        0.246071         1    ;  uncertainty k = 2.576591
        18        20        22        23     9      180.000000        7.665046         2    ;  uncertainty k = 0.747311
        18        20        22        23     9        0.000000        0.469377         3    ;  uncertainty k = 0.508232
        18        20        22        23     9      180.000000        0.035537         4    ;  uncertainty k = 0.249258
        19        18        17        37     9        0.000000        2.398388         1    ;  uncertainty k = 2.395063
        19        18        17        37     9      180.000000        7.715825         2    ;  uncertainty k = 1.127153
        19        18        17        37     9        0.000000        0.964350         3    ;  uncertainty k = 0.152804
        19        18        17        37     9      180.000000       -0.284543         4    ;  uncertainty k = 0.267862
        19        18        20        21     9        0.000000        0.056006         1    ;  uncertainty k = 0.663625
        19        18        20        21     9      180.000000        6.811447         2    ;  uncertainty k = 0.688216
        19        18        20        21     9        0.000000        0.933542         3    ;  uncertainty k = 0.695161
        19        18        20        21     9      180.000000        0.011093         4    ;  uncertainty k = 0.294314
        19        18        20        22     9        0.000000       -0.533514         1    ;  uncertainty k = 0.754165
        19        18        20        22     9      180.000000        6.650240         2    ;  uncertainty k = 1.276678
        19        18        20        22     9        0.000000        0.176421         3    ;  uncertainty k = 0.699460
        19        18        20        22     9      180.000000       -0.062033         4    ;  uncertainty k = 0.464467
        20        18        17        37     9        0.000000        4.151277         1    ;  uncertainty k = 3.508758
        20        18        17        37     9      180.000000       10.743683         2    ;  uncertainty k = 0.582222
        20        18        17        37     9        0.000000        1.039016         3    ;  uncertainty k = 0.732348
        20        18        17        37     9      180.000000       -0.436812         4    ;  uncertainty k = 0.187842
        20        18        19        38     9        0.000000        7.557036         1    ;  uncertainty k = 2.011465
        20        18        19        38     9      180.000000        9.402536         2    ;  uncertainty k = 0.599429
        20        18        19        38     9        0.000000        1.004688         3    ;  uncertainty k = 0.499370
        20        18        19        38     9      180.000000       -0.954788         4    ;  uncertainty k = 0.223110
        20        18        19        42     9        0.000000        7.557036         1    ;  uncertainty k = 2.011465
        20        18        19        42     9      180.000000        9.402536         2    ;  uncertainty k = 0.599429
        20        18        19        42     9        0.000000        1.004688         3    ;  uncertainty k = 0.499370
        20        18        19        42     9      180.000000       -0.954788         4    ;  uncertainty k = 0.223110
        21        20        22        23     9        0.000000       -0.561564         1    ;  uncertainty k = 3.035408
        21        20        22        23     9      180.000000        8.210518         2    ;  uncertainty k = 0.410748
        21        20        22        23     9        0.000000        0.587155         3    ;  uncertainty k = 0.525571
        21        20        22        23     9      180.000000        0.207719         4    ;  uncertainty k = 0.233978
        22         3         2        27     9        0.000000        0.411216         1    ;  uncertainty k = 0.768594
        22         3         2        27     9      180.000000       -0.878039         2    ;  uncertainty k = 0.191301
        22         3         2        27     9        0.000000        0.233427         3    ;  uncertainty k = 0.143847
        22         3         2        27     9      180.000000       -0.096994         4    ;  uncertainty k = 0.050688
        22         3         2        28     9        0.000000        0.411216         1    ;  uncertainty k = 0.768594
        22         3         2        28     9      180.000000       -0.878039         2    ;  uncertainty k = 0.191301
        22         3         2        28     9        0.000000        0.233427         3    ;  uncertainty k = 0.143847
        22         3         2        28     9      180.000000       -0.096994         4    ;  uncertainty k = 0.050688
        22         3        17        37     9        0.000000       -0.058981         1    ;  uncertainty k = 2.586797
        22         3        17        37     9      180.000000        0.038998         2    ;  uncertainty k = 1.834474
        22         3        17        37     9        0.000000        0.336540         3    ;  uncertainty k = 0.430061
        22         3        17        37     9      180.000000       -0.007722         4    ;  uncertainty k = 0.137082
        22        20        21        39     9        0.000000        0.275886         1    ;  uncertainty k = 0.473494
        22        20        21        39     9      180.000000        0.049992         2    ;  uncertainty k = 0.257037
        22        20        21        39     9        0.000000        0.373510         3    ;  uncertainty k = 0.220382
        22        20        21        39     9      180.000000        0.308870         4    ;  uncertainty k = 0.067522
        22        20        21        40     9        0.000000        0.275886         1    ;  uncertainty k = 0.473494
        22        20        21        40     9      180.000000        0.049992         2    ;  uncertainty k = 0.257037
        22        20        21        40     9        0.000000        0.373510         3    ;  uncertainty k = 0.220382
        22        20        21        40     9      180.000000        0.308870         4    ;  uncertainty k = 0.067522
        22        20        21        41     9        0.000000        0.275886         1    ;  uncertainty k = 0.473494
        22        20        21        41     9      180.000000        0.049992         2    ;  uncertainty k = 0.257037
        22        20        21        41     9        0.000000        0.373510         3    ;  uncertainty k = 0.220382
        22        20        21        41     9      180.000000        0.308870         4    ;  uncertainty k = 0.067522
        24         1         2        27     9        0.000000        0.709817         1    ;  uncertainty k = 0.262374
        24         1         2        27     9      180.000000       -0.505424         2    ;  uncertainty k = 0.225609
        24         1         2        27     9        0.000000        0.604084         3    ;  uncertainty k = 0.094352
        24         1         2        27     9      180.000000       -0.024415         4    ;  uncertainty k = 0.039328
        24         1         2        28     9        0.000000        0.709817         1    ;  uncertainty k = 0.262374
        24         1         2        28     9      180.000000       -0.505424         2    ;  uncertainty k = 0.225609
        24         1         2        28     9        0.000000        0.604084         3    ;  uncertainty k = 0.094352
        24         1         2        28     9      180.000000       -0.024415         4    ;  uncertainty k = 0.039328
        25         1         2        27     9        0.000000        0.709817         1    ;  uncertainty k = 0.262374
        25         1         2        27     9      180.000000       -0.505424         2    ;  uncertainty k = 0.225609
        25         1         2        27     9        0.000000        0.604084         3    ;  uncertainty k = 0.094352
        25         1         2        27     9      180.000000       -0.024415         4    ;  uncertainty k = 0.039328
        25         1         2        28     9        0.000000        0.709817         1    ;  uncertainty k = 0.262374
        25         1         2        28     9      180.000000       -0.505424         2    ;  uncertainty k = 0.225609
        25         1         2        28     9        0.000000        0.604084         3    ;  uncertainty k = 0.094352
        25         1         2        28     9      180.000000       -0.024415         4    ;  uncertainty k = 0.039328
        26         1         2        27     9        0.000000        0.709817         1    ;  uncertainty k = 0.262374
        26         1         2        27     9      180.000000       -0.505424         2    ;  uncertainty k = 0.225609
        26         1         2        27     9        0.000000        0.604084         3    ;  uncertainty k = 0.094352
        26         1         2        27     9      180.000000       -0.024415         4    ;  uncertainty k = 0.039328
        26         1         2        28     9        0.000000        0.709817         1    ;  uncertainty k = 0.262374
        26         1         2        28     9      180.000000       -0.505424         2    ;  uncertainty k = 0.225609
        26         1         2        28     9        0.000000        0.604084         3    ;  uncertainty k = 0.094352
        26         1         2        28     9      180.000000       -0.024415         4    ;  uncertainty k = 0.039328
        29         5         6        30     9        0.000000       -0.103302         1    ;  uncertainty k = 0.350825
        29         5         6        30     9      180.000000        7.851860         2    ;  uncertainty k = 0.304247
        29         5         6        30     9        0.000000       -0.491923         3    ;  uncertainty k = 0.305519
        29         5         6        30     9      180.000000        0.123570         4    ;  uncertainty k = 0.179045
        30         6         7        31     9        0.000000       -0.101719         1    ;  uncertainty k = 0.205649
        30         6         7        31     9      180.000000        7.992000         2    ;  uncertainty k = 0.294577
        30         6         7        31     9        0.000000       -0.495695         3    ;  uncertainty k = 0.273353
        30         6         7        31     9      180.000000        0.119604         4    ;  uncertainty k = 0.149366
        32        10        11        33     9        0.000000       -0.071838         1    ;  uncertainty k = 0.139578
        32        10        11        33     9      180.000000        7.837293         2    ;  uncertainty k = 0.341151
        32        10        11        33     9        0.000000       -0.474130         3    ;  uncertainty k = 0.274221
        32        10        11        33     9      180.000000        0.116283         4    ;  uncertainty k = 0.133076
        33        11        12        34     9        0.000000       -0.080242         1    ;  uncertainty k = 0.065182
        33        11        12        34     9      180.000000        7.728195         2    ;  uncertainty k = 0.460598
        33        11        12        34     9        0.000000       -0.435760         3    ;  uncertainty k = 0.241595
        33        11        12        34     9      180.000000        0.035511         4    ;  uncertainty k = 0.167623

[ dihedrals ] ; impropers
;       ai        aj        ak        al funct           phase               k        pn
         4         3         5        16     4      180.000000       10.682297         2    ;  uncertainty k = 0.213485
         4         5        16         3     4      180.000000       10.682297         2    ;  uncertainty k = 0.213485
         4        16         3         5     4      180.000000       10.682297         2    ;  uncertainty k = 0.213485
         5         4         6        29     4      180.000000        3.694506         2    ;  uncertainty k = 0.284082
         5         6        29         4     4      180.000000        3.694506         2    ;  uncertainty k = 0.284082
         5        29         4         6     4      180.000000        3.694506         2    ;  uncertainty k = 0.284082
         6         5         7        30     4      180.000000        3.988567         2    ;  uncertainty k = 0.114878
         6         7        30         5     4      180.000000        3.988567         2    ;  uncertainty k = 0.114878
         6        30         5         7     4      180.000000        3.988567         2    ;  uncertainty k = 0.114878
         7         6         8        31     4      180.000000        4.536841         2    ;  uncertainty k = 0.126697
         7         8        31         6     4      180.000000        4.536841         2    ;  uncertainty k = 0.126697
         7        31         6         8     4      180.000000        4.536841         2    ;  uncertainty k = 0.126697
         8         7         9        16     4      180.000000       15.083538         2    ;  uncertainty k = 0.043398
         8         9        16         7     4      180.000000       15.083538         2    ;  uncertainty k = 0.043398
         8        16         7         9     4      180.000000       15.083538         2    ;  uncertainty k = 0.043398
         9         8        10        15     4      180.000000       14.799146         2    ;  uncertainty k = 0.052816
         9        10        15         8     4      180.000000       14.799146         2    ;  uncertainty k = 0.052816
         9        15         8        10     4      180.000000       14.799146         2    ;  uncertainty k = 0.052816
        10         9        11        32     4      180.000000        3.700193         2    ;  uncertainty k = 0.086940
        10        11        32         9     4      180.000000        3.700193         2    ;  uncertainty k = 0.086940
        10        32         9        11     4      180.000000        3.700193         2    ;  uncertainty k = 0.086940
        11        10        12        33     4      180.000000        4.249204         2    ;  uncertainty k = 0.103730
        11        12        33        10     4      180.000000        4.249204         2    ;  uncertainty k = 0.103730
        11        33        10        12     4      180.000000        4.249204         2    ;  uncertainty k = 0.103730
        12        11        13        34     4      180.000000        3.525384         2    ;  uncertainty k = 0.172936
        12        13        34        11     4      180.000000        3.525384         2    ;  uncertainty k = 0.172936
        12        34        11        13     4      180.000000        3.525384         2    ;  uncertainty k = 0.172936
        13        12        14        15     4      180.000000       13.371882         2    ;  uncertainty k = 0.047246
        13        14        15        12     4      180.000000       13.371882         2    ;  uncertainty k = 0.047246
        13        15        12        14     4      180.000000       13.371882         2    ;  uncertainty k = 0.047246
        15         9        13        35     4      180.000000        3.443520         2    ;  uncertainty k = 0.143383
        15        13        35         9     4      180.000000        3.443520         2    ;  uncertainty k = 0.143383
        15        35         9        13     4      180.000000        3.443520         2    ;  uncertainty k = 0.143383
        16         4         8        36     4      180.000000        4.194508         2    ;  uncertainty k = 0.270023
        16         8        36         4     4      180.000000        4.194508         2    ;  uncertainty k = 0.270023
        16        36         4         8     4      180.000000        4.194508         2    ;  uncertainty k = 0.270023
        18        17        19        20     4      180.000000       30.481158         2    ;  uncertainty k = 0.138588
        18        19        20        17     4      180.000000       30.481158         2    ;  uncertainty k = 0.138588
        18        20        17        19     4      180.000000       30.481158         2    ;  uncertainty k = 0.138588
        19        18        38        42     4      180.000000        0.119556         2    ;  uncertainty k = 0.267336
        19        38        42        18     4      180.000000        0.119556         2    ;  uncertainty k = 0.267336
        19        42        18        38     4      180.000000        0.119556         2    ;  uncertainty k = 0.267336
        20        18        21        22     4      180.000000        1.989634         2    ;  uncertainty k = 0.594866
        20        21        22        18     4      180.000000        1.989634         2    ;  uncertainty k = 0.594866
        20        22        18        21     4      180.000000        1.989634         2    ;  uncertainty k = 0.594866
        22         3        20        23     4      180.000000       50.617115         2    ;  uncertainty k = 0.031904
        22        20        23         3     4      180.000000       50.617115         2    ;  uncertainty k = 0.031904
        22        23         3        20     4      180.000000       50.617115         2    ;  uncertainty k = 0.031904

[ pairs ]
;       ai        aj funct
         1         4     1
         1        17     1
         1        22     1
         2         5     1
         2        16     1
         2        18     1
         2        20     1
         2        23     1
         2        37     1
         3         6     1
         3         8     1
         3        19     1
         3        21     1
         3        24     1
         3        25     1
         3        26     1
         3        29     1
         3        36     1
         4         7     1
         4         9     1
         4        18     1
         4        20     1
         4        23     1
         4        27     1
         4        28     1
         4        30     1
         4        37     1
         5         8     1
         5        17     1
         5        22     1
         5        31     1
         5        36     1
         6         9     1
         6        16     1
         7        10     1
         7        15     1
         7        29     1
         7        36     1
         8        11     1
         8        13     1
         8        30     1
         8        32     1
         8        35     1
         9        12     1
         9        14     1
         9        31     1
         9        33     1
         9        36     1
        10        13     1
        10        16     1
        10        34     1
        10        35     1
        11        14     1
        11        15     1
        12        32     1
        12        35     1
        13        33     1
        14        34     1
        14        35     1
        15        16     1
        15        32     1
        15        34     1
        16        17     1
        16        22     1
        16        29     1
        16        31     1
        17        21     1
        17        23     1
        17        27     1
        17        28     1
        17        38     1
        17        42     1
        18        23     1
        18        39     1
        18        40     1
        18        41     1
        19        21     1
        19        22     1
        19        37     1
        20        37     1
        20        38     1
        20        42     1
        21        23     1
        22        27     1
        22        28     1
        22        37     1
        22        39     1
        22        40     1
        22        41     1
        24        27     1
        24        28     1
        25        27     1
        25        28     1
        26        27     1
        26        28     1
        29        30     1
        30        31     1
        32        33     1
        33        34     1
