; ITP file created by ByteFF-joint-25, 2026-02-18 03:15:54.356998

[ atomtypes ]
;name           bonded.type        at.num        mass        charge   ptype           sigma         epsilon
 c0bf                                   6      0.0000       0.00000       A     3.39790e-01     4.50985e-01    ;  uncertainty sigma = 0.000004, epsilon = 0.000763
 o1bf                                   8      0.0000       0.00000       A     3.15639e-01     3.03015e-01    ;  uncertainty sigma = 0.000023, epsilon = 0.000796
 c2bf                                   6      0.0000       0.00000       A     3.31528e-01     4.13528e-01    ;  uncertainty sigma = 0.000005, epsilon = 0.000680
 c3bf                                   6      0.0000       0.00000       A     3.31514e-01     4.13261e-01    ;  uncertainty sigma = 0.000002, epsilon = 0.000677
 c4bf                                   6      0.0000       0.00000       A     3.31523e-01     4.13469e-01    ;  uncertainty sigma = 0.000003, epsilon = 0.000655
 c5bf                                   6      0.0000       0.00000       A     3.31516e-01     4.13257e-01    ;  uncertainty sigma = 0.000004, epsilon = 0.000621
 c6bf                                   6      0.0000       0.00000       A     3.31509e-01     4.13121e-01    ;  uncertainty sigma = 0.000008, epsilon = 0.000623
 c7bf                                   6      0.0000       0.00000       A     3.31498e-01     4.13514e-01    ;  uncertainty sigma = 0.000010, epsilon = 0.000522
 c8bf                                   6      0.0000       0.00000       A     3.31513e-01     4.13269e-01    ;  uncertainty sigma = 0.000005, epsilon = 0.000649
 c9bf                                   6      0.0000       0.00000       A     3.31522e-01     4.13312e-01    ;  uncertainty sigma = 0.000003, epsilon = 0.000635
 c10bf                                  6      0.0000       0.00000       A     3.31510e-01     4.13156e-01    ;  uncertainty sigma = 0.000002, epsilon = 0.000626
 c11bf                                  6      0.0000       0.00000       A     3.31582e-01     4.13992e-01    ;  uncertainty sigma = 0.000025, epsilon = 0.001348
 c12bf                                  6      0.0000       0.00000       A     3.39797e-01     4.51347e-01    ;  uncertainty sigma = 0.000040, epsilon = 0.003032
 c13bf                                  6      0.0000       0.00000       A     3.31581e-01     4.13815e-01    ;  uncertainty sigma = 0.000032, epsilon = 0.001364
 c14bf                                  6      0.0000       0.00000       A     3.31512e-01     4.13187e-01    ;  uncertainty sigma = 0.000002, epsilon = 0.000604
 c15bf                                  6      0.0000       0.00000       A     3.31520e-01     4.13286e-01    ;  uncertainty sigma = 0.000002, epsilon = 0.000576
 c16bf                                  6      0.0000       0.00000       A     3.31518e-01     4.13337e-01    ;  uncertainty sigma = 0.000003, epsilon = 0.000580
 c17bf                                  6      0.0000       0.00000       A     3.31520e-01     4.13286e-01    ;  uncertainty sigma = 0.000002, epsilon = 0.000576
 c18bf                                  6      0.0000       0.00000       A     3.31512e-01     4.13187e-01    ;  uncertainty sigma = 0.000002, epsilon = 0.000604
 n19bf                                  7      0.0000       0.00000       A     3.27488e-01     6.57271e-01    ;  uncertainty sigma = 0.000130, epsilon = 0.010556
 c20bf                                  6      0.0000       0.00000       A     3.31512e-01     4.12381e-01    ;  uncertainty sigma = 0.000058, epsilon = 0.001500
 n21bf                                  7      0.0000       0.00000       A     3.36544e-01     4.71564e-01    ;  uncertainty sigma = 0.000086, epsilon = 0.005524
 n22bf                                  7      0.0000       0.00000       A     3.18098e-01     6.83124e-01    ;  uncertainty sigma = 0.000073, epsilon = 0.006424
 c23bf                                  6      0.0000       0.00000       A     3.39732e-01     4.51256e-01    ;  uncertainty sigma = 0.000013, epsilon = 0.001265
 c24bf                                  6      0.0000       0.00000       A     3.31544e-01     4.14220e-01    ;  uncertainty sigma = 0.000018, epsilon = 0.000894
 o25bf                                  8      0.0000       0.00000       A     3.04823e-01     6.12187e-01    ;  uncertainty sigma = 0.000062, epsilon = 0.001949
 c26bf                                  6      0.0000       0.00000       A     3.31517e-01     4.13161e-01    ;  uncertainty sigma = 0.000019, epsilon = 0.001030
 c27bf                                  6      0.0000       0.00000       A     3.31524e-01     4.13190e-01    ;  uncertainty sigma = 0.000005, epsilon = 0.000932
 h28bf                                  1      0.0000       0.00000       A     2.42205e-01     8.67538e-02    ;  uncertainty sigma = 0.000015, epsilon = 0.000624
 h29bf                                  1      0.0000       0.00000       A     2.42205e-01     8.67538e-02    ;  uncertainty sigma = 0.000015, epsilon = 0.000624
 h30bf                                  1      0.0000       0.00000       A     2.42205e-01     8.67538e-02    ;  uncertainty sigma = 0.000015, epsilon = 0.000624
 h31bf                                  1      0.0000       0.00000       A     2.62564e-01     6.71213e-02    ;  uncertainty sigma = 0.000006, epsilon = 0.000469
 h32bf                                  1      0.0000       0.00000       A     2.62568e-01     6.69692e-02    ;  uncertainty sigma = 0.000011, epsilon = 0.000459
 h33bf                                  1      0.0000       0.00000       A     2.62562e-01     6.70409e-02    ;  uncertainty sigma = 0.000012, epsilon = 0.000506
 h34bf                                  1      0.0000       0.00000       A     2.62562e-01     6.70409e-02    ;  uncertainty sigma = 0.000012, epsilon = 0.000506
 h35bf                                  1      0.0000       0.00000       A     2.62564e-01     6.70136e-02    ;  uncertainty sigma = 0.000010, epsilon = 0.000418
 h36bf                                  1      0.0000       0.00000       A     2.62558e-01     6.70851e-02    ;  uncertainty sigma = 0.000008, epsilon = 0.000420
 h37bf                                  1      0.0000       0.00000       A     2.62558e-01     6.70851e-02    ;  uncertainty sigma = 0.000008, epsilon = 0.000420
 h38bf                                  1      0.0000       0.00000       A     2.62558e-01     6.70264e-02    ;  uncertainty sigma = 0.000011, epsilon = 0.000445
 h39bf                                  1      0.0000       0.00000       A     2.62552e-01     6.70647e-02    ;  uncertainty sigma = 0.000011, epsilon = 0.000453
 h40bf                                  1      0.0000       0.00000       A     2.62558e-01     6.70264e-02    ;  uncertainty sigma = 0.000011, epsilon = 0.000445
 h41bf                                  1      0.0000       0.00000       A     2.62558e-01     6.70851e-02    ;  uncertainty sigma = 0.000008, epsilon = 0.000420
 h42bf                                  1      0.0000       0.00000       A     1.10548e-01     4.04870e-02    ;  uncertainty sigma = 0.000082, epsilon = 0.001718
 h43bf                                  1      0.0000       0.00000       A     1.10696e-01     4.12785e-02    ;  uncertainty sigma = 0.000128, epsilon = 0.001560
 h44bf                                  1      0.0000       0.00000       A     2.42208e-01     8.66970e-02    ;  uncertainty sigma = 0.000028, epsilon = 0.000664
 h45bf                                  1      0.0000       0.00000       A     2.42208e-01     8.66970e-02    ;  uncertainty sigma = 0.000028, epsilon = 0.000664
 h46bf                                  1      0.0000       0.00000       A     2.42208e-01     8.66970e-02    ;  uncertainty sigma = 0.000028, epsilon = 0.000664
 h47bf                                  1      0.0000       0.00000       A     2.62550e-01     6.72378e-02    ;  uncertainty sigma = 0.000014, epsilon = 0.000655
 h48bf                                  1      0.0000       0.00000       A     2.62557e-01     6.71597e-02    ;  uncertainty sigma = 0.000013, epsilon = 0.000769
 h49bf                                  1      0.0000       0.00000       A     1.10696e-01     4.12786e-02    ;  uncertainty sigma = 0.000128, epsilon = 0.001559

[ moleculetype ]
;name             nrexcl
 MOL                   3

[ atoms ]
;       nr            type      resi   res      atom      cgnr      charge          mass ; qtot
         1            c0bf         1   UNL        c0         1     0.12109       12.0110 ; qtot    0.121
         2            o1bf         1   UNL        o1         2    -0.32660       15.9990 ; qtot   -0.206
         3            c2bf         1   UNL        c2         3     0.12867       12.0110 ; qtot   -0.077
         4            c3bf         1   UNL        c3         4    -0.18637       12.0110 ; qtot   -0.263
         5            c4bf         1   UNL        c4         5    -0.09641       12.0110 ; qtot   -0.360
         6            c5bf         1   UNL        c5         6    -0.14098       12.0110 ; qtot   -0.501
         7            c6bf         1   UNL        c6         7    -0.01722       12.0110 ; qtot   -0.518
         8            c7bf         1   UNL        c7         8    -0.01220       12.0110 ; qtot   -0.530
         9            c8bf         1   UNL        c8         9    -0.09393       12.0110 ; qtot   -0.624
        10            c9bf         1   UNL        c9        10    -0.11062       12.0110 ; qtot   -0.735
        11           c10bf         1   UNL       c10        11    -0.09262       12.0110 ; qtot   -0.827
        12           c11bf         1   UNL       c11        12    -0.14026       12.0110 ; qtot   -0.967
        13           c12bf         1   UNL       c12        13     0.09098       12.0110 ; qtot   -0.876
        14           c13bf         1   UNL       c13        14    -0.15384       12.0110 ; qtot   -1.030
        15           c14bf         1   UNL       c14        15    -0.09654       12.0110 ; qtot   -1.127
        16           c15bf         1   UNL       c15        16    -0.11798       12.0110 ; qtot   -1.245
        17           c16bf         1   UNL       c16        17    -0.09151       12.0110 ; qtot   -1.336
        18           c17bf         1   UNL       c17        18    -0.11798       12.0110 ; qtot   -1.454
        19           c18bf         1   UNL       c18        19    -0.09654       12.0110 ; qtot   -1.551
        20           n19bf         1   UNL       n19        20    -0.38173       14.0070 ; qtot   -1.933
        21           c20bf         1   UNL       c20        21     0.46212       12.0110 ; qtot   -1.470
        22           n21bf         1   UNL       n21        22    -0.47751       14.0070 ; qtot   -1.948
        23           n22bf         1   UNL       n22        23    -0.41674       14.0070 ; qtot   -2.365
        24           c23bf         1   UNL       c23        24     0.07531       12.0110 ; qtot   -2.289
        25           c24bf         1   UNL       c24        25     0.70308       12.0110 ; qtot   -1.586
        26           o25bf         1   UNL       o25        26    -0.44106       15.9990 ; qtot   -2.027
        27           c26bf         1   UNL       c26        27    -0.08039       12.0110 ; qtot   -2.108
        28           c27bf         1   UNL       c27        28    -0.17617       12.0110 ; qtot   -2.284
        29           h28bf         1   UNL       h28        29     0.04263        1.0080 ; qtot   -2.241
        30           h29bf         1   UNL       h29        30     0.04263        1.0080 ; qtot   -2.199
        31           h30bf         1   UNL       h30        31     0.04263        1.0080 ; qtot   -2.156
        32           h31bf         1   UNL       h31        32     0.14126        1.0080 ; qtot   -2.015
        33           h32bf         1   UNL       h32        33     0.13625        1.0080 ; qtot   -1.879
        34           h33bf         1   UNL       h33        34     0.13777        1.0080 ; qtot   -1.741
        35           h34bf         1   UNL       h34        35     0.13653        1.0080 ; qtot   -1.604
        36           h35bf         1   UNL       h35        36     0.14845        1.0080 ; qtot   -1.456
        37           h36bf         1   UNL       h36        37     0.14740        1.0080 ; qtot   -1.308
        38           h37bf         1   UNL       h37        38     0.14519        1.0080 ; qtot   -1.163
        39           h38bf         1   UNL       h38        39     0.14717        1.0080 ; qtot   -1.016
        40           h39bf         1   UNL       h39        40     0.13386        1.0080 ; qtot   -0.882
        41           h40bf         1   UNL       h40        41     0.14717        1.0080 ; qtot   -0.735
        42           h41bf         1   UNL       h41        42     0.14519        1.0080 ; qtot   -0.590
        43           h42bf         1   UNL       h42        43     0.35440        1.0080 ; qtot   -0.235
        44           h43bf         1   UNL       h43        44     0.33582        1.0080 ; qtot    0.100
        45           h44bf         1   UNL       h44        45     0.09057        1.0080 ; qtot    0.191
        46           h45bf         1   UNL       h45        46     0.09057        1.0080 ; qtot    0.282
        47           h46bf         1   UNL       h46        47     0.09057        1.0080 ; qtot    0.372
        48           h47bf         1   UNL       h47        48     0.14913        1.0080 ; qtot    0.521
        49           h48bf         1   UNL       h48        49     0.14295        1.0080 ; qtot    0.664
        50           h49bf         1   UNL       h49        50     0.33581        1.0080 ; qtot    1.000

[ bonds ]
;       ai        aj funct               r               k
         1         2     1        0.141909   253420.748096    ;  uncertainty r = 0.000028, k = 2.106556
         1        29     1        0.109623   311224.914502    ;  uncertainty r = 0.000009, k = 1.869772
         1        30     1        0.109623   311224.914502    ;  uncertainty r = 0.000009, k = 1.869772
         1        31     1        0.109623   311224.914502    ;  uncertainty r = 0.000009, k = 1.869772
         2         3     1        0.136564   322084.672412    ;  uncertainty r = 0.000040, k = 3.865904
         3         4     1        0.139901   361896.847168    ;  uncertainty r = 0.000022, k = 2.516486
         3        28     1        0.139772   357752.761670    ;  uncertainty r = 0.000013, k = 2.146202
         4         5     1        0.139470   371080.349219    ;  uncertainty r = 0.000043, k = 1.856877
         4        32     1        0.108802   337752.965869    ;  uncertainty r = 0.000012, k = 0.450678
         5         6     1        0.139445   367003.119873    ;  uncertainty r = 0.000017, k = 2.199947
         5        33     1        0.108774   332532.516748    ;  uncertainty r = 0.000015, k = 1.362351
         6         7     1        0.140182   346956.080420    ;  uncertainty r = 0.000052, k = 1.061087
         6        34     1        0.108807   335035.587598    ;  uncertainty r = 0.000028, k = 1.254465
         7         8     1        0.147853   272095.091309    ;  uncertainty r = 0.000043, k = 4.828886
         7        28     1        0.140046   348080.887939    ;  uncertainty r = 0.000025, k = 3.660743
         8         9     1        0.140114   347374.965625    ;  uncertainty r = 0.000008, k = 1.031010
         8        27     1        0.139833   338979.998437    ;  uncertainty r = 0.000045, k = 2.643004
         9        10     1        0.139322   371310.132129    ;  uncertainty r = 0.000027, k = 2.710990
         9        35     1        0.108820   334865.306152    ;  uncertainty r = 0.000023, k = 0.943338
        10        11     1        0.139488   369019.402344    ;  uncertainty r = 0.000030, k = 1.373568
        10        36     1        0.108768   333105.365186    ;  uncertainty r = 0.000026, k = 1.115182
        11        12     1        0.139695   350457.473486    ;  uncertainty r = 0.000039, k = 5.364875
        11        37     1        0.108776   332840.519824    ;  uncertainty r = 0.000030, k = 2.464989
        12        13     1        0.150929   204061.282397    ;  uncertainty r = 0.000155, k = 19.693892
        12        27     1        0.139500   344072.225732    ;  uncertainty r = 0.000079, k = 6.005871
        13        14     1        0.150975   204394.043701    ;  uncertainty r = 0.000149, k = 20.066183
        13        20     1        0.150101   230544.733203    ;  uncertainty r = 0.000269, k = 76.803661
        13        25     1        0.153936   175864.061719    ;  uncertainty r = 0.000150, k = 17.945409
        14        15     1        0.139869   349456.955078    ;  uncertainty r = 0.000058, k = 6.929867
        14        19     1        0.139869   349456.955078    ;  uncertainty r = 0.000058, k = 6.929867
        15        16     1        0.139524   365940.393066    ;  uncertainty r = 0.000032, k = 1.462857
        15        38     1        0.108797   332693.323926    ;  uncertainty r = 0.000026, k = 2.526486
        16        17     1        0.139549   373468.937207    ;  uncertainty r = 0.000012, k = 2.413551
        16        39     1        0.108791   333723.950586    ;  uncertainty r = 0.000024, k = 1.087653
        17        18     1        0.139549   373468.937207    ;  uncertainty r = 0.000012, k = 2.413551
        17        40     1        0.108841   334503.956055    ;  uncertainty r = 0.000012, k = 0.652759
        18        19     1        0.139524   365940.393066    ;  uncertainty r = 0.000032, k = 1.462857
        18        41     1        0.108791   333723.950586    ;  uncertainty r = 0.000024, k = 1.087653
        19        42     1        0.108797   332693.298389    ;  uncertainty r = 0.000026, k = 2.526502
        20        21     1        0.133641   523376.825586    ;  uncertainty r = 0.000100, k = 44.740972
        20        43     1        0.101501   429624.683203    ;  uncertainty r = 0.000023, k = 4.106222
        21        22     1        0.132957   308233.574121    ;  uncertainty r = 0.000232, k = 39.227363
        21        23     1        0.135483   280628.367480    ;  uncertainty r = 0.000172, k = 43.937772
        22        44     1        0.101396   420869.540625    ;  uncertainty r = 0.000073, k = 12.258240
        22        50     1        0.101396   420869.540625    ;  uncertainty r = 0.000073, k = 12.258240
        23        24     1        0.146681   260602.881348    ;  uncertainty r = 0.000143, k = 13.029331
        23        25     1        0.142617   296977.454736    ;  uncertainty r = 0.000342, k = 74.592880
        24        45     1        0.109174   309405.446533    ;  uncertainty r = 0.000045, k = 3.044472
        24        46     1        0.109174   309405.446533    ;  uncertainty r = 0.000045, k = 3.044472
        24        47     1        0.109174   309405.446533    ;  uncertainty r = 0.000045, k = 3.044472
        25        26     1        0.119980   628990.240234    ;  uncertainty r = 0.000232, k = 12.942166
        27        48     1        0.108815   333309.968506    ;  uncertainty r = 0.000020, k = 2.085839
        28        49     1        0.108829   338598.576172    ;  uncertainty r = 0.000032, k = 1.619545

[ angles ]
;       ai        aj        ak funct           theta             cth
         1         2         3     1      109.659470      514.717900    ;  uncertainty theta = 0.001249, k = 0.064419
         2         1        29     1      108.795364      446.331628    ;  uncertainty theta = 0.001356, k = 0.023105
         2         1        30     1      108.795364      446.331628    ;  uncertainty theta = 0.001356, k = 0.023105
         2         1        31     1      108.795364      446.331628    ;  uncertainty theta = 0.001356, k = 0.023105
         2         3         4     1      119.747482      423.445303    ;  uncertainty theta = 0.003744, k = 0.050397
         2         3        28     1      118.962730      425.850388    ;  uncertainty theta = 0.003358, k = 0.095021
         3         4         5     1      118.220108      526.652222    ;  uncertainty theta = 0.002836, k = 0.024644
         3         4        32     1      119.835045      271.079800    ;  uncertainty theta = 0.002430, k = 0.038994
         3        28         7     1      120.481613      524.880648    ;  uncertainty theta = 0.002691, k = 0.082587
         3        28        49     1      119.496605      273.712676    ;  uncertainty theta = 0.002605, k = 0.056628
         4         3        28     1      121.518272      372.514315    ;  uncertainty theta = 0.006062, k = 0.097186
         4         5         6     1      121.235802      512.769323    ;  uncertainty theta = 0.001774, k = 0.057832
         4         5        33     1      120.007240      281.159137    ;  uncertainty theta = 0.000575, k = 0.062870
         5         4        32     1      121.130234      286.065678    ;  uncertainty theta = 0.001996, k = 0.026691
         5         6         7     1      119.908676      530.194634    ;  uncertainty theta = 0.001800, k = 0.056604
         5         6        34     1      120.448502      294.571131    ;  uncertainty theta = 0.001342, k = 0.043687
         6         5        33     1      120.221046      281.660175    ;  uncertainty theta = 0.000884, k = 0.029522
         6         7         8     1      120.377625      409.627301    ;  uncertainty theta = 0.002338, k = 0.090894
         6         7        28     1      120.830185      409.833481    ;  uncertainty theta = 0.002340, k = 0.190913
         7         6        34     1      119.313675      278.727940    ;  uncertainty theta = 0.001375, k = 0.041341
         7         8         9     1      121.181236      408.976200    ;  uncertainty theta = 0.001456, k = 0.099795
         7         8        27     1      119.984451      413.168979    ;  uncertainty theta = 0.003157, k = 0.185630
         7        28        49     1      119.727623      273.645290    ;  uncertainty theta = 0.001038, k = 0.085854
         8         7        28     1      119.690186      407.502613    ;  uncertainty theta = 0.002189, k = 0.054932
         8         9        10     1      119.850487      535.103983    ;  uncertainty theta = 0.002371, k = 0.063869
         8         9        35     1      119.012794      278.104995    ;  uncertainty theta = 0.000660, k = 0.104917
         8        27        12     1      122.234482      512.573294    ;  uncertainty theta = 0.002700, k = 0.170526
         8        27        48     1      118.923233      282.642364    ;  uncertainty theta = 0.002318, k = 0.096130
         9         8        27     1      119.911903      403.956211    ;  uncertainty theta = 0.004429, k = 0.212770
         9        10        11     1      120.296432      509.064846    ;  uncertainty theta = 0.002468, k = 0.077953
         9        10        36     1      120.395386      284.232943    ;  uncertainty theta = 0.000987, k = 0.052321
        10         9        35     1      120.219772      294.473835    ;  uncertainty theta = 0.001120, k = 0.016578
        10        11        12     1      120.116592      513.097890    ;  uncertainty theta = 0.003985, k = 0.048111
        10        11        37     1      120.331825      300.364767    ;  uncertainty theta = 0.002789, k = 0.028913
        11        10        36     1      119.787987      281.762579    ;  uncertainty theta = 0.002427, k = 0.048475
        11        12        13     1      117.188919      371.073703    ;  uncertainty theta = 0.007117, k = 0.190096
        11        12        27     1      123.441650      432.172770    ;  uncertainty theta = 0.006615, k = 0.179242
        12        11        37     1      118.579468      273.249879    ;  uncertainty theta = 0.004177, k = 0.069831
        12        13        14     1      113.186264      513.960693    ;  uncertainty theta = 0.011306, k = 0.359026
        12        13        20     1      110.363304      633.704774    ;  uncertainty theta = 0.005332, k = 0.196341
        12        13        25     1      109.087914      489.507379    ;  uncertainty theta = 0.008967, k = 0.155641
        12        27        48     1      118.206032      273.517061    ;  uncertainty theta = 0.004015, k = 0.065303
        13        12        27     1      116.625099      373.129792    ;  uncertainty theta = 0.006544, k = 0.114483
        13        14        15     1      117.074219      374.316469    ;  uncertainty theta = 0.007313, k = 0.169097
        13        14        19     1      117.074219      374.316469    ;  uncertainty theta = 0.007313, k = 0.169097
        13        20        21     1      111.750687      594.280584    ;  uncertainty theta = 0.019275, k = 0.459975
        13        20        43     1      117.291641      301.371153    ;  uncertainty theta = 0.006714, k = 0.480634
        13        25        23     1      109.961769      476.265111    ;  uncertainty theta = 0.006613, k = 0.652506
        13        25        26     1      125.519859      411.082565    ;  uncertainty theta = 0.008567, k = 0.131741
        14        13        20     1      110.460434      632.624745    ;  uncertainty theta = 0.005178, k = 0.185747
        14        13        25     1      109.141335      488.728178    ;  uncertainty theta = 0.009732, k = 0.152364
        14        15        16     1      121.038895      513.256220    ;  uncertainty theta = 0.003562, k = 0.078827
        14        15        38     1      118.396080      273.185271    ;  uncertainty theta = 0.004089, k = 0.068593
        14        19        18     1      121.038902      513.256220    ;  uncertainty theta = 0.003562, k = 0.078827
        14        19        42     1      118.396095      273.185271    ;  uncertainty theta = 0.004089, k = 0.068593
        15        14        19     1      123.006119      449.964953    ;  uncertainty theta = 0.007050, k = 0.147705
        15        16        17     1      119.486618      517.107663    ;  uncertainty theta = 0.001936, k = 0.033500
        15        16        39     1      119.692894      282.691555    ;  uncertainty theta = 0.002820, k = 0.049810
        16        15        38     1      120.085548      298.145592    ;  uncertainty theta = 0.002287, k = 0.040414
        16        17        18     1      118.018600      533.452020    ;  uncertainty theta = 0.001323, k = 0.059913
        16        17        40     1      120.465477      288.877473    ;  uncertainty theta = 0.001797, k = 0.017289
        17        16        39     1      120.779457      288.986261    ;  uncertainty theta = 0.001247, k = 0.025032
        17        18        19     1      119.486618      517.107663    ;  uncertainty theta = 0.001936, k = 0.033500
        17        18        41     1      120.779457      288.986261    ;  uncertainty theta = 0.001247, k = 0.025032
        18        17        40     1      120.465477      288.877473    ;  uncertainty theta = 0.001797, k = 0.017289
        18        19        42     1      120.085548      298.145592    ;  uncertainty theta = 0.002287, k = 0.040414
        19        18        41     1      119.692894      282.691555    ;  uncertainty theta = 0.002820, k = 0.049810
        20        13        25     1      102.870018      925.017114    ;  uncertainty theta = 0.007229, k = 0.531228
        20        21        22     1      128.556000      642.790686    ;  uncertainty theta = 0.009936, k = 0.330368
        20        21        23     1      113.193924      702.703298    ;  uncertainty theta = 0.009502, k = 0.274175
        21        20        43     1      119.382568      353.668471    ;  uncertainty theta = 0.010145, k = 0.152610
        21        22        44     1      114.821800      368.001142    ;  uncertainty theta = 0.004224, k = 0.186891
        21        22        50     1      114.821800      368.001142    ;  uncertainty theta = 0.004224, k = 0.186891
        21        23        24     1      118.639038      373.068566    ;  uncertainty theta = 0.007053, k = 0.430286
        21        23        25     1      110.408546      711.107752    ;  uncertainty theta = 0.009881, k = 0.266784
        22        21        23     1      125.899826      536.269401    ;  uncertainty theta = 0.010551, k = 0.299626
        23        24        45     1      107.362183      470.622878    ;  uncertainty theta = 0.002476, k = 0.220754
        23        24        46     1      107.362183      470.622878    ;  uncertainty theta = 0.002476, k = 0.220754
        23        24        47     1      107.362183      470.622878    ;  uncertainty theta = 0.002476, k = 0.220754
        23        25        26     1      125.508827      649.701794    ;  uncertainty theta = 0.010573, k = 0.151492
        24        23        25     1      119.076614      400.263960    ;  uncertainty theta = 0.008080, k = 0.316068
        29         1        30     1      109.081810      330.154316    ;  uncertainty theta = 0.001818, k = 0.013784
        29         1        31     1      109.081810      330.154316    ;  uncertainty theta = 0.001818, k = 0.013784
        30         1        31     1      109.081810      330.154316    ;  uncertainty theta = 0.001818, k = 0.013784
        44        22        50     1      112.418320      264.652907    ;  uncertainty theta = 0.015777, k = 0.354182
        45        24        46     1      107.627052      325.730937    ;  uncertainty theta = 0.003369, k = 0.100967
        45        24        47     1      107.627052      325.730937    ;  uncertainty theta = 0.003369, k = 0.100967
        46        24        47     1      107.627052      325.730937    ;  uncertainty theta = 0.003369, k = 0.100967

[ dihedrals ] ; propers for gromacs 4.5 or higher, use funct 9
;       ai        aj        ak        al funct           phase               k        pn
         1         2         3         4     9        0.000000        0.568150         1    ;  uncertainty k = 0.482525
         1         2         3         4     9      180.000000        7.612184         2    ;  uncertainty k = 0.075130
         1         2         3         4     9        0.000000        0.653770         3    ;  uncertainty k = 0.066948
         1         2         3         4     9      180.000000        0.294942         4    ;  uncertainty k = 0.014491
         1         2         3        28     9        0.000000       -0.201705         1    ;  uncertainty k = 0.500467
         1         2         3        28     9      180.000000        7.466080         2    ;  uncertainty k = 0.077562
         1         2         3        28     9        0.000000        0.504264         3    ;  uncertainty k = 0.142722
         1         2         3        28     9      180.000000        0.302964         4    ;  uncertainty k = 0.056582
         2         3         4         5     9        0.000000        0.007271         1    ;  uncertainty k = 0.283893
         2         3         4         5     9      180.000000       10.411236         2    ;  uncertainty k = 0.546573
         2         3         4         5     9        0.000000        1.143367         3    ;  uncertainty k = 0.289913
         2         3         4         5     9      180.000000        1.595408         4    ;  uncertainty k = 0.132128
         2         3         4        32     9        0.000000       -0.136089         1    ;  uncertainty k = 0.155002
         2         3         4        32     9      180.000000        8.163094         2    ;  uncertainty k = 0.300942
         2         3         4        32     9        0.000000        0.673514         3    ;  uncertainty k = 0.139306
         2         3         4        32     9      180.000000        0.988684         4    ;  uncertainty k = 0.206236
         2         3        28         7     9        0.000000        0.004287         1    ;  uncertainty k = 0.318014
         2         3        28         7     9      180.000000       10.899566         2    ;  uncertainty k = 0.536850
         2         3        28         7     9        0.000000        1.028250         3    ;  uncertainty k = 0.250815
         2         3        28         7     9      180.000000        1.534996         4    ;  uncertainty k = 0.139478
         2         3        28        49     9        0.000000       -0.128831         1    ;  uncertainty k = 0.257339
         2         3        28        49     9      180.000000        8.249410         2    ;  uncertainty k = 0.248923
         2         3        28        49     9        0.000000        0.655938         3    ;  uncertainty k = 0.158662
         2         3        28        49     9      180.000000        1.086627         4    ;  uncertainty k = 0.174282
         3         2         1        29     9        0.000000        0.684639         1    ;  uncertainty k = 0.190986
         3         2         1        29     9      180.000000       -1.417660         2    ;  uncertainty k = 0.128380
         3         2         1        29     9        0.000000        0.937134         3    ;  uncertainty k = 0.037775
         3         2         1        29     9      180.000000        0.288298         4    ;  uncertainty k = 0.056741
         3         2         1        30     9        0.000000        0.684639         1    ;  uncertainty k = 0.190986
         3         2         1        30     9      180.000000       -1.417660         2    ;  uncertainty k = 0.128380
         3         2         1        30     9        0.000000        0.937134         3    ;  uncertainty k = 0.037775
         3         2         1        30     9      180.000000        0.288298         4    ;  uncertainty k = 0.056741
         3         2         1        31     9        0.000000        0.684639         1    ;  uncertainty k = 0.190986
         3         2         1        31     9      180.000000       -1.417660         2    ;  uncertainty k = 0.128380
         3         2         1        31     9        0.000000        0.937134         3    ;  uncertainty k = 0.037775
         3         2         1        31     9      180.000000        0.288298         4    ;  uncertainty k = 0.056741
         3         4         5         6     9        0.000000       -0.100392         1    ;  uncertainty k = 0.225986
         3         4         5         6     9      180.000000       14.345751         2    ;  uncertainty k = 0.276190
         3         4         5         6     9        0.000000       -0.965937         3    ;  uncertainty k = 0.497833
         3         4         5         6     9      180.000000        0.736955         4    ;  uncertainty k = 0.240606
         3         4         5        33     9        0.000000       -0.010917         1    ;  uncertainty k = 0.142053
         3         4         5        33     9      180.000000        7.873055         2    ;  uncertainty k = 0.366935
         3         4         5        33     9        0.000000        1.300375         3    ;  uncertainty k = 0.298619
         3         4         5        33     9      180.000000        1.723267         4    ;  uncertainty k = 0.126994
         3        28         7         6     9        0.000000       -0.038701         1    ;  uncertainty k = 0.181532
         3        28         7         6     9      180.000000       11.171147         2    ;  uncertainty k = 0.326354
         3        28         7         6     9        0.000000       -0.210339         3    ;  uncertainty k = 0.217516
         3        28         7         6     9      180.000000        0.972249         4    ;  uncertainty k = 0.260430
         3        28         7         8     9        0.000000        0.060560         1    ;  uncertainty k = 0.201095
         3        28         7         8     9      180.000000        8.989956         2    ;  uncertainty k = 0.621715
         3        28         7         8     9        0.000000        1.239535         3    ;  uncertainty k = 0.309820
         3        28         7         8     9      180.000000        1.679898         4    ;  uncertainty k = 0.156768
         4         3        28         7     9        0.000000        0.041073         1    ;  uncertainty k = 0.442969
         4         3        28         7     9      180.000000        9.188003         2    ;  uncertainty k = 0.574650
         4         3        28         7     9        0.000000        0.124150         3    ;  uncertainty k = 0.317011
         4         3        28         7     9      180.000000        1.198356         4    ;  uncertainty k = 0.337515
         4         3        28        49     9        0.000000        0.238335         1    ;  uncertainty k = 0.368212
         4         3        28        49     9      180.000000        6.119633         2    ;  uncertainty k = 0.409066
         4         3        28        49     9        0.000000        1.431261         3    ;  uncertainty k = 0.297018
         4         3        28        49     9      180.000000        1.644783         4    ;  uncertainty k = 0.102008
         4         5         6         7     9        0.000000       -0.031197         1    ;  uncertainty k = 0.324957
         4         5         6         7     9      180.000000       14.313582         2    ;  uncertainty k = 0.242130
         4         5         6         7     9        0.000000       -0.982661         3    ;  uncertainty k = 0.483375
         4         5         6         7     9      180.000000        0.683757         4    ;  uncertainty k = 0.234340
         4         5         6        34     9        0.000000        0.133391         1    ;  uncertainty k = 0.100310
         4         5         6        34     9      180.000000        7.902099         2    ;  uncertainty k = 0.324366
         4         5         6        34     9        0.000000        1.446701         3    ;  uncertainty k = 0.263524
         4         5         6        34     9      180.000000        1.872192         4    ;  uncertainty k = 0.162698
         5         4         3        28     9        0.000000       -0.024067         1    ;  uncertainty k = 0.135526
         5         4         3        28     9      180.000000        9.210884         2    ;  uncertainty k = 0.550899
         5         4         3        28     9        0.000000       -0.010806         3    ;  uncertainty k = 0.385175
         5         4         3        28     9      180.000000        1.182743         4    ;  uncertainty k = 0.316392
         5         6         7         8     9        0.000000       -0.016292         1    ;  uncertainty k = 0.212737
         5         6         7         8     9      180.000000        8.807632         2    ;  uncertainty k = 0.658440
         5         6         7         8     9        0.000000        1.183101         3    ;  uncertainty k = 0.419211
         5         6         7         8     9      180.000000        1.753850         4    ;  uncertainty k = 0.163046
         5         6         7        28     9        0.000000       -0.040582         1    ;  uncertainty k = 0.034211
         5         6         7        28     9      180.000000       11.782366         2    ;  uncertainty k = 0.293080
         5         6         7        28     9        0.000000       -0.515719         3    ;  uncertainty k = 0.380824
         5         6         7        28     9      180.000000        0.814431         4    ;  uncertainty k = 0.298589
         6         5         4        32     9        0.000000        0.180896         1    ;  uncertainty k = 0.117354
         6         5         4        32     9      180.000000        7.654813         2    ;  uncertainty k = 0.333234
         6         5         4        32     9        0.000000        1.549093         3    ;  uncertainty k = 0.254956
         6         5         4        32     9      180.000000        1.846828         4    ;  uncertainty k = 0.134603
         6         7         8         9     9        0.000000       -0.404291         1    ;  uncertainty k = 0.450124
         6         7         8         9     9      180.000000        3.937264         2    ;  uncertainty k = 0.125222
         6         7         8         9     9        0.000000        0.298222         3    ;  uncertainty k = 0.115519
         6         7         8         9     9      180.000000       -0.090187         4    ;  uncertainty k = 0.050314
         6         7         8        27     9        0.000000       -0.206273         1    ;  uncertainty k = 0.479487
         6         7         8        27     9      180.000000        4.201016         2    ;  uncertainty k = 0.160747
         6         7         8        27     9        0.000000        0.282992         3    ;  uncertainty k = 0.144148
         6         7         8        27     9      180.000000       -0.017253         4    ;  uncertainty k = 0.045392
         6         7        28        49     9        0.000000        0.265165         1    ;  uncertainty k = 0.202953
         6         7        28        49     9      180.000000        7.024661         2    ;  uncertainty k = 0.474071
         6         7        28        49     9        0.000000        1.541106         3    ;  uncertainty k = 0.238527
         6         7        28        49     9      180.000000        1.653637         4    ;  uncertainty k = 0.158581
         7         6         5        33     9        0.000000       -0.008353         1    ;  uncertainty k = 0.233094
         7         6         5        33     9      180.000000        7.618126         2    ;  uncertainty k = 0.315950
         7         6         5        33     9        0.000000        1.338012         3    ;  uncertainty k = 0.249647
         7         6         5        33     9      180.000000        1.810080         4    ;  uncertainty k = 0.187737
         7         8         9        10     9        0.000000        0.050182         1    ;  uncertainty k = 0.260312
         7         8         9        10     9      180.000000        8.962687         2    ;  uncertainty k = 0.550007
         7         8         9        10     9        0.000000        1.192940         3    ;  uncertainty k = 0.417892
         7         8         9        10     9      180.000000        1.745451         4    ;  uncertainty k = 0.163579
         7         8         9        35     9        0.000000       -0.119451         1    ;  uncertainty k = 0.279482
         7         8         9        35     9      180.000000        7.131418         2    ;  uncertainty k = 0.476830
         7         8         9        35     9        0.000000        0.827486         3    ;  uncertainty k = 0.129504
         7         8         9        35     9      180.000000        1.199374         4    ;  uncertainty k = 0.180144
         7         8        27        12     9        0.000000        0.326398         1    ;  uncertainty k = 0.129859
         7         8        27        12     9      180.000000        8.467194         2    ;  uncertainty k = 0.448287
         7         8        27        12     9        0.000000        1.300681         3    ;  uncertainty k = 0.405370
         7         8        27        12     9      180.000000        1.748548         4    ;  uncertainty k = 0.121405
         7         8        27        48     9        0.000000       -0.063028         1    ;  uncertainty k = 0.172637
         7         8        27        48     9      180.000000        7.336205         2    ;  uncertainty k = 0.277959
         7         8        27        48     9        0.000000        0.876061         3    ;  uncertainty k = 0.177665
         7         8        27        48     9      180.000000        1.302935         4    ;  uncertainty k = 0.182988
         8         7         6        34     9        0.000000       -0.244010         1    ;  uncertainty k = 0.343556
         8         7         6        34     9      180.000000        7.000679         2    ;  uncertainty k = 0.471822
         8         7         6        34     9        0.000000        0.838030         3    ;  uncertainty k = 0.145363
         8         7         6        34     9      180.000000        1.162635         4    ;  uncertainty k = 0.202012
         8         7        28        49     9        0.000000       -0.263937         1    ;  uncertainty k = 0.323718
         8         7        28        49     9      180.000000        7.152597         2    ;  uncertainty k = 0.412673
         8         7        28        49     9        0.000000        0.783490         3    ;  uncertainty k = 0.168787
         8         7        28        49     9      180.000000        1.131017         4    ;  uncertainty k = 0.199760
         8         9        10        11     9        0.000000       -0.066332         1    ;  uncertainty k = 0.255135
         8         9        10        11     9      180.000000       13.955498         2    ;  uncertainty k = 0.247278
         8         9        10        11     9        0.000000       -0.845522         3    ;  uncertainty k = 0.464988
         8         9        10        11     9      180.000000        0.719519         4    ;  uncertainty k = 0.212760
         8         9        10        36     9        0.000000        0.003951         1    ;  uncertainty k = 0.160671
         8         9        10        36     9      180.000000        7.674158         2    ;  uncertainty k = 0.354074
         8         9        10        36     9        0.000000        1.345038         3    ;  uncertainty k = 0.215193
         8         9        10        36     9      180.000000        1.833317         4    ;  uncertainty k = 0.194935
         8        27        12        11     9        0.000000       -0.337544         1    ;  uncertainty k = 0.430248
         8        27        12        11     9      180.000000       11.634254         2    ;  uncertainty k = 0.152112
         8        27        12        11     9        0.000000       -0.280687         3    ;  uncertainty k = 0.249627
         8        27        12        11     9      180.000000        0.949909         4    ;  uncertainty k = 0.210654
         8        27        12        13     9        0.000000        0.037450         1    ;  uncertainty k = 0.242531
         8        27        12        13     9      180.000000        8.463148         2    ;  uncertainty k = 0.391120
         8        27        12        13     9        0.000000        1.325048         3    ;  uncertainty k = 0.280368
         8        27        12        13     9      180.000000        1.855737         4    ;  uncertainty k = 0.131698
         9         8         7        28     9        0.000000       -0.343728         1    ;  uncertainty k = 0.388319
         9         8         7        28     9      180.000000        3.933317         2    ;  uncertainty k = 0.109346
         9         8         7        28     9        0.000000        0.283023         3    ;  uncertainty k = 0.129848
         9         8         7        28     9      180.000000       -0.042976         4    ;  uncertainty k = 0.046402
         9         8        27        12     9        0.000000        0.155027         1    ;  uncertainty k = 0.388124
         9         8        27        12     9      180.000000        9.777156         2    ;  uncertainty k = 0.523032
         9         8        27        12     9        0.000000       -0.102404         3    ;  uncertainty k = 0.293946
         9         8        27        12     9      180.000000        1.114951         4    ;  uncertainty k = 0.316253
         9         8        27        48     9        0.000000        0.123898         1    ;  uncertainty k = 0.171770
         9         8        27        48     9      180.000000        7.216027         2    ;  uncertainty k = 0.676592
         9         8        27        48     9        0.000000        1.428331         3    ;  uncertainty k = 0.118242
         9         8        27        48     9      180.000000        1.633759         4    ;  uncertainty k = 0.236138
         9        10        11        12     9        0.000000       -0.029526         1    ;  uncertainty k = 0.250140
         9        10        11        12     9      180.000000       13.134307         2    ;  uncertainty k = 0.324248
         9        10        11        12     9        0.000000       -0.888436         3    ;  uncertainty k = 0.557313
         9        10        11        12     9      180.000000        0.769130         4    ;  uncertainty k = 0.220931
         9        10        11        37     9        0.000000        0.042125         1    ;  uncertainty k = 0.086626
         9        10        11        37     9      180.000000        7.775274         2    ;  uncertainty k = 0.386825
         9        10        11        37     9        0.000000        1.362284         3    ;  uncertainty k = 0.234682
         9        10        11        37     9      180.000000        1.811590         4    ;  uncertainty k = 0.098599
        10         9         8        27     9        0.000000        0.149457         1    ;  uncertainty k = 0.231507
        10         9         8        27     9      180.000000       11.013562         2    ;  uncertainty k = 0.233482
        10         9         8        27     9        0.000000       -0.426697         3    ;  uncertainty k = 0.361270
        10         9         8        27     9      180.000000        0.964013         4    ;  uncertainty k = 0.294008
        10        11        12        13     9        0.000000        0.040984         1    ;  uncertainty k = 0.352621
        10        11        12        13     9      180.000000        8.805888         2    ;  uncertainty k = 0.399520
        10        11        12        13     9        0.000000        1.443687         3    ;  uncertainty k = 0.363116
        10        11        12        13     9      180.000000        1.863793         4    ;  uncertainty k = 0.164462
        10        11        12        27     9        0.000000       -0.274328         1    ;  uncertainty k = 0.291999
        10        11        12        27     9      180.000000       11.987497         2    ;  uncertainty k = 0.351789
        10        11        12        27     9        0.000000       -0.626495         3    ;  uncertainty k = 0.182581
        10        11        12        27     9      180.000000        0.822246         4    ;  uncertainty k = 0.279200
        11        10         9        35     9        0.000000        0.032972         1    ;  uncertainty k = 0.105436
        11        10         9        35     9      180.000000        7.678407         2    ;  uncertainty k = 0.219449
        11        10         9        35     9        0.000000        1.433723         3    ;  uncertainty k = 0.221969
        11        10         9        35     9      180.000000        1.813466         4    ;  uncertainty k = 0.226875
        11        12        13        14     9        0.000000        0.693921         1    ;  uncertainty k = 0.318572
        11        12        13        14     9      180.000000        1.270418         2    ;  uncertainty k = 0.479803
        11        12        13        14     9        0.000000        0.262144         3    ;  uncertainty k = 0.314566
        11        12        13        14     9      180.000000        0.217016         4    ;  uncertainty k = 0.019053
        11        12        13        20     9        0.000000       -1.025906         1    ;  uncertainty k = 1.201610
        11        12        13        20     9      180.000000        2.621037         2    ;  uncertainty k = 0.558884
        11        12        13        20     9        0.000000        0.532332         3    ;  uncertainty k = 0.211924
        11        12        13        20     9      180.000000        0.331473         4    ;  uncertainty k = 0.181779
        11        12        13        25     9        0.000000        0.342003         1    ;  uncertainty k = 1.184394
        11        12        13        25     9      180.000000        0.986087         2    ;  uncertainty k = 0.376610
        11        12        13        25     9        0.000000        0.469383         3    ;  uncertainty k = 0.110008
        11        12        13        25     9      180.000000        0.252516         4    ;  uncertainty k = 0.170003
        11        12        27        48     9        0.000000        0.269814         1    ;  uncertainty k = 0.112714
        11        12        27        48     9      180.000000        7.801474         2    ;  uncertainty k = 0.501150
        11        12        27        48     9        0.000000        1.306347         3    ;  uncertainty k = 0.364415
        11        12        27        48     9      180.000000        1.639874         4    ;  uncertainty k = 0.191191
        12        11        10        36     9        0.000000        0.130309         1    ;  uncertainty k = 0.335970
        12        11        10        36     9      180.000000        7.387019         2    ;  uncertainty k = 0.314936
        12        11        10        36     9        0.000000        1.444593         3    ;  uncertainty k = 0.134926
        12        11        10        36     9      180.000000        1.815730         4    ;  uncertainty k = 0.167713
        12        13        14        15     9        0.000000        0.604432         1    ;  uncertainty k = 0.306258
        12        13        14        15     9      180.000000        1.338869         2    ;  uncertainty k = 0.482783
        12        13        14        15     9        0.000000        0.282091         3    ;  uncertainty k = 0.315114
        12        13        14        15     9      180.000000        0.240277         4    ;  uncertainty k = 0.026855
        12        13        14        19     9        0.000000        0.604432         1    ;  uncertainty k = 0.306258
        12        13        14        19     9      180.000000        1.338869         2    ;  uncertainty k = 0.482783
        12        13        14        19     9        0.000000        0.282091         3    ;  uncertainty k = 0.315114
        12        13        14        19     9      180.000000        0.240277         4    ;  uncertainty k = 0.026855
        12        13        20        21     9        0.000000        0.066199         1    ;  uncertainty k = 0.766274
        12        13        20        21     9      180.000000        1.001081         2    ;  uncertainty k = 0.551928
        12        13        20        21     9        0.000000        0.663411         3    ;  uncertainty k = 0.261482
        12        13        20        21     9      180.000000        0.495633         4    ;  uncertainty k = 0.301240
        12        13        20        43     9        0.000000        2.215359         1    ;  uncertainty k = 1.158419
        12        13        20        43     9      180.000000        0.335799         2    ;  uncertainty k = 1.110183
        12        13        20        43     9        0.000000        0.587311         3    ;  uncertainty k = 0.400245
        12        13        20        43     9      180.000000        0.046799         4    ;  uncertainty k = 0.131012
        12        13        25        23     9        0.000000       -2.037881         1    ;  uncertainty k = 3.177864
        12        13        25        23     9      180.000000        1.481072         2    ;  uncertainty k = 1.062156
        12        13        25        23     9        0.000000        1.051228         3    ;  uncertainty k = 0.548384
        12        13        25        23     9      180.000000        0.739317         4    ;  uncertainty k = 0.281152
        12        13        25        26     9        0.000000       -0.497889         1    ;  uncertainty k = 1.456442
        12        13        25        26     9      180.000000        3.282057         2    ;  uncertainty k = 0.680876
        12        13        25        26     9        0.000000        0.447933         3    ;  uncertainty k = 0.239946
        12        13        25        26     9      180.000000        0.073708         4    ;  uncertainty k = 0.185546
        13        12        11        37     9        0.000000       -0.295494         1    ;  uncertainty k = 0.178811
        13        12        11        37     9      180.000000        6.909229         2    ;  uncertainty k = 0.444428
        13        12        11        37     9        0.000000        0.631065         3    ;  uncertainty k = 0.378602
        13        12        11        37     9      180.000000        1.058610         4    ;  uncertainty k = 0.260534
        13        12        27        48     9        0.000000       -0.235104         1    ;  uncertainty k = 0.114281
        13        12        27        48     9      180.000000        7.081288         2    ;  uncertainty k = 0.492982
        13        12        27        48     9        0.000000        0.600191         3    ;  uncertainty k = 0.412357
        13        12        27        48     9      180.000000        1.109087         4    ;  uncertainty k = 0.295872
        13        14        15        16     9        0.000000        0.032928         1    ;  uncertainty k = 0.381328
        13        14        15        16     9      180.000000        8.668435         2    ;  uncertainty k = 0.351930
        13        14        15        16     9        0.000000        1.456047         3    ;  uncertainty k = 0.364144
        13        14        15        16     9      180.000000        1.853281         4    ;  uncertainty k = 0.176604
        13        14        15        38     9        0.000000       -0.276888         1    ;  uncertainty k = 0.183727
        13        14        15        38     9      180.000000        6.938092         2    ;  uncertainty k = 0.459858
        13        14        15        38     9        0.000000        0.623176         3    ;  uncertainty k = 0.398126
        13        14        15        38     9      180.000000        1.065174         4    ;  uncertainty k = 0.272845
        13        14        19        18     9        0.000000        0.032928         1    ;  uncertainty k = 0.381328
        13        14        19        18     9      180.000000        8.668435         2    ;  uncertainty k = 0.351930
        13        14        19        18     9        0.000000        1.456047         3    ;  uncertainty k = 0.364144
        13        14        19        18     9      180.000000        1.853281         4    ;  uncertainty k = 0.176604
        13        14        19        42     9        0.000000       -0.276888         1    ;  uncertainty k = 0.183727
        13        14        19        42     9      180.000000        6.938094         2    ;  uncertainty k = 0.459859
        13        14        19        42     9        0.000000        0.623176         3    ;  uncertainty k = 0.398126
        13        14        19        42     9      180.000000        1.065175         4    ;  uncertainty k = 0.272844
        13        20        21        22     9        0.000000        2.188018         1    ;  uncertainty k = 1.893595
        13        20        21        22     9      180.000000       10.144536         2    ;  uncertainty k = 0.979795
        13        20        21        22     9        0.000000        0.434811         3    ;  uncertainty k = 0.470361
        13        20        21        22     9      180.000000       -0.420942         4    ;  uncertainty k = 0.555912
        13        20        21        23     9        0.000000        1.216638         1    ;  uncertainty k = 1.851011
        13        20        21        23     9      180.000000       14.836933         2    ;  uncertainty k = 0.431548
        13        20        21        23     9        0.000000       -0.181364         3    ;  uncertainty k = 0.984648
        13        20        21        23     9      180.000000       -0.541451         4    ;  uncertainty k = 0.214129
        13        25        23        21     9        0.000000        3.107153         1    ;  uncertainty k = 1.849251
        13        25        23        21     9      180.000000        3.066215         2    ;  uncertainty k = 0.882202
        13        25        23        21     9        0.000000       -0.285893         3    ;  uncertainty k = 0.712735
        13        25        23        21     9      180.000000        0.753330         4    ;  uncertainty k = 0.259714
        13        25        23        24     9        0.000000        5.315174         1    ;  uncertainty k = 1.998702
        13        25        23        24     9      180.000000        4.608338         2    ;  uncertainty k = 1.496937
        13        25        23        24     9        0.000000        1.271077         3    ;  uncertainty k = 0.828354
        13        25        23        24     9      180.000000        0.033156         4    ;  uncertainty k = 0.568100
        14        13        12        27     9        0.000000        0.688748         1    ;  uncertainty k = 0.417310
        14        13        12        27     9      180.000000        1.199512         2    ;  uncertainty k = 0.535195
        14        13        12        27     9        0.000000        0.208028         3    ;  uncertainty k = 0.342175
        14        13        12        27     9      180.000000        0.228344         4    ;  uncertainty k = 0.029728
        14        13        20        21     9        0.000000        0.091809         1    ;  uncertainty k = 0.741143
        14        13        20        21     9      180.000000        1.014767         2    ;  uncertainty k = 0.553246
        14        13        20        21     9        0.000000        0.643088         3    ;  uncertainty k = 0.282748
        14        13        20        21     9      180.000000        0.484815         4    ;  uncertainty k = 0.293264
        14        13        20        43     9        0.000000        2.192741         1    ;  uncertainty k = 1.168891
        14        13        20        43     9      180.000000        0.278657         2    ;  uncertainty k = 1.126460
        14        13        20        43     9        0.000000        0.581789         3    ;  uncertainty k = 0.409016
        14        13        20        43     9      180.000000        0.050894         4    ;  uncertainty k = 0.133681
        14        13        25        23     9        0.000000       -2.102596         1    ;  uncertainty k = 3.102235
        14        13        25        23     9      180.000000        1.474984         2    ;  uncertainty k = 1.103387
        14        13        25        23     9        0.000000        1.021732         3    ;  uncertainty k = 0.532804
        14        13        25        23     9      180.000000        0.737330         4    ;  uncertainty k = 0.291002
        14        13        25        26     9        0.000000       -0.742445         1    ;  uncertainty k = 1.309834
        14        13        25        26     9      180.000000        3.252606         2    ;  uncertainty k = 0.704088
        14        13        25        26     9        0.000000        0.415227         3    ;  uncertainty k = 0.232107
        14        13        25        26     9      180.000000        0.072409         4    ;  uncertainty k = 0.180998
        14        15        16        17     9        0.000000        0.005134         1    ;  uncertainty k = 0.242164
        14        15        16        17     9      180.000000       13.352666         2    ;  uncertainty k = 0.284060
        14        15        16        17     9        0.000000       -0.876868         3    ;  uncertainty k = 0.537707
        14        15        16        17     9      180.000000        0.737382         4    ;  uncertainty k = 0.245374
        14        15        16        39     9        0.000000        0.129491         1    ;  uncertainty k = 0.312672
        14        15        16        39     9      180.000000        7.427845         2    ;  uncertainty k = 0.328691
        14        15        16        39     9        0.000000        1.481584         3    ;  uncertainty k = 0.152720
        14        15        16        39     9      180.000000        1.803539         4    ;  uncertainty k = 0.149501
        14        19        18        17     9        0.000000        0.005134         1    ;  uncertainty k = 0.242164
        14        19        18        17     9      180.000000       13.352666         2    ;  uncertainty k = 0.284060
        14        19        18        17     9        0.000000       -0.876868         3    ;  uncertainty k = 0.537707
        14        19        18        17     9      180.000000        0.737382         4    ;  uncertainty k = 0.245374
        14        19        18        41     9        0.000000        0.129491         1    ;  uncertainty k = 0.312672
        14        19        18        41     9      180.000000        7.427845         2    ;  uncertainty k = 0.328691
        14        19        18        41     9        0.000000        1.481584         3    ;  uncertainty k = 0.152720
        14        19        18        41     9      180.000000        1.803539         4    ;  uncertainty k = 0.149501
        15        14        13        20     9        0.000000       -1.006358         1    ;  uncertainty k = 1.282049
        15        14        13        20     9      180.000000        2.605369         2    ;  uncertainty k = 0.522488
        15        14        13        20     9        0.000000        0.536044         3    ;  uncertainty k = 0.227424
        15        14        13        20     9      180.000000        0.333204         4    ;  uncertainty k = 0.173230
        15        14        13        25     9        0.000000        0.270088         1    ;  uncertainty k = 1.215595
        15        14        13        25     9      180.000000        0.970681         2    ;  uncertainty k = 0.379854
        15        14        13        25     9        0.000000        0.486666         3    ;  uncertainty k = 0.110641
        15        14        13        25     9      180.000000        0.249509         4    ;  uncertainty k = 0.167503
        15        14        19        18     9        0.000000       -0.240734         1    ;  uncertainty k = 0.377667
        15        14        19        18     9      180.000000       12.023573         2    ;  uncertainty k = 0.322595
        15        14        19        18     9        0.000000       -0.630710         3    ;  uncertainty k = 0.226695
        15        14        19        18     9      180.000000        0.783826         4    ;  uncertainty k = 0.301902
        15        14        19        42     9        0.000000        0.252150         1    ;  uncertainty k = 0.138567
        15        14        19        42     9      180.000000        7.620993         2    ;  uncertainty k = 0.536107
        15        14        19        42     9        0.000000        1.293074         3    ;  uncertainty k = 0.300641
        15        14        19        42     9      180.000000        1.649203         4    ;  uncertainty k = 0.194464
        15        16        17        18     9        0.000000       -0.006372         1    ;  uncertainty k = 0.040989
        15        16        17        18     9      180.000000       14.797847         2    ;  uncertainty k = 0.237723
        15        16        17        18     9        0.000000       -1.169439         3    ;  uncertainty k = 0.405008
        15        16        17        18     9      180.000000        0.534939         4    ;  uncertainty k = 0.272125
        15        16        17        40     9        0.000000        0.023623         1    ;  uncertainty k = 0.110077
        15        16        17        40     9      180.000000        7.495129         2    ;  uncertainty k = 0.205716
        15        16        17        40     9        0.000000        1.458527         3    ;  uncertainty k = 0.253935
        15        16        17        40     9      180.000000        1.798438         4    ;  uncertainty k = 0.212079
        16        15        14        19     9        0.000000       -0.240734         1    ;  uncertainty k = 0.377667
        16        15        14        19     9      180.000000       12.023573         2    ;  uncertainty k = 0.322595
        16        15        14        19     9        0.000000       -0.630710         3    ;  uncertainty k = 0.226695
        16        15        14        19     9      180.000000        0.783826         4    ;  uncertainty k = 0.301902
        16        17        18        19     9        0.000000       -0.006372         1    ;  uncertainty k = 0.040989
        16        17        18        19     9      180.000000       14.797847         2    ;  uncertainty k = 0.237723
        16        17        18        19     9        0.000000       -1.169439         3    ;  uncertainty k = 0.405008
        16        17        18        19     9      180.000000        0.534939         4    ;  uncertainty k = 0.272125
        16        17        18        41     9        0.000000       -0.019977         1    ;  uncertainty k = 0.134329
        16        17        18        41     9      180.000000        7.715564         2    ;  uncertainty k = 0.305081
        16        17        18        41     9        0.000000        1.421882         3    ;  uncertainty k = 0.287489
        16        17        18        41     9      180.000000        1.773059         4    ;  uncertainty k = 0.137712
        17        16        15        38     9        0.000000       -0.004881         1    ;  uncertainty k = 0.143287
        17        16        15        38     9      180.000000        8.039949         2    ;  uncertainty k = 0.374443
        17        16        15        38     9        0.000000        1.349892         3    ;  uncertainty k = 0.280047
        17        16        15        38     9      180.000000        1.833069         4    ;  uncertainty k = 0.108033
        17        18        19        42     9        0.000000       -0.004880         1    ;  uncertainty k = 0.143288
        17        18        19        42     9      180.000000        8.039949         2    ;  uncertainty k = 0.374443
        17        18        19        42     9        0.000000        1.349893         3    ;  uncertainty k = 0.280047
        17        18        19        42     9      180.000000        1.833068         4    ;  uncertainty k = 0.108032
        18        17        16        39     9        0.000000       -0.019977         1    ;  uncertainty k = 0.134329
        18        17        16        39     9      180.000000        7.715564         2    ;  uncertainty k = 0.305081
        18        17        16        39     9        0.000000        1.421882         3    ;  uncertainty k = 0.287489
        18        17        16        39     9      180.000000        1.773059         4    ;  uncertainty k = 0.137712
        19        14        13        20     9        0.000000       -1.006358         1    ;  uncertainty k = 1.282049
        19        14        13        20     9      180.000000        2.605369         2    ;  uncertainty k = 0.522488
        19        14        13        20     9        0.000000        0.536044         3    ;  uncertainty k = 0.227424
        19        14        13        20     9      180.000000        0.333204         4    ;  uncertainty k = 0.173230
        19        14        13        25     9        0.000000        0.270088         1    ;  uncertainty k = 1.215595
        19        14        13        25     9      180.000000        0.970681         2    ;  uncertainty k = 0.379854
        19        14        13        25     9        0.000000        0.486666         3    ;  uncertainty k = 0.110641
        19        14        13        25     9      180.000000        0.249509         4    ;  uncertainty k = 0.167503
        19        14        15        38     9        0.000000        0.252149         1    ;  uncertainty k = 0.138566
        19        14        15        38     9      180.000000        7.620993         2    ;  uncertainty k = 0.536107
        19        14        15        38     9        0.000000        1.293075         3    ;  uncertainty k = 0.300642
        19        14        15        38     9      180.000000        1.649203         4    ;  uncertainty k = 0.194464
        19        18        17        40     9        0.000000        0.023623         1    ;  uncertainty k = 0.110077
        19        18        17        40     9      180.000000        7.495129         2    ;  uncertainty k = 0.205716
        19        18        17        40     9        0.000000        1.458527         3    ;  uncertainty k = 0.253935
        19        18        17        40     9      180.000000        1.798438         4    ;  uncertainty k = 0.212079
        20        13        12        27     9        0.000000       -0.812419         1    ;  uncertainty k = 1.190583
        20        13        12        27     9      180.000000        2.614923         2    ;  uncertainty k = 0.651824
        20        13        12        27     9        0.000000        0.487181         3    ;  uncertainty k = 0.181040
        20        13        12        27     9      180.000000        0.338572         4    ;  uncertainty k = 0.181116
        20        13        25        23     9        0.000000        0.026898         1    ;  uncertainty k = 2.722771
        20        13        25        23     9      180.000000        6.600281         2    ;  uncertainty k = 0.954493
        20        13        25        23     9        0.000000        0.270507         3    ;  uncertainty k = 0.664803
        20        13        25        23     9      180.000000        0.250183         4    ;  uncertainty k = 0.591147
        20        13        25        26     9        0.000000       -1.351474         1    ;  uncertainty k = 2.878369
        20        13        25        26     9      180.000000        2.586287         2    ;  uncertainty k = 1.299806
        20        13        25        26     9        0.000000        0.299897         3    ;  uncertainty k = 0.631686
        20        13        25        26     9      180.000000        0.356820         4    ;  uncertainty k = 0.111974
        20        21        22        44     9        0.000000        5.761292         1    ;  uncertainty k = 1.326848
        20        21        22        44     9      180.000000       10.436705         2    ;  uncertainty k = 0.346043
        20        21        22        44     9        0.000000        1.485193         3    ;  uncertainty k = 0.455012
        20        21        22        44     9      180.000000       -0.773238         4    ;  uncertainty k = 0.306950
        20        21        22        50     9        0.000000        5.761292         1    ;  uncertainty k = 1.326848
        20        21        22        50     9      180.000000       10.436705         2    ;  uncertainty k = 0.346043
        20        21        22        50     9        0.000000        1.485193         3    ;  uncertainty k = 0.455012
        20        21        22        50     9      180.000000       -0.773238         4    ;  uncertainty k = 0.306950
        20        21        23        24     9        0.000000       -0.356118         1    ;  uncertainty k = 2.518193
        20        21        23        24     9      180.000000        8.283855         2    ;  uncertainty k = 0.415940
        20        21        23        24     9        0.000000        0.272445         3    ;  uncertainty k = 0.120757
        20        21        23        24     9      180.000000       -0.125980         4    ;  uncertainty k = 0.245883
        20        21        23        25     9        0.000000       -0.153039         1    ;  uncertainty k = 1.721867
        20        21        23        25     9      180.000000        8.631893         2    ;  uncertainty k = 0.890565
        20        21        23        25     9        0.000000       -1.128579         3    ;  uncertainty k = 1.132201
        20        21        23        25     9      180.000000        0.000351         4    ;  uncertainty k = 0.465972
        21        20        13        25     9        0.000000        2.020598         1    ;  uncertainty k = 0.690694
        21        20        13        25     9      180.000000        2.318166         2    ;  uncertainty k = 1.059665
        21        20        13        25     9        0.000000        0.199857         3    ;  uncertainty k = 0.699828
        21        20        13        25     9      180.000000        0.438068         4    ;  uncertainty k = 0.468952
        21        23        24        45     9        0.000000       -0.396421         1    ;  uncertainty k = 0.524314
        21        23        24        45     9      180.000000       -1.104408         2    ;  uncertainty k = 0.426496
        21        23        24        45     9        0.000000        0.442755         3    ;  uncertainty k = 0.213660
        21        23        24        45     9      180.000000        0.194734         4    ;  uncertainty k = 0.049390
        21        23        24        46     9        0.000000       -0.396421         1    ;  uncertainty k = 0.524314
        21        23        24        46     9      180.000000       -1.104408         2    ;  uncertainty k = 0.426496
        21        23        24        46     9        0.000000        0.442755         3    ;  uncertainty k = 0.213660
        21        23        24        46     9      180.000000        0.194734         4    ;  uncertainty k = 0.049390
        21        23        24        47     9        0.000000       -0.396421         1    ;  uncertainty k = 0.524314
        21        23        24        47     9      180.000000       -1.104408         2    ;  uncertainty k = 0.426496
        21        23        24        47     9        0.000000        0.442755         3    ;  uncertainty k = 0.213660
        21        23        24        47     9      180.000000        0.194734         4    ;  uncertainty k = 0.049390
        21        23        25        26     9        0.000000        0.406781         1    ;  uncertainty k = 2.598332
        21        23        25        26     9      180.000000        7.636296         2    ;  uncertainty k = 0.797350
        21        23        25        26     9        0.000000        0.506696         3    ;  uncertainty k = 0.484035
        21        23        25        26     9      180.000000        0.070887         4    ;  uncertainty k = 0.264122
        22        21        20        43     9        0.000000        2.256417         1    ;  uncertainty k = 2.728266
        22        21        20        43     9      180.000000        7.437433         2    ;  uncertainty k = 1.129202
        22        21        20        43     9        0.000000        0.944499         3    ;  uncertainty k = 0.181482
        22        21        20        43     9      180.000000       -0.270290         4    ;  uncertainty k = 0.314797
        22        21        23        24     9        0.000000        0.020222         1    ;  uncertainty k = 0.657934
        22        21        23        24     9      180.000000        6.877463         2    ;  uncertainty k = 0.678114
        22        21        23        24     9        0.000000        0.933687         3    ;  uncertainty k = 0.728897
        22        21        23        24     9      180.000000        0.009158         4    ;  uncertainty k = 0.300485
        22        21        23        25     9        0.000000       -0.586688         1    ;  uncertainty k = 0.774775
        22        21        23        25     9      180.000000        6.636752         2    ;  uncertainty k = 1.298464
        22        21        23        25     9        0.000000        0.201670         3    ;  uncertainty k = 0.743074
        22        21        23        25     9      180.000000       -0.088175         4    ;  uncertainty k = 0.478530
        23        21        20        43     9        0.000000        4.192860         1    ;  uncertainty k = 3.453399
        23        21        20        43     9      180.000000       10.610631         2    ;  uncertainty k = 0.634115
        23        21        20        43     9        0.000000        0.940963         3    ;  uncertainty k = 0.791708
        23        21        20        43     9      180.000000       -0.427268         4    ;  uncertainty k = 0.191048
        23        21        22        44     9        0.000000        7.495468         1    ;  uncertainty k = 2.018544
        23        21        22        44     9      180.000000        9.518868         2    ;  uncertainty k = 0.609487
        23        21        22        44     9        0.000000        1.009624         3    ;  uncertainty k = 0.533193
        23        21        22        44     9      180.000000       -0.962190         4    ;  uncertainty k = 0.242200
        23        21        22        50     9        0.000000        7.495468         1    ;  uncertainty k = 2.018544
        23        21        22        50     9      180.000000        9.518868         2    ;  uncertainty k = 0.609487
        23        21        22        50     9        0.000000        1.009624         3    ;  uncertainty k = 0.533193
        23        21        22        50     9      180.000000       -0.962190         4    ;  uncertainty k = 0.242200
        24        23        25        26     9        0.000000       -0.515838         1    ;  uncertainty k = 3.156146
        24        23        25        26     9      180.000000        8.416191         2    ;  uncertainty k = 0.470257
        24        23        25        26     9        0.000000        0.571767         3    ;  uncertainty k = 0.526357
        24        23        25        26     9      180.000000        0.206425         4    ;  uncertainty k = 0.242867
        25        13        12        27     9        0.000000        0.320605         1    ;  uncertainty k = 1.213904
        25        13        12        27     9      180.000000        0.986934         2    ;  uncertainty k = 0.365422
        25        13        12        27     9        0.000000        0.423506         3    ;  uncertainty k = 0.099844
        25        13        12        27     9      180.000000        0.257888         4    ;  uncertainty k = 0.166690
        25        13        20        43     9        0.000000       -0.290077         1    ;  uncertainty k = 2.574721
        25        13        20        43     9      180.000000        0.241722         2    ;  uncertainty k = 1.828814
        25        13        20        43     9        0.000000        0.369688         3    ;  uncertainty k = 0.455814
        25        13        20        43     9      180.000000       -0.040548         4    ;  uncertainty k = 0.160948
        25        23        24        45     9        0.000000        0.248591         1    ;  uncertainty k = 0.444250
        25        23        24        45     9      180.000000        0.083806         2    ;  uncertainty k = 0.256011
        25        23        24        45     9        0.000000        0.361519         3    ;  uncertainty k = 0.229559
        25        23        24        45     9      180.000000        0.309824         4    ;  uncertainty k = 0.070542
        25        23        24        46     9        0.000000        0.248591         1    ;  uncertainty k = 0.444250
        25        23        24        46     9      180.000000        0.083806         2    ;  uncertainty k = 0.256011
        25        23        24        46     9        0.000000        0.361519         3    ;  uncertainty k = 0.229559
        25        23        24        46     9      180.000000        0.309824         4    ;  uncertainty k = 0.070542
        25        23        24        47     9        0.000000        0.248591         1    ;  uncertainty k = 0.444250
        25        23        24        47     9      180.000000        0.083806         2    ;  uncertainty k = 0.256011
        25        23        24        47     9        0.000000        0.361519         3    ;  uncertainty k = 0.229559
        25        23        24        47     9      180.000000        0.309824         4    ;  uncertainty k = 0.070542
        27         8         7        28     9        0.000000       -0.103785         1    ;  uncertainty k = 0.454222
        27         8         7        28     9      180.000000        4.190489         2    ;  uncertainty k = 0.157246
        27         8         7        28     9        0.000000        0.235150         3    ;  uncertainty k = 0.152654
        27         8         7        28     9      180.000000        0.024082         4    ;  uncertainty k = 0.047933
        27         8         9        35     9        0.000000        0.186057         1    ;  uncertainty k = 0.179689
        27         8         9        35     9      180.000000        7.070454         2    ;  uncertainty k = 0.448958
        27         8         9        35     9        0.000000        1.402231         3    ;  uncertainty k = 0.248960
        27         8         9        35     9      180.000000        1.594145         4    ;  uncertainty k = 0.263970
        27        12        11        37     9        0.000000        0.312630         1    ;  uncertainty k = 0.190291
        27        12        11        37     9      180.000000        7.595633         2    ;  uncertainty k = 0.551731
        27        12        11        37     9        0.000000        1.287662         3    ;  uncertainty k = 0.350845
        27        12        11        37     9      180.000000        1.645476         4    ;  uncertainty k = 0.209409
        28         3         4        32     9        0.000000        0.226740         1    ;  uncertainty k = 0.296281
        28         3         4        32     9      180.000000        5.916676         2    ;  uncertainty k = 0.473217
        28         3         4        32     9        0.000000        1.442284         3    ;  uncertainty k = 0.264480
        28         3         4        32     9      180.000000        1.566734         4    ;  uncertainty k = 0.113676
        28         7         6        34     9        0.000000        0.109284         1    ;  uncertainty k = 0.192364
        28         7         6        34     9      180.000000        6.936345         2    ;  uncertainty k = 0.593108
        28         7         6        34     9        0.000000        1.511998         3    ;  uncertainty k = 0.234268
        28         7         6        34     9      180.000000        1.658053         4    ;  uncertainty k = 0.237202
        32         4         5        33     9        0.000000       -0.097484         1    ;  uncertainty k = 0.054158
        32         4         5        33     9      180.000000        7.528875         2    ;  uncertainty k = 0.414439
        32         4         5        33     9        0.000000       -0.411261         3    ;  uncertainty k = 0.249763
        32         4         5        33     9      180.000000        0.090035         4    ;  uncertainty k = 0.124253
        33         5         6        34     9        0.000000       -0.080460         1    ;  uncertainty k = 0.200026
        33         5         6        34     9      180.000000        7.592462         2    ;  uncertainty k = 0.360342
        33         5         6        34     9        0.000000       -0.443416         3    ;  uncertainty k = 0.277104
        33         5         6        34     9      180.000000        0.126049         4    ;  uncertainty k = 0.121697
        35         9        10        36     9        0.000000       -0.091342         1    ;  uncertainty k = 0.201671
        35         9        10        36     9      180.000000        7.955100         2    ;  uncertainty k = 0.286442
        35         9        10        36     9        0.000000       -0.501359         3    ;  uncertainty k = 0.277133
        35         9        10        36     9      180.000000        0.117607         4    ;  uncertainty k = 0.149001
        36        10        11        37     9        0.000000       -0.162734         1    ;  uncertainty k = 0.342356
        36        10        11        37     9      180.000000        7.812447         2    ;  uncertainty k = 0.315879
        36        10        11        37     9        0.000000       -0.476482         3    ;  uncertainty k = 0.316090
        36        10        11        37     9      180.000000        0.149753         4    ;  uncertainty k = 0.190255
        38        15        16        39     9        0.000000       -0.156460         1    ;  uncertainty k = 0.354103
        38        15        16        39     9      180.000000        7.863236         2    ;  uncertainty k = 0.315071
        38        15        16        39     9        0.000000       -0.450842         3    ;  uncertainty k = 0.303952
        38        15        16        39     9      180.000000        0.185726         4    ;  uncertainty k = 0.168830
        39        16        17        40     9        0.000000       -0.049615         1    ;  uncertainty k = 0.148337
        39        16        17        40     9      180.000000        7.798627         2    ;  uncertainty k = 0.386263
        39        16        17        40     9        0.000000       -0.413767         3    ;  uncertainty k = 0.291377
        39        16        17        40     9      180.000000        0.047026         4    ;  uncertainty k = 0.170119
        40        17        18        41     9        0.000000       -0.049615         1    ;  uncertainty k = 0.148337
        40        17        18        41     9      180.000000        7.798627         2    ;  uncertainty k = 0.386263
        40        17        18        41     9        0.000000       -0.413767         3    ;  uncertainty k = 0.291377
        40        17        18        41     9      180.000000        0.047026         4    ;  uncertainty k = 0.170119
        41        18        19        42     9        0.000000       -0.156460         1    ;  uncertainty k = 0.354102
        41        18        19        42     9      180.000000        7.863234         2    ;  uncertainty k = 0.315072
        41        18        19        42     9        0.000000       -0.450842         3    ;  uncertainty k = 0.303952
        41        18        19        42     9      180.000000        0.185726         4    ;  uncertainty k = 0.168830

[ dihedrals ] ; impropers
;       ai        aj        ak        al funct           phase               k        pn
         3         2         4        28     4      180.000000       19.927198         2    ;  uncertainty k = 0.072470
         3         4        28         2     4      180.000000       19.927198         2    ;  uncertainty k = 0.072470
         3        28         2         4     4      180.000000       19.927198         2    ;  uncertainty k = 0.072470
         4         3         5        32     4      180.000000        2.183163         2    ;  uncertainty k = 0.331352
         4         5        32         3     4      180.000000        2.183163         2    ;  uncertainty k = 0.331352
         4        32         3         5     4      180.000000        2.183163         2    ;  uncertainty k = 0.331352
         5         4         6        33     4      180.000000        4.432232         2    ;  uncertainty k = 0.124419
         5         6        33         4     4      180.000000        4.432232         2    ;  uncertainty k = 0.124419
         5        33         4         6     4      180.000000        4.432232         2    ;  uncertainty k = 0.124419
         6         5         7        34     4      180.000000        2.897120         2    ;  uncertainty k = 0.145453
         6         7        34         5     4      180.000000        2.897120         2    ;  uncertainty k = 0.145453
         6        34         5         7     4      180.000000        2.897120         2    ;  uncertainty k = 0.145453
         7         6         8        28     4      180.000000       15.252656         2    ;  uncertainty k = 0.054882
         7         8        28         6     4      180.000000       15.252656         2    ;  uncertainty k = 0.054882
         7        28         6         8     4      180.000000       15.252656         2    ;  uncertainty k = 0.054882
         8         7         9        27     4      180.000000       15.340241         2    ;  uncertainty k = 0.068361
         8         9        27         7     4      180.000000       15.340241         2    ;  uncertainty k = 0.068361
         8        27         7         9     4      180.000000       15.340241         2    ;  uncertainty k = 0.068361
         9         8        10        35     4      180.000000        4.517923         2    ;  uncertainty k = 0.109145
         9        10        35         8     4      180.000000        4.517923         2    ;  uncertainty k = 0.109145
         9        35         8        10     4      180.000000        4.517923         2    ;  uncertainty k = 0.109145
        10         9        11        36     4      180.000000        4.097222         2    ;  uncertainty k = 0.151129
        10        11        36         9     4      180.000000        4.097222         2    ;  uncertainty k = 0.151129
        10        36         9        11     4      180.000000        4.097222         2    ;  uncertainty k = 0.151129
        11        10        12        37     4      180.000000        4.098999         2    ;  uncertainty k = 0.199476
        11        12        37        10     4      180.000000        4.098999         2    ;  uncertainty k = 0.199476
        11        37        10        12     4      180.000000        4.098999         2    ;  uncertainty k = 0.199476
        12        11        13        27     4      180.000000       10.165199         2    ;  uncertainty k = 0.227302
        12        13        27        11     4      180.000000       10.165199         2    ;  uncertainty k = 0.227302
        12        27        11        13     4      180.000000       10.165199         2    ;  uncertainty k = 0.227302
        14        13        15        19     4      180.000000        9.903188         2    ;  uncertainty k = 0.263109
        14        15        19        13     4      180.000000        9.903188         2    ;  uncertainty k = 0.263109
        14        19        13        15     4      180.000000        9.903188         2    ;  uncertainty k = 0.263109
        15        14        16        38     4      180.000000        4.262961         2    ;  uncertainty k = 0.194702
        15        16        38        14     4      180.000000        4.262961         2    ;  uncertainty k = 0.194702
        15        38        14        16     4      180.000000        4.262961         2    ;  uncertainty k = 0.194702
        16        15        17        39     4      180.000000        4.374956         2    ;  uncertainty k = 0.132609
        16        17        39        15     4      180.000000        4.374956         2    ;  uncertainty k = 0.132609
        16        39        15        17     4      180.000000        4.374956         2    ;  uncertainty k = 0.132609
        17        16        18        40     4      180.000000        4.945481         2    ;  uncertainty k = 0.161841
        17        18        40        16     4      180.000000        4.945481         2    ;  uncertainty k = 0.161841
        17        40        16        18     4      180.000000        4.945481         2    ;  uncertainty k = 0.161841
        18        17        19        41     4      180.000000        4.374956         2    ;  uncertainty k = 0.132609
        18        19        41        17     4      180.000000        4.374956         2    ;  uncertainty k = 0.132609
        18        41        17        19     4      180.000000        4.374956         2    ;  uncertainty k = 0.132609
        19        14        18        42     4      180.000000        4.262963         2    ;  uncertainty k = 0.194702
        19        18        42        14     4      180.000000        4.262963         2    ;  uncertainty k = 0.194702
        19        42        14        18     4      180.000000        4.262963         2    ;  uncertainty k = 0.194702
        21        20        22        23     4      180.000000       30.576089         2    ;  uncertainty k = 0.126950
        21        22        23        20     4      180.000000       30.576089         2    ;  uncertainty k = 0.126950
        21        23        20        22     4      180.000000       30.576089         2    ;  uncertainty k = 0.126950
        22        21        44        50     4      180.000000        0.162943         2    ;  uncertainty k = 0.364351
        22        44        50        21     4      180.000000        0.162943         2    ;  uncertainty k = 0.364351
        22        50        21        44     4      180.000000        0.162943         2    ;  uncertainty k = 0.364351
        23        21        24        25     4      180.000000        1.980025         2    ;  uncertainty k = 0.475021
        23        24        25        21     4      180.000000        1.980025         2    ;  uncertainty k = 0.475021
        23        25        21        24     4      180.000000        1.980025         2    ;  uncertainty k = 0.475021
        25        13        23        26     4      180.000000       49.868697         2    ;  uncertainty k = 0.032116
        25        23        26        13     4      180.000000       49.868697         2    ;  uncertainty k = 0.032116
        25        26        13        23     4      180.000000       49.868697         2    ;  uncertainty k = 0.032116
        27         8        12        48     4      180.000000        4.425631         2    ;  uncertainty k = 0.296191
        27        12        48         8     4      180.000000        4.425631         2    ;  uncertainty k = 0.296191
        27        48         8        12     4      180.000000        4.425631         2    ;  uncertainty k = 0.296191
        28         3         7        49     4      180.000000        2.145472         2    ;  uncertainty k = 0.294461
        28         7        49         3     4      180.000000        2.145472         2    ;  uncertainty k = 0.294461
        28        49         3         7     4      180.000000        2.145472         2    ;  uncertainty k = 0.294461

[ pairs ]
;       ai        aj funct
         1         4     1
         1        28     1
         2         5     1
         2         7     1
         2        32     1
         2        49     1
         3         6     1
         3         8     1
         3        29     1
         3        30     1
         3        31     1
         3        33     1
         4         7     1
         4        34     1
         4        49     1
         5         8     1
         5        28     1
         6         9     1
         6        27     1
         6        32     1
         6        49     1
         7        10     1
         7        12     1
         7        33     1
         7        35     1
         7        48     1
         8        11     1
         8        13     1
         8        34     1
         8        36     1
         8        49     1
         9        12     1
         9        28     1
         9        37     1
         9        48     1
        10        13     1
        10        27     1
        11        14     1
        11        20     1
        11        25     1
        11        35     1
        11        48     1
        12        15     1
        12        19     1
        12        21     1
        12        23     1
        12        26     1
        12        36     1
        12        43     1
        13        16     1
        13        18     1
        13        22     1
        13        24     1
        13        37     1
        13        38     1
        13        42     1
        13        48     1
        14        17     1
        14        21     1
        14        23     1
        14        26     1
        14        27     1
        14        39     1
        14        41     1
        14        43     1
        15        18     1
        15        20     1
        15        25     1
        15        40     1
        15        42     1
        16        19     1
        16        41     1
        17        38     1
        17        42     1
        18        39     1
        19        20     1
        19        25     1
        19        38     1
        19        40     1
        20        24     1
        20        26     1
        20        27     1
        20        44     1
        20        50     1
        21        26     1
        21        45     1
        21        46     1
        21        47     1
        22        24     1
        22        25     1
        22        43     1
        23        43     1
        23        44     1
        23        50     1
        24        26     1
        25        27     1
        25        43     1
        25        45     1
        25        46     1
        25        47     1
        27        28     1
        27        35     1
        27        37     1
        28        32     1
        28        34     1
        32        33     1
        33        34     1
        35        36     1
        36        37     1
        38        39     1
        39        40     1
        40        41     1
        41        42     1
