; ITP file created by ByteFF-joint-25, 2026-02-18 03:15:35.658929

[ atomtypes ]
;name           bonded.type        at.num        mass        charge   ptype           sigma         epsilon
 c0bf                                   6      0.0000       0.00000       A     3.39733e-01     4.51254e-01    ;  uncertainty sigma = 0.000013, epsilon = 0.001262
 n1bf                                   7      0.0000       0.00000       A     3.18110e-01     6.83692e-01    ;  uncertainty sigma = 0.000074, epsilon = 0.006737
 c2bf                                   6      0.0000       0.00000       A     3.31517e-01     4.12248e-01    ;  uncertainty sigma = 0.000058, epsilon = 0.001403
 n3bf                                   7      0.0000       0.00000       A     3.36546e-01     4.71601e-01    ;  uncertainty sigma = 0.000088, epsilon = 0.005519
 n4bf                                   7      0.0000       0.00000       A     3.27439e-01     6.56945e-01    ;  uncertainty sigma = 0.000124, epsilon = 0.011786
 c5bf                                   6      0.0000       0.00000       A     3.39803e-01     4.52408e-01    ;  uncertainty sigma = 0.000048, epsilon = 0.001848
 c6bf                                   6      0.0000       0.00000       A     3.31515e-01     4.13825e-01    ;  uncertainty sigma = 0.000024, epsilon = 0.000893
 c7bf                                   6      0.0000       0.00000       A     3.31507e-01     4.13144e-01    ;  uncertainty sigma = 0.000003, epsilon = 0.000558
 c8bf                                   6      0.0000       0.00000       A     3.31522e-01     4.13324e-01    ;  uncertainty sigma = 0.000003, epsilon = 0.000652
 c9bf                                   6      0.0000       0.00000       A     3.31511e-01     4.13225e-01    ;  uncertainty sigma = 0.000005, epsilon = 0.000664
 c10bf                                  6      0.0000       0.00000       A     3.31515e-01     4.13526e-01    ;  uncertainty sigma = 0.000009, epsilon = 0.000768
 c11bf                                  6      0.0000       0.00000       A     3.31497e-01     4.13005e-01    ;  uncertainty sigma = 0.000009, epsilon = 0.000776
 c12bf                                  6      0.0000       0.00000       A     3.31517e-01     4.13251e-01    ;  uncertainty sigma = 0.000003, epsilon = 0.000593
 c13bf                                  6      0.0000       0.00000       A     3.31520e-01     4.13305e-01    ;  uncertainty sigma = 0.000007, epsilon = 0.000588
 c14bf                                  6      0.0000       0.00000       A     3.31524e-01     4.13110e-01    ;  uncertainty sigma = 0.000005, epsilon = 0.000496
 n15bf                                  7      0.0000       0.00000       A     3.38406e-01     3.93558e-01    ;  uncertainty sigma = 0.000008, epsilon = 0.000926
 c16bf                                  6      0.0000       0.00000       A     3.31517e-01     4.13350e-01    ;  uncertainty sigma = 0.000005, epsilon = 0.000641
 c17bf                                  6      0.0000       0.00000       A     3.31517e-01     4.13236e-01    ;  uncertainty sigma = 0.000017, epsilon = 0.000949
 c18bf                                  6      0.0000       0.00000       A     3.39764e-01     4.49715e-01    ;  uncertainty sigma = 0.000040, epsilon = 0.002019
 c19bf                                  6      0.0000       0.00000       A     3.39735e-01     4.50625e-01    ;  uncertainty sigma = 0.000020, epsilon = 0.000685
 c20bf                                  6      0.0000       0.00000       A     3.39735e-01     4.50625e-01    ;  uncertainty sigma = 0.000020, epsilon = 0.000685
 c21bf                                  6      0.0000       0.00000       A     3.31558e-01     4.13924e-01    ;  uncertainty sigma = 0.000016, epsilon = 0.000458
 o22bf                                  8      0.0000       0.00000       A     3.04808e-01     6.12161e-01    ;  uncertainty sigma = 0.000055, epsilon = 0.001789
 h23bf                                  1      0.0000       0.00000       A     2.42208e-01     8.66970e-02    ;  uncertainty sigma = 0.000028, epsilon = 0.000664
 h24bf                                  1      0.0000       0.00000       A     2.42208e-01     8.66970e-02    ;  uncertainty sigma = 0.000028, epsilon = 0.000664
 h25bf                                  1      0.0000       0.00000       A     2.42208e-01     8.66970e-02    ;  uncertainty sigma = 0.000028, epsilon = 0.000664
 h26bf                                  1      0.0000       0.00000       A     1.10696e-01     4.12787e-02    ;  uncertainty sigma = 0.000128, epsilon = 0.001559
 h27bf                                  1      0.0000       0.00000       A     1.10560e-01     4.03483e-02    ;  uncertainty sigma = 0.000072, epsilon = 0.001764
 h28bf                                  1      0.0000       0.00000       A     2.62559e-01     6.70864e-02    ;  uncertainty sigma = 0.000006, epsilon = 0.000392
 h29bf                                  1      0.0000       0.00000       A     2.62564e-01     6.70136e-02    ;  uncertainty sigma = 0.000010, epsilon = 0.000418
 h30bf                                  1      0.0000       0.00000       A     2.62562e-01     6.70409e-02    ;  uncertainty sigma = 0.000012, epsilon = 0.000506
 h31bf                                  1      0.0000       0.00000       A     2.62564e-01     6.70712e-02    ;  uncertainty sigma = 0.000018, epsilon = 0.000645
 h32bf                                  1      0.0000       0.00000       A     2.62565e-01     6.71316e-02    ;  uncertainty sigma = 0.000013, epsilon = 0.000533
 h33bf                                  1      0.0000       0.00000       A     2.53636e-01     6.70819e-02    ;  uncertainty sigma = 0.000013, epsilon = 0.000406
 h34bf                                  1      0.0000       0.00000       A     2.53644e-01     6.67556e-02    ;  uncertainty sigma = 0.000027, epsilon = 0.000598
 h35bf                                  1      0.0000       0.00000       A     2.62550e-01     6.72383e-02    ;  uncertainty sigma = 0.000015, epsilon = 0.000625
 h36bf                                  1      0.0000       0.00000       A     2.59937e-01     8.72288e-02    ;  uncertainty sigma = 0.000071, epsilon = 0.001228
 h37bf                                  1      0.0000       0.00000       A     2.60065e-01     8.61959e-02    ;  uncertainty sigma = 0.000029, epsilon = 0.000649
 h38bf                                  1      0.0000       0.00000       A     2.60065e-01     8.61959e-02    ;  uncertainty sigma = 0.000029, epsilon = 0.000649
 h39bf                                  1      0.0000       0.00000       A     2.60065e-01     8.61959e-02    ;  uncertainty sigma = 0.000029, epsilon = 0.000649
 h40bf                                  1      0.0000       0.00000       A     2.60065e-01     8.61961e-02    ;  uncertainty sigma = 0.000029, epsilon = 0.000649
 h41bf                                  1      0.0000       0.00000       A     1.10696e-01     4.12786e-02    ;  uncertainty sigma = 0.000128, epsilon = 0.001560

[ moleculetype ]
;name             nrexcl
 MOL                   3

[ atoms ]
;       nr            type      resi   res      atom      cgnr      charge          mass ; qtot
         1            c0bf         1   UNL        c0         1     0.07468       12.0110 ; qtot    0.075
         2            n1bf         1   UNL        n1         2    -0.42319       14.0070 ; qtot   -0.349
         3            c2bf         1   UNL        c2         3     0.46059       12.0110 ; qtot    0.112
         4            n3bf         1   UNL        n3         4    -0.48161       14.0070 ; qtot   -0.370
         5            n4bf         1   UNL        n4         5    -0.37866       14.0070 ; qtot   -0.748
         6            c5bf         1   UNL        c5         6     0.08654       12.0110 ; qtot   -0.662
         7            c6bf         1   UNL        c6         7    -0.12595       12.0110 ; qtot   -0.788
         8            c7bf         1   UNL        c7         8    -0.09631       12.0110 ; qtot   -0.884
         9            c8bf         1   UNL        c8         9    -0.11133       12.0110 ; qtot   -0.995
        10            c9bf         1   UNL        c9        10    -0.09633       12.0110 ; qtot   -1.092
        11           c10bf         1   UNL       c10        11    -0.01426       12.0110 ; qtot   -1.106
        12           c11bf         1   UNL       c11        12    -0.16068       12.0110 ; qtot   -1.267
        13           c12bf         1   UNL       c12        13    -0.08480       12.0110 ; qtot   -1.351
        14           c13bf         1   UNL       c13        14    -0.24745       12.0110 ; qtot   -1.599
        15           c14bf         1   UNL       c14        15     0.39854       12.0110 ; qtot   -1.200
        16           n15bf         1   UNL       n15        16    -0.66161       14.0070 ; qtot   -1.862
        17           c16bf         1   UNL       c16        17     0.40601       12.0110 ; qtot   -1.456
        18           c17bf         1   UNL       c17        18    -0.08235       12.0110 ; qtot   -1.538
        19           c18bf         1   UNL       c18        19    -0.18780       12.0110 ; qtot   -1.726
        20           c19bf         1   UNL       c19        20    -0.09798       12.0110 ; qtot   -1.824
        21           c20bf         1   UNL       c20        21    -0.09798       12.0110 ; qtot   -1.922
        22           c21bf         1   UNL       c21        22     0.71197       12.0110 ; qtot   -1.210
        23           o22bf         1   UNL       o22        23    -0.45487       15.9990 ; qtot   -1.665
        24           h23bf         1   UNL       h23        24     0.09037        1.0080 ; qtot   -1.574
        25           h24bf         1   UNL       h24        25     0.09037        1.0080 ; qtot   -1.484
        26           h25bf         1   UNL       h25        26     0.09037        1.0080 ; qtot   -1.394
        27           h26bf         1   UNL       h26        27     0.33562        1.0080 ; qtot   -1.058
        28           h27bf         1   UNL       h27        28     0.35109        1.0080 ; qtot   -0.707
        29           h28bf         1   UNL       h28        29     0.14428        1.0080 ; qtot   -0.563
        30           h29bf         1   UNL       h29        30     0.14635        1.0080 ; qtot   -0.416
        31           h30bf         1   UNL       h30        31     0.13705        1.0080 ; qtot   -0.279
        32           h31bf         1   UNL       h31        32     0.14161        1.0080 ; qtot   -0.138
        33           h32bf         1   UNL       h32        33     0.14521        1.0080 ; qtot    0.007
        34           h33bf         1   UNL       h33        34     0.02336        1.0080 ; qtot    0.031
        35           h34bf         1   UNL       h34        35     0.02360        1.0080 ; qtot    0.054
        36           h35bf         1   UNL       h35        36     0.14653        1.0080 ; qtot    0.201
        37           h36bf         1   UNL       h36        37     0.11275        1.0080 ; qtot    0.314
        38           h37bf         1   UNL       h37        38     0.08766        1.0080 ; qtot    0.401
        39           h38bf         1   UNL       h38        39     0.08766        1.0080 ; qtot    0.489
        40           h39bf         1   UNL       h39        40     0.08766        1.0080 ; qtot    0.577
        41           h40bf         1   UNL       h40        41     0.08766        1.0080 ; qtot    0.664
        42           h41bf         1   UNL       h41        42     0.33563        1.0080 ; qtot    1.000

[ bonds ]
;       ai        aj funct               r               k
         1         2     1        0.146656   261100.676221    ;  uncertainty r = 0.000124, k = 11.833566
         1        24     1        0.109173   309392.626904    ;  uncertainty r = 0.000044, k = 3.074427
         1        25     1        0.109173   309392.626904    ;  uncertainty r = 0.000044, k = 3.074427
         1        26     1        0.109173   309392.626904    ;  uncertainty r = 0.000044, k = 3.074427
         2         3     1        0.135503   283548.050732    ;  uncertainty r = 0.000225, k = 42.568952
         2        22     1        0.142785   299314.074707    ;  uncertainty r = 0.000374, k = 69.452384
         3         4     1        0.133098   316435.557373    ;  uncertainty r = 0.000215, k = 41.951408
         3         5     1        0.133481   527501.221973    ;  uncertainty r = 0.000076, k = 54.235097
         4        27     1        0.101395   420938.337598    ;  uncertainty r = 0.000072, k = 12.186656
         4        42     1        0.101395   420938.388672    ;  uncertainty r = 0.000072, k = 12.186639
         5         6     1        0.149852   225534.965234    ;  uncertainty r = 0.000257, k = 72.040404
         5        28     1        0.101512   426891.191016    ;  uncertainty r = 0.000059, k = 5.031882
         6         7     1        0.150890   206477.067407    ;  uncertainty r = 0.000131, k = 15.740387
         6        19     1        0.151162   204155.935693    ;  uncertainty r = 0.000209, k = 15.151137
         6        22     1        0.153376   180115.556299    ;  uncertainty r = 0.000390, k = 26.443646
         7         8     1        0.139716   351668.009082    ;  uncertainty r = 0.000036, k = 6.008971
         7        18     1        0.139493   344820.284277    ;  uncertainty r = 0.000039, k = 8.051551
         8         9     1        0.139473   369549.501660    ;  uncertainty r = 0.000015, k = 1.353426
         8        29     1        0.108792   333228.173145    ;  uncertainty r = 0.000023, k = 2.570379
         9        10     1        0.139318   370848.804248    ;  uncertainty r = 0.000027, k = 2.020898
         9        30     1        0.108773   333044.357031    ;  uncertainty r = 0.000024, k = 1.073341
        10        11     1        0.140143   349247.397559    ;  uncertainty r = 0.000022, k = 2.355573
        10        31     1        0.108829   334964.696582    ;  uncertainty r = 0.000027, k = 0.785423
        11        12     1        0.147772   272416.041699    ;  uncertainty r = 0.000044, k = 2.996458
        11        18     1        0.139885   340058.532715    ;  uncertainty r = 0.000064, k = 2.293273
        12        13     1        0.139992   359311.265918    ;  uncertainty r = 0.000038, k = 3.474453
        12        17     1        0.140432   329830.690576    ;  uncertainty r = 0.000059, k = 5.944628
        13        14     1        0.139133   380686.337207    ;  uncertainty r = 0.000026, k = 1.714719
        13        32     1        0.108799   333137.184424    ;  uncertainty r = 0.000014, k = 1.330465
        14        15     1        0.139716   360881.159717    ;  uncertainty r = 0.000009, k = 2.079165
        14        33     1        0.108880   338001.773926    ;  uncertainty r = 0.000014, k = 1.254526
        15        16     1        0.133863   392320.227051    ;  uncertainty r = 0.000040, k = 4.166937
        15        34     1        0.109042   338059.819775    ;  uncertainty r = 0.000021, k = 2.477386
        16        17     1        0.133568   386155.568848    ;  uncertainty r = 0.000042, k = 4.717154
        17        35     1        0.109049   335122.337158    ;  uncertainty r = 0.000023, k = 2.465553
        18        36     1        0.108838   333785.495020    ;  uncertainty r = 0.000018, k = 2.036249
        19        20     1        0.151152   209331.465039    ;  uncertainty r = 0.000138, k = 6.033815
        19        21     1        0.151152   209331.465039    ;  uncertainty r = 0.000138, k = 6.033815
        19        37     1        0.108719   310203.481201    ;  uncertainty r = 0.000077, k = 4.480011
        20        21     1        0.150777   217596.141895    ;  uncertainty r = 0.000077, k = 4.692774
        20        38     1        0.108641   313244.057129    ;  uncertainty r = 0.000029, k = 3.059020
        20        39     1        0.108641   313244.057129    ;  uncertainty r = 0.000029, k = 3.059020
        21        40     1        0.108641   313244.057129    ;  uncertainty r = 0.000029, k = 3.059020
        21        41     1        0.108641   313244.057129    ;  uncertainty r = 0.000029, k = 3.059020
        22        23     1        0.120161   629558.185547    ;  uncertainty r = 0.000190, k = 11.702443

[ angles ]
;       ai        aj        ak funct           theta             cth
         1         2         3     1      118.614197      373.008810    ;  uncertainty theta = 0.007384, k = 0.436302
         1         2        22     1      119.198463      398.913877    ;  uncertainty theta = 0.009079, k = 0.285859
         2         1        24     1      107.393494      471.159859    ;  uncertainty theta = 0.002493, k = 0.223269
         2         1        25     1      107.393494      471.159859    ;  uncertainty theta = 0.002493, k = 0.223269
         2         1        26     1      107.393494      471.159859    ;  uncertainty theta = 0.002493, k = 0.223269
         2         3         4     1      125.894386      534.489050    ;  uncertainty theta = 0.010836, k = 0.297060
         2         3         5     1      113.162216      705.430278    ;  uncertainty theta = 0.009464, k = 0.270720
         2        22         6     1      109.881653      478.461334    ;  uncertainty theta = 0.004913, k = 0.638722
         2        22        23     1      125.231102      649.265684    ;  uncertainty theta = 0.010191, k = 0.111305
         3         2        22     1      110.403465      715.219291    ;  uncertainty theta = 0.010415, k = 0.265126
         3         4        27     1      114.818565      368.234583    ;  uncertainty theta = 0.004127, k = 0.182930
         3         4        42     1      114.818565      368.234583    ;  uncertainty theta = 0.004127, k = 0.182930
         3         5         6     1      111.925354      603.092930    ;  uncertainty theta = 0.017251, k = 0.409410
         3         5        28     1      119.250549      354.164625    ;  uncertainty theta = 0.008486, k = 0.158432
         4         3         5     1      128.705078      646.711143    ;  uncertainty theta = 0.008044, k = 0.328473
         5         6         7     1      110.559860      619.554406    ;  uncertainty theta = 0.004317, k = 0.200006
         5         6        19     1      110.212158      624.961187    ;  uncertainty theta = 0.003788, k = 0.136123
         5         6        22     1      102.739670      943.303728    ;  uncertainty theta = 0.008074, k = 0.565001
         6         5        28     1      117.676224      299.217704    ;  uncertainty theta = 0.008967, k = 0.364637
         6         7         8     1      117.054367      373.464998    ;  uncertainty theta = 0.006930, k = 0.229722
         6         7        18     1      116.524132      376.094554    ;  uncertainty theta = 0.006500, k = 0.184768
         6        19        20     1      112.597801      318.680365    ;  uncertainty theta = 0.010889, k = 0.113929
         6        19        21     1      112.597801      318.680365    ;  uncertainty theta = 0.010889, k = 0.113929
         6        19        37     1      112.493546      265.775375    ;  uncertainty theta = 0.006435, k = 0.172590
         6        22        23     1      125.898621      417.809007    ;  uncertainty theta = 0.008673, k = 0.151128
         7         6        19     1      112.572487      532.892725    ;  uncertainty theta = 0.006618, k = 0.274850
         7         6        22     1      109.418724      482.975497    ;  uncertainty theta = 0.008208, k = 0.137214
         7         8         9     1      120.327286      515.387068    ;  uncertainty theta = 0.004364, k = 0.037328
         7         8        29     1      118.569664      271.156092    ;  uncertainty theta = 0.003481, k = 0.042646
         7        18        11     1      122.377525      516.512393    ;  uncertainty theta = 0.002898, k = 0.176228
         7        18        36     1      118.203896      271.918183    ;  uncertainty theta = 0.003337, k = 0.070604
         8         7        18     1      123.165138      435.334104    ;  uncertainty theta = 0.006601, k = 0.143023
         8         9        10     1      120.327454      510.960626    ;  uncertainty theta = 0.002446, k = 0.080635
         8         9        30     1      119.840698      282.071674    ;  uncertainty theta = 0.001962, k = 0.039638
         9         8        29     1      120.276512      299.592748    ;  uncertainty theta = 0.003027, k = 0.031167
         9        10        11     1      119.797531      533.134913    ;  uncertainty theta = 0.002414, k = 0.083032
         9        10        31     1      120.250809      294.370314    ;  uncertainty theta = 0.001086, k = 0.018858
        10         9        30     1      120.348373      284.404042    ;  uncertainty theta = 0.000706, k = 0.050356
        10        11        12     1      121.206017      412.908564    ;  uncertainty theta = 0.002515, k = 0.151458
        10        11        18     1      120.220566      404.688424    ;  uncertainty theta = 0.004023, k = 0.248408
        11        10        31     1      118.897659      279.214837    ;  uncertainty theta = 0.000871, k = 0.082204
        11        12        13     1      122.071579      405.420062    ;  uncertainty theta = 0.003775, k = 0.063511
        11        12        17     1      120.929642      397.175789    ;  uncertainty theta = 0.003610, k = 0.071930
        11        18        36     1      118.762283      282.910472    ;  uncertainty theta = 0.001771, k = 0.061190
        12        11        18     1      120.230347      419.390138    ;  uncertainty theta = 0.002390, k = 0.140641
        12        13        14     1      119.116211      533.784641    ;  uncertainty theta = 0.002113, k = 0.049785
        12        13        32     1      119.595520      276.353851    ;  uncertainty theta = 0.001595, k = 0.054533
        12        17        16     1      124.844284      707.579162    ;  uncertainty theta = 0.001759, k = 0.114937
        12        17        35     1      119.055542      264.958395    ;  uncertainty theta = 0.002736, k = 0.068866
        13        12        17     1      117.954163      400.608360    ;  uncertainty theta = 0.003419, k = 0.212032
        13        14        15     1      117.106735      476.163760    ;  uncertainty theta = 0.001555, k = 0.042956
        13        14        33     1      121.657921      282.363627    ;  uncertainty theta = 0.000992, k = 0.055074
        14        13        32     1      120.811729      287.817843    ;  uncertainty theta = 0.001195, k = 0.056203
        14        15        16     1      122.531761      699.502094    ;  uncertainty theta = 0.001608, k = 0.061832
        14        15        34     1      120.739769      279.139758    ;  uncertainty theta = 0.001316, k = 0.021431
        15        14        33     1      121.649521      288.005923    ;  uncertainty theta = 0.000993, k = 0.094236
        15        16        17     1      116.548264      406.951746    ;  uncertainty theta = 0.002827, k = 0.106550
        16        15        34     1      116.264793      336.295416    ;  uncertainty theta = 0.001599, k = 0.036957
        16        17        35     1      116.234680      342.414778    ;  uncertainty theta = 0.001370, k = 0.079591
        19         6        22     1      107.883629      486.446341    ;  uncertainty theta = 0.005882, k = 0.311860
        19        20        21     1       59.234901      167.360000    ;  uncertainty theta = 0.035765, k = 0.000000
        19        20        38     1      109.220169      219.322304    ;  uncertainty theta = 0.004633, k = 0.103843
        19        20        39     1      109.220169      219.322304    ;  uncertainty theta = 0.004633, k = 0.103843
        19        21        20     1       59.234901      167.360000    ;  uncertainty theta = 0.035765, k = 0.000000
        19        21        40     1      109.220169      219.322304    ;  uncertainty theta = 0.004633, k = 0.103843
        19        21        41     1      109.220169      219.322320    ;  uncertainty theta = 0.004633, k = 0.103843
        20        19        21     1       60.483154      167.360000    ;  uncertainty theta = 0.027862, k = 0.000000
        20        19        37     1      109.113136      190.376293    ;  uncertainty theta = 0.005107, k = 0.517014
        20        21        40     1      109.860123      223.014140    ;  uncertainty theta = 0.003076, k = 0.167687
        20        21        41     1      109.860123      223.014140    ;  uncertainty theta = 0.003076, k = 0.167687
        21        19        37     1      109.113136      190.376293    ;  uncertainty theta = 0.005107, k = 0.517014
        21        20        38     1      109.860123      223.014140    ;  uncertainty theta = 0.003076, k = 0.167687
        21        20        39     1      109.860123      223.014140    ;  uncertainty theta = 0.003076, k = 0.167687
        24         1        25     1      107.626610      325.638365    ;  uncertainty theta = 0.003338, k = 0.102136
        24         1        26     1      107.626610      325.638365    ;  uncertainty theta = 0.003338, k = 0.102136
        25         1        26     1      107.626610      325.638365    ;  uncertainty theta = 0.003338, k = 0.102136
        27         4        42     1      112.405212      264.736094    ;  uncertainty theta = 0.015790, k = 0.355763
        38        20        39     1      113.833054      202.191516    ;  uncertainty theta = 0.004153, k = 0.109118
        40        21        41     1      113.833054      202.191500    ;  uncertainty theta = 0.004153, k = 0.109118

[ dihedrals ] ; propers for gromacs 4.5 or higher, use funct 9
;       ai        aj        ak        al funct           phase               k        pn
         1         2         3         4     9        0.000000        0.040730         1    ;  uncertainty k = 0.688649
         1         2         3         4     9      180.000000        6.849008         2    ;  uncertainty k = 0.670728
         1         2         3         4     9        0.000000        0.944278         3    ;  uncertainty k = 0.712078
         1         2         3         4     9      180.000000       -0.000087         4    ;  uncertainty k = 0.304515
         1         2         3         5     9        0.000000       -0.354626         1    ;  uncertainty k = 2.503219
         1         2         3         5     9      180.000000        8.005338         2    ;  uncertainty k = 0.438807
         1         2         3         5     9        0.000000        0.243129         3    ;  uncertainty k = 0.218200
         1         2         3         5     9      180.000000       -0.112594         4    ;  uncertainty k = 0.236888
         1         2        22         6     9        0.000000        4.631723         1    ;  uncertainty k = 2.736873
         1         2        22         6     9      180.000000        4.943813         2    ;  uncertainty k = 1.192432
         1         2        22         6     9        0.000000        1.375167         3    ;  uncertainty k = 0.809667
         1         2        22         6     9      180.000000        0.130251         4    ;  uncertainty k = 0.431012
         1         2        22        23     9        0.000000       -0.538002         1    ;  uncertainty k = 3.055169
         1         2        22        23     9      180.000000        8.216315         2    ;  uncertainty k = 0.440597
         1         2        22        23     9        0.000000        0.583621         3    ;  uncertainty k = 0.511355
         1         2        22        23     9      180.000000        0.214038         4    ;  uncertainty k = 0.224807
         2         3         4        27     9        0.000000        7.494610         1    ;  uncertainty k = 1.970887
         2         3         4        27     9      180.000000        9.421077         2    ;  uncertainty k = 0.641277
         2         3         4        27     9        0.000000        0.993965         3    ;  uncertainty k = 0.510398
         2         3         4        27     9      180.000000       -0.952354         4    ;  uncertainty k = 0.236678
         2         3         4        42     9        0.000000        7.494611         1    ;  uncertainty k = 1.970888
         2         3         4        42     9      180.000000        9.421076         2    ;  uncertainty k = 0.641278
         2         3         4        42     9        0.000000        0.993966         3    ;  uncertainty k = 0.510398
         2         3         4        42     9      180.000000       -0.952354         4    ;  uncertainty k = 0.236677
         2         3         5         6     9        0.000000        1.156212         1    ;  uncertainty k = 1.563052
         2         3         5         6     9      180.000000       15.550317         2    ;  uncertainty k = 0.323938
         2         3         5         6     9        0.000000       -0.236119         3    ;  uncertainty k = 1.036179
         2         3         5         6     9      180.000000       -0.543250         4    ;  uncertainty k = 0.194759
         2         3         5        28     9        0.000000        4.329567         1    ;  uncertainty k = 3.158575
         2         3         5        28     9      180.000000       10.930589         2    ;  uncertainty k = 0.637835
         2         3         5        28     9        0.000000        1.064632         3    ;  uncertainty k = 0.709812
         2         3         5        28     9      180.000000       -0.447108         4    ;  uncertainty k = 0.165905
         2        22         6         5     9        0.000000       -0.033179         1    ;  uncertainty k = 2.595996
         2        22         6         5     9      180.000000        6.806053         2    ;  uncertainty k = 0.896168
         2        22         6         5     9        0.000000        0.460426         3    ;  uncertainty k = 0.494178
         2        22         6         5     9      180.000000        0.257601         4    ;  uncertainty k = 0.622849
         2        22         6         7     9        0.000000       -2.355934         1    ;  uncertainty k = 3.263349
         2        22         6         7     9      180.000000        1.763974         2    ;  uncertainty k = 1.188761
         2        22         6         7     9        0.000000        1.153714         3    ;  uncertainty k = 0.534681
         2        22         6         7     9      180.000000        0.793155         4    ;  uncertainty k = 0.307447
         2        22         6        19     9        0.000000       -4.710268         1    ;  uncertainty k = 2.423676
         2        22         6        19     9      180.000000        2.533546         2    ;  uncertainty k = 1.083366
         2        22         6        19     9        0.000000        0.891934         3    ;  uncertainty k = 0.220452
         2        22         6        19     9      180.000000        0.485227         4    ;  uncertainty k = 0.244815
         3         2         1        24     9        0.000000       -0.383531         1    ;  uncertainty k = 0.528522
         3         2         1        24     9      180.000000       -1.086035         2    ;  uncertainty k = 0.435212
         3         2         1        24     9        0.000000        0.451587         3    ;  uncertainty k = 0.207353
         3         2         1        24     9      180.000000        0.189958         4    ;  uncertainty k = 0.051650
         3         2         1        25     9        0.000000       -0.383531         1    ;  uncertainty k = 0.528522
         3         2         1        25     9      180.000000       -1.086035         2    ;  uncertainty k = 0.435212
         3         2         1        25     9        0.000000        0.451587         3    ;  uncertainty k = 0.207353
         3         2         1        25     9      180.000000        0.189958         4    ;  uncertainty k = 0.051650
         3         2         1        26     9        0.000000       -0.383531         1    ;  uncertainty k = 0.528522
         3         2         1        26     9      180.000000       -1.086035         2    ;  uncertainty k = 0.435212
         3         2         1        26     9        0.000000        0.451587         3    ;  uncertainty k = 0.207353
         3         2         1        26     9      180.000000        0.189958         4    ;  uncertainty k = 0.051650
         3         2        22         6     9        0.000000        2.808968         1    ;  uncertainty k = 1.846765
         3         2        22         6     9      180.000000        3.300355         2    ;  uncertainty k = 1.050339
         3         2        22         6     9        0.000000       -0.308802         3    ;  uncertainty k = 0.814077
         3         2        22         6     9      180.000000        0.768891         4    ;  uncertainty k = 0.231648
         3         2        22        23     9        0.000000        0.409974         1    ;  uncertainty k = 2.537848
         3         2        22        23     9      180.000000        7.689630         2    ;  uncertainty k = 0.719308
         3         2        22        23     9        0.000000        0.468453         3    ;  uncertainty k = 0.500937
         3         2        22        23     9      180.000000        0.049724         4    ;  uncertainty k = 0.270588
         3         5         6         7     9        0.000000       -0.314553         1    ;  uncertainty k = 0.899073
         3         5         6         7     9      180.000000        1.056101         2    ;  uncertainty k = 0.497724
         3         5         6         7     9        0.000000        0.714234         3    ;  uncertainty k = 0.291353
         3         5         6         7     9      180.000000        0.470012         4    ;  uncertainty k = 0.235436
         3         5         6        19     9        0.000000       -1.509216         1    ;  uncertainty k = 1.634998
         3         5         6        19     9      180.000000        1.373881         2    ;  uncertainty k = 0.587006
         3         5         6        19     9        0.000000        0.711480         3    ;  uncertainty k = 0.293320
         3         5         6        19     9      180.000000        0.343775         4    ;  uncertainty k = 0.070193
         3         5         6        22     9        0.000000        1.477252         1    ;  uncertainty k = 0.971544
         3         5         6        22     9      180.000000        2.266689         2    ;  uncertainty k = 1.057273
         3         5         6        22     9        0.000000        0.080074         3    ;  uncertainty k = 0.653199
         3         5         6        22     9      180.000000        0.483153         4    ;  uncertainty k = 0.366092
         4         3         2        22     9        0.000000       -0.587143         1    ;  uncertainty k = 0.741509
         4         3         2        22     9      180.000000        6.753545         2    ;  uncertainty k = 1.232537
         4         3         2        22     9        0.000000        0.172562         3    ;  uncertainty k = 0.701805
         4         3         2        22     9      180.000000       -0.071451         4    ;  uncertainty k = 0.465546
         4         3         5         6     9        0.000000        2.305647         1    ;  uncertainty k = 1.493470
         4         3         5         6     9      180.000000       10.718593         2    ;  uncertainty k = 0.864635
         4         3         5         6     9        0.000000        0.411368         3    ;  uncertainty k = 0.519112
         4         3         5         6     9      180.000000       -0.407368         4    ;  uncertainty k = 0.569375
         4         3         5        28     9        0.000000        2.437604         1    ;  uncertainty k = 2.546327
         4         3         5        28     9      180.000000        7.841870         2    ;  uncertainty k = 1.085212
         4         3         5        28     9        0.000000        0.964729         3    ;  uncertainty k = 0.183571
         4         3         5        28     9      180.000000       -0.274989         4    ;  uncertainty k = 0.266490
         5         3         2        22     9        0.000000       -0.138601         1    ;  uncertainty k = 1.579125
         5         3         2        22     9      180.000000        8.478539         2    ;  uncertainty k = 0.785688
         5         3         2        22     9        0.000000       -1.181183         3    ;  uncertainty k = 1.175418
         5         3         2        22     9      180.000000        0.015101         4    ;  uncertainty k = 0.452115
         5         3         4        27     9        0.000000        5.946409         1    ;  uncertainty k = 1.199837
         5         3         4        27     9      180.000000       10.275180         2    ;  uncertainty k = 0.360751
         5         3         4        27     9        0.000000        1.447706         3    ;  uncertainty k = 0.437250
         5         3         4        27     9      180.000000       -0.754945         4    ;  uncertainty k = 0.301542
         5         3         4        42     9        0.000000        5.946409         1    ;  uncertainty k = 1.199837
         5         3         4        42     9      180.000000       10.275183         2    ;  uncertainty k = 0.360751
         5         3         4        42     9        0.000000        1.447707         3    ;  uncertainty k = 0.437249
         5         3         4        42     9      180.000000       -0.754945         4    ;  uncertainty k = 0.301542
         5         6         7         8     9        0.000000       -0.699230         1    ;  uncertainty k = 1.279314
         5         6         7         8     9      180.000000        2.708192         2    ;  uncertainty k = 0.421288
         5         6         7         8     9        0.000000        0.567686         3    ;  uncertainty k = 0.157429
         5         6         7         8     9      180.000000        0.364861         4    ;  uncertainty k = 0.105795
         5         6         7        18     9        0.000000       -0.462483         1    ;  uncertainty k = 1.285334
         5         6         7        18     9      180.000000        2.716521         2    ;  uncertainty k = 0.503962
         5         6         7        18     9        0.000000        0.511918         3    ;  uncertainty k = 0.127509
         5         6         7        18     9      180.000000        0.366708         4    ;  uncertainty k = 0.116716
         5         6        19        20     9        0.000000       -0.552905         1    ;  uncertainty k = 0.547483
         5         6        19        20     9      180.000000       -0.565669         2    ;  uncertainty k = 0.361203
         5         6        19        20     9        0.000000        1.437082         3    ;  uncertainty k = 0.356688
         5         6        19        20     9      180.000000        0.070806         4    ;  uncertainty k = 0.152706
         5         6        19        21     9        0.000000       -0.552905         1    ;  uncertainty k = 0.547483
         5         6        19        21     9      180.000000       -0.565669         2    ;  uncertainty k = 0.361203
         5         6        19        21     9        0.000000        1.437082         3    ;  uncertainty k = 0.356688
         5         6        19        21     9      180.000000        0.070806         4    ;  uncertainty k = 0.152706
         5         6        19        37     9        0.000000       -0.897307         1    ;  uncertainty k = 1.542189
         5         6        19        37     9      180.000000       -0.401230         2    ;  uncertainty k = 0.868617
         5         6        19        37     9        0.000000        1.105592         3    ;  uncertainty k = 0.163286
         5         6        19        37     9      180.000000       -0.134804         4    ;  uncertainty k = 0.174724
         5         6        22        23     9        0.000000       -0.743216         1    ;  uncertainty k = 2.633387
         5         6        22        23     9      180.000000        2.412786         2    ;  uncertainty k = 1.265514
         5         6        22        23     9        0.000000        0.325438         3    ;  uncertainty k = 0.532331
         5         6        22        23     9      180.000000        0.468369         4    ;  uncertainty k = 0.080497
         6         7         8         9     9        0.000000        0.053176         1    ;  uncertainty k = 0.363887
         6         7         8         9     9      180.000000        8.749176         2    ;  uncertainty k = 0.377211
         6         7         8         9     9        0.000000        1.391988         3    ;  uncertainty k = 0.437491
         6         7         8         9     9      180.000000        1.885878         4    ;  uncertainty k = 0.185664
         6         7         8        29     9        0.000000       -0.463183         1    ;  uncertainty k = 0.271774
         6         7         8        29     9      180.000000        7.054817         2    ;  uncertainty k = 0.400628
         6         7         8        29     9        0.000000        0.651904         3    ;  uncertainty k = 0.322985
         6         7         8        29     9      180.000000        1.061026         4    ;  uncertainty k = 0.224002
         6         7        18        11     9        0.000000        0.081483         1    ;  uncertainty k = 0.191625
         6         7        18        11     9      180.000000        8.493554         2    ;  uncertainty k = 0.288255
         6         7        18        11     9        0.000000        1.340005         3    ;  uncertainty k = 0.279734
         6         7        18        11     9      180.000000        1.869095         4    ;  uncertainty k = 0.127111
         6         7        18        36     9        0.000000       -0.394454         1    ;  uncertainty k = 0.247381
         6         7        18        36     9      180.000000        7.158007         2    ;  uncertainty k = 0.418520
         6         7        18        36     9        0.000000        0.595502         3    ;  uncertainty k = 0.398703
         6         7        18        36     9      180.000000        1.113652         4    ;  uncertainty k = 0.239197
         6        19        20        21     9        0.000000       55.691284         1    ;  uncertainty k = 0.394240
         6        19        20        21     9      180.000000       -5.882495         2    ;  uncertainty k = 1.567146
         6        19        20        21     9        0.000000       -9.247568         3    ;  uncertainty k = 0.879306
         6        19        20        21     9      180.000000        6.395578         4    ;  uncertainty k = 0.338963
         6        19        20        38     9        0.000000        0.527764         1    ;  uncertainty k = 2.763918
         6        19        20        38     9      180.000000       -2.372611         2    ;  uncertainty k = 0.936023
         6        19        20        38     9        0.000000        0.376113         3    ;  uncertainty k = 0.345732
         6        19        20        38     9      180.000000       -0.938628         4    ;  uncertainty k = 0.210435
         6        19        20        39     9        0.000000        0.527764         1    ;  uncertainty k = 2.763918
         6        19        20        39     9      180.000000       -2.372611         2    ;  uncertainty k = 0.936023
         6        19        20        39     9        0.000000        0.376113         3    ;  uncertainty k = 0.345732
         6        19        20        39     9      180.000000       -0.938628         4    ;  uncertainty k = 0.210435
         6        19        21        20     9        0.000000       55.691284         1    ;  uncertainty k = 0.394240
         6        19        21        20     9      180.000000       -5.882495         2    ;  uncertainty k = 1.567146
         6        19        21        20     9        0.000000       -9.247568         3    ;  uncertainty k = 0.879306
         6        19        21        20     9      180.000000        6.395578         4    ;  uncertainty k = 0.338963
         6        19        21        40     9        0.000000        0.527764         1    ;  uncertainty k = 2.763918
         6        19        21        40     9      180.000000       -2.372611         2    ;  uncertainty k = 0.936023
         6        19        21        40     9        0.000000        0.376113         3    ;  uncertainty k = 0.345732
         6        19        21        40     9      180.000000       -0.938628         4    ;  uncertainty k = 0.210435
         6        19        21        41     9        0.000000        0.527764         1    ;  uncertainty k = 2.763918
         6        19        21        41     9      180.000000       -2.372611         2    ;  uncertainty k = 0.936023
         6        19        21        41     9        0.000000        0.376113         3    ;  uncertainty k = 0.345732
         6        19        21        41     9      180.000000       -0.938628         4    ;  uncertainty k = 0.210435
         7         6         5        28     9        0.000000        2.855322         1    ;  uncertainty k = 1.115834
         7         6         5        28     9      180.000000        0.428240         2    ;  uncertainty k = 0.917922
         7         6         5        28     9        0.000000        0.644842         3    ;  uncertainty k = 0.382449
         7         6         5        28     9      180.000000        0.075470         4    ;  uncertainty k = 0.107682
         7         6        19        20     9        0.000000        0.124130         1    ;  uncertainty k = 0.346668
         7         6        19        20     9      180.000000        0.919913         2    ;  uncertainty k = 0.325644
         7         6        19        20     9        0.000000        0.930500         3    ;  uncertainty k = 0.096209
         7         6        19        20     9      180.000000        0.154807         4    ;  uncertainty k = 0.118047
         7         6        19        21     9        0.000000        0.124130         1    ;  uncertainty k = 0.346668
         7         6        19        21     9      180.000000        0.919913         2    ;  uncertainty k = 0.325644
         7         6        19        21     9        0.000000        0.930500         3    ;  uncertainty k = 0.096209
         7         6        19        21     9      180.000000        0.154807         4    ;  uncertainty k = 0.118047
         7         6        19        37     9        0.000000       -0.184079         1    ;  uncertainty k = 0.869604
         7         6        19        37     9      180.000000        0.980166         2    ;  uncertainty k = 0.351883
         7         6        19        37     9        0.000000        1.262444         3    ;  uncertainty k = 0.214708
         7         6        19        37     9      180.000000        0.093459         4    ;  uncertainty k = 0.104839
         7         6        22        23     9        0.000000       -0.220822         1    ;  uncertainty k = 1.403177
         7         6        22        23     9      180.000000        3.458789         2    ;  uncertainty k = 0.428270
         7         6        22        23     9        0.000000        0.458758         3    ;  uncertainty k = 0.238474
         7         6        22        23     9      180.000000        0.076056         4    ;  uncertainty k = 0.219098
         7         8         9        10     9        0.000000       -0.023668         1    ;  uncertainty k = 0.193559
         7         8         9        10     9      180.000000       13.182192         2    ;  uncertainty k = 0.274289
         7         8         9        10     9        0.000000       -0.877258         3    ;  uncertainty k = 0.549226
         7         8         9        10     9      180.000000        0.785750         4    ;  uncertainty k = 0.209023
         7         8         9        30     9        0.000000        0.117965         1    ;  uncertainty k = 0.337797
         7         8         9        30     9      180.000000        7.343878         2    ;  uncertainty k = 0.284805
         7         8         9        30     9        0.000000        1.465143         3    ;  uncertainty k = 0.153606
         7         8         9        30     9      180.000000        1.829819         4    ;  uncertainty k = 0.156327
         7        18        11        10     9        0.000000        0.122164         1    ;  uncertainty k = 0.273474
         7        18        11        10     9      180.000000        9.980762         2    ;  uncertainty k = 0.321203
         7        18        11        10     9        0.000000       -0.119074         3    ;  uncertainty k = 0.291300
         7        18        11        10     9      180.000000        1.097881         4    ;  uncertainty k = 0.282208
         7        18        11        12     9        0.000000        0.266046         1    ;  uncertainty k = 0.103974
         7        18        11        12     9      180.000000        8.503900         2    ;  uncertainty k = 0.380396
         7        18        11        12     9        0.000000        1.231858         3    ;  uncertainty k = 0.384332
         7        18        11        12     9      180.000000        1.704670         4    ;  uncertainty k = 0.062745
         8         7         6        19     9        0.000000       -0.343216         1    ;  uncertainty k = 0.834007
         8         7         6        19     9      180.000000        2.474860         2    ;  uncertainty k = 0.084668
         8         7         6        19     9        0.000000        0.269819         3    ;  uncertainty k = 0.246953
         8         7         6        19     9      180.000000        0.270689         4    ;  uncertainty k = 0.042204
         8         7         6        22     9        0.000000        0.361939         1    ;  uncertainty k = 1.306953
         8         7         6        22     9      180.000000        1.033462         2    ;  uncertainty k = 0.267263
         8         7         6        22     9        0.000000        0.431794         3    ;  uncertainty k = 0.174944
         8         7         6        22     9      180.000000        0.282855         4    ;  uncertainty k = 0.174150
         8         7        18        11     9        0.000000       -0.311971         1    ;  uncertainty k = 0.384531
         8         7        18        11     9      180.000000       11.579399         2    ;  uncertainty k = 0.142862
         8         7        18        11     9        0.000000       -0.219692         3    ;  uncertainty k = 0.274779
         8         7        18        11     9      180.000000        0.944315         4    ;  uncertainty k = 0.248410
         8         7        18        36     9        0.000000        0.212919         1    ;  uncertainty k = 0.067096
         8         7        18        36     9      180.000000        7.776095         2    ;  uncertainty k = 0.484698
         8         7        18        36     9        0.000000        1.354100         3    ;  uncertainty k = 0.380604
         8         7        18        36     9      180.000000        1.681009         4    ;  uncertainty k = 0.204532
         8         9        10        11     9        0.000000       -0.084799         1    ;  uncertainty k = 0.259050
         8         9        10        11     9      180.000000       14.066483         2    ;  uncertainty k = 0.226216
         8         9        10        11     9        0.000000       -0.848735         3    ;  uncertainty k = 0.490145
         8         9        10        11     9      180.000000        0.688558         4    ;  uncertainty k = 0.245001
         8         9        10        31     9        0.000000        0.070628         1    ;  uncertainty k = 0.076364
         8         9        10        31     9      180.000000        7.708401         2    ;  uncertainty k = 0.246032
         8         9        10        31     9        0.000000        1.456289         3    ;  uncertainty k = 0.228039
         8         9        10        31     9      180.000000        1.826303         4    ;  uncertainty k = 0.220310
         9         8         7        18     9        0.000000       -0.254150         1    ;  uncertainty k = 0.241611
         9         8         7        18     9      180.000000       11.999557         2    ;  uncertainty k = 0.363798
         9         8         7        18     9        0.000000       -0.565308         3    ;  uncertainty k = 0.162798
         9         8         7        18     9      180.000000        0.833724         4    ;  uncertainty k = 0.272521
         9        10        11        12     9        0.000000       -0.052788         1    ;  uncertainty k = 0.203151
         9        10        11        12     9      180.000000        8.928372         2    ;  uncertainty k = 0.533387
         9        10        11        12     9        0.000000        1.148058         3    ;  uncertainty k = 0.424475
         9        10        11        12     9      180.000000        1.720528         4    ;  uncertainty k = 0.188976
         9        10        11        18     9        0.000000        0.070647         1    ;  uncertainty k = 0.101569
         9        10        11        18     9      180.000000       11.161806         2    ;  uncertainty k = 0.244815
         9        10        11        18     9        0.000000       -0.459010         3    ;  uncertainty k = 0.327880
         9        10        11        18     9      180.000000        0.912866         4    ;  uncertainty k = 0.268393
        10         9         8        29     9        0.000000        0.043718         1    ;  uncertainty k = 0.124640
        10         9         8        29     9      180.000000        7.717290         2    ;  uncertainty k = 0.341609
        10         9         8        29     9        0.000000        1.388023         3    ;  uncertainty k = 0.233634
        10         9         8        29     9      180.000000        1.825534         4    ;  uncertainty k = 0.105979
        10        11        12        13     9        0.000000       -0.512242         1    ;  uncertainty k = 0.519285
        10        11        12        13     9      180.000000        3.645274         2    ;  uncertainty k = 0.125801
        10        11        12        13     9        0.000000        0.315343         3    ;  uncertainty k = 0.174156
        10        11        12        13     9      180.000000       -0.153511         4    ;  uncertainty k = 0.078668
        10        11        12        17     9        0.000000       -0.255449         1    ;  uncertainty k = 0.775582
        10        11        12        17     9      180.000000        3.317717         2    ;  uncertainty k = 0.052625
        10        11        12        17     9        0.000000        0.333593         3    ;  uncertainty k = 0.233489
        10        11        12        17     9      180.000000       -0.181395         4    ;  uncertainty k = 0.060182
        10        11        18        36     9        0.000000        0.064723         1    ;  uncertainty k = 0.167177
        10        11        18        36     9      180.000000        7.204544         2    ;  uncertainty k = 0.662313
        10        11        18        36     9        0.000000        1.428877         3    ;  uncertainty k = 0.158358
        10        11        18        36     9      180.000000        1.637585         4    ;  uncertainty k = 0.240392
        11        10         9        30     9        0.000000        0.018911         1    ;  uncertainty k = 0.193433
        11        10         9        30     9      180.000000        7.695753         2    ;  uncertainty k = 0.316459
        11        10         9        30     9        0.000000        1.356408         3    ;  uncertainty k = 0.246486
        11        10         9        30     9      180.000000        1.833259         4    ;  uncertainty k = 0.173444
        11        12        13        14     9        0.000000        0.097920         1    ;  uncertainty k = 0.280868
        11        12        13        14     9      180.000000        8.972705         2    ;  uncertainty k = 0.450805
        11        12        13        14     9        0.000000        1.355908         3    ;  uncertainty k = 0.477340
        11        12        13        14     9      180.000000        1.815497         4    ;  uncertainty k = 0.178254
        11        12        13        32     9        0.000000       -0.188288         1    ;  uncertainty k = 0.408862
        11        12        13        32     9      180.000000        7.122481         2    ;  uncertainty k = 0.422710
        11        12        13        32     9        0.000000        0.865100         3    ;  uncertainty k = 0.216344
        11        12        13        32     9      180.000000        1.171685         4    ;  uncertainty k = 0.229570
        11        12        17        16     9        0.000000        0.135101         1    ;  uncertainty k = 0.225924
        11        12        17        16     9      180.000000        9.486344         2    ;  uncertainty k = 0.283677
        11        12        17        16     9        0.000000        1.065622         3    ;  uncertainty k = 0.316471
        11        12        17        16     9      180.000000        1.728698         4    ;  uncertainty k = 0.189510
        11        12        17        35     9        0.000000       -0.490210         1    ;  uncertainty k = 0.751687
        11        12        17        35     9      180.000000        6.122736         2    ;  uncertainty k = 0.816009
        11        12        17        35     9        0.000000        0.822208         3    ;  uncertainty k = 0.185411
        11        12        17        35     9      180.000000        1.134994         4    ;  uncertainty k = 0.207142
        12        11        10        31     9        0.000000       -0.161649         1    ;  uncertainty k = 0.267416
        12        11        10        31     9      180.000000        7.103546         2    ;  uncertainty k = 0.423496
        12        11        10        31     9        0.000000        0.898625         3    ;  uncertainty k = 0.114674
        12        11        10        31     9      180.000000        1.209090         4    ;  uncertainty k = 0.200399
        12        11        18        36     9        0.000000       -0.133338         1    ;  uncertainty k = 0.238058
        12        11        18        36     9      180.000000        7.314044         2    ;  uncertainty k = 0.260482
        12        11        18        36     9        0.000000        0.871333         3    ;  uncertainty k = 0.169206
        12        11        18        36     9      180.000000        1.273395         4    ;  uncertainty k = 0.196176
        12        13        14        15     9        0.000000       -0.022293         1    ;  uncertainty k = 0.082343
        12        13        14        15     9      180.000000       13.928101         2    ;  uncertainty k = 0.271735
        12        13        14        15     9        0.000000       -1.069198         3    ;  uncertainty k = 0.388042
        12        13        14        15     9      180.000000        0.793067         4    ;  uncertainty k = 0.227887
        12        13        14        33     9        0.000000        0.092359         1    ;  uncertainty k = 0.106300
        12        13        14        33     9      180.000000        8.315953         2    ;  uncertainty k = 0.529381
        12        13        14        33     9        0.000000        1.499681         3    ;  uncertainty k = 0.371202
        12        13        14        33     9      180.000000        1.863068         4    ;  uncertainty k = 0.086393
        12        17        16        15     9        0.000000       -0.354420         1    ;  uncertainty k = 0.480149
        12        17        16        15     9      180.000000       14.667082         2    ;  uncertainty k = 0.350450
        12        17        16        15     9        0.000000        0.872422         3    ;  uncertainty k = 0.737263
        12        17        16        15     9      180.000000        1.445752         4    ;  uncertainty k = 0.150659
        13        12        11        18     9        0.000000       -0.307126         1    ;  uncertainty k = 0.512125
        13        12        11        18     9      180.000000        3.910075         2    ;  uncertainty k = 0.168304
        13        12        11        18     9        0.000000        0.292501         3    ;  uncertainty k = 0.194056
        13        12        11        18     9      180.000000       -0.085621         4    ;  uncertainty k = 0.076710
        13        12        17        16     9        0.000000       -0.239686         1    ;  uncertainty k = 0.325949
        13        12        17        16     9      180.000000       12.270964         2    ;  uncertainty k = 0.451461
        13        12        17        16     9        0.000000       -0.377785         3    ;  uncertainty k = 0.397532
        13        12        17        16     9      180.000000        1.061585         4    ;  uncertainty k = 0.209256
        13        12        17        35     9        0.000000       -0.134988         1    ;  uncertainty k = 0.502066
        13        12        17        35     9      180.000000        5.406283         2    ;  uncertainty k = 0.611990
        13        12        17        35     9        0.000000        1.051939         3    ;  uncertainty k = 0.250285
        13        12        17        35     9      180.000000        1.390307         4    ;  uncertainty k = 0.191182
        13        14        15        16     9        0.000000        0.032707         1    ;  uncertainty k = 0.230291
        13        14        15        16     9      180.000000       15.289852         2    ;  uncertainty k = 0.216983
        13        14        15        16     9        0.000000       -1.417882         3    ;  uncertainty k = 0.690982
        13        14        15        16     9      180.000000        0.829411         4    ;  uncertainty k = 0.195666
        13        14        15        34     9        0.000000       -0.155227         1    ;  uncertainty k = 0.339000
        13        14        15        34     9      180.000000        6.322347         2    ;  uncertainty k = 0.191257
        13        14        15        34     9        0.000000        1.225748         3    ;  uncertainty k = 0.248864
        13        14        15        34     9      180.000000        1.523585         4    ;  uncertainty k = 0.207206
        14        13        12        17     9        0.000000        0.003044         1    ;  uncertainty k = 0.101412
        14        13        12        17     9      180.000000       11.054199         2    ;  uncertainty k = 0.278577
        14        13        12        17     9        0.000000       -0.623445         3    ;  uncertainty k = 0.359266
        14        13        12        17     9      180.000000        0.870393         4    ;  uncertainty k = 0.321446
        14        15        16        17     9        0.000000       -0.217753         1    ;  uncertainty k = 0.641569
        14        15        16        17     9      180.000000       15.698946         2    ;  uncertainty k = 0.511991
        14        15        16        17     9        0.000000        0.719894         3    ;  uncertainty k = 0.635225
        14        15        16        17     9      180.000000        1.305715         4    ;  uncertainty k = 0.097679
        15        14        13        32     9        0.000000       -0.125636         1    ;  uncertainty k = 0.395480
        15        14        13        32     9      180.000000        8.042971         2    ;  uncertainty k = 0.374305
        15        14        13        32     9        0.000000        1.305638         3    ;  uncertainty k = 0.239110
        15        14        13        32     9      180.000000        1.654096         4    ;  uncertainty k = 0.140573
        15        16        17        35     9        0.000000        0.375816         1    ;  uncertainty k = 0.290394
        15        16        17        35     9      180.000000       15.574508         2    ;  uncertainty k = 0.413185
        15        16        17        35     9        0.000000        2.255651         3    ;  uncertainty k = 0.445367
        15        16        17        35     9      180.000000        1.629118         4    ;  uncertainty k = 0.327615
        16        15        14        33     9        0.000000       -0.033385         1    ;  uncertainty k = 0.312852
        16        15        14        33     9      180.000000        9.297232         2    ;  uncertainty k = 0.586533
        16        15        14        33     9        0.000000        0.960940         3    ;  uncertainty k = 0.286602
        16        15        14        33     9      180.000000        1.627077         4    ;  uncertainty k = 0.106970
        17        12        11        18     9        0.000000       -0.194051         1    ;  uncertainty k = 0.661298
        17        12        11        18     9      180.000000        3.486965         2    ;  uncertainty k = 0.096184
        17        12        11        18     9        0.000000        0.352862         3    ;  uncertainty k = 0.244529
        17        12        11        18     9      180.000000       -0.138705         4    ;  uncertainty k = 0.041854
        17        12        13        32     9        0.000000       -0.032392         1    ;  uncertainty k = 0.246383
        17        12        13        32     9      180.000000        6.620083         2    ;  uncertainty k = 0.630669
        17        12        13        32     9        0.000000        1.239595         3    ;  uncertainty k = 0.223065
        17        12        13        32     9      180.000000        1.476520         4    ;  uncertainty k = 0.225619
        17        16        15        34     9        0.000000        0.277290         1    ;  uncertainty k = 0.147788
        17        16        15        34     9      180.000000       14.860574         2    ;  uncertainty k = 0.407799
        17        16        15        34     9        0.000000        2.108131         3    ;  uncertainty k = 0.597812
        17        16        15        34     9      180.000000        1.549388         4    ;  uncertainty k = 0.299098
        18         7         6        19     9        0.000000       -0.345534         1    ;  uncertainty k = 0.729809
        18         7         6        19     9      180.000000        2.470868         2    ;  uncertainty k = 0.101610
        18         7         6        19     9        0.000000        0.222580         3    ;  uncertainty k = 0.286923
        18         7         6        19     9      180.000000        0.266080         4    ;  uncertainty k = 0.064694
        18         7         6        22     9        0.000000        0.366841         1    ;  uncertainty k = 1.327337
        18         7         6        22     9      180.000000        1.027756         2    ;  uncertainty k = 0.209863
        18         7         6        22     9        0.000000        0.376879         3    ;  uncertainty k = 0.176138
        18         7         6        22     9      180.000000        0.297842         4    ;  uncertainty k = 0.170799
        18         7         8        29     9        0.000000        0.224689         1    ;  uncertainty k = 0.113060
        18         7         8        29     9      180.000000        7.595617         2    ;  uncertainty k = 0.534211
        18         7         8        29     9        0.000000        1.342578         3    ;  uncertainty k = 0.376079
        18         7         8        29     9      180.000000        1.664294         4    ;  uncertainty k = 0.223058
        18        11        10        31     9        0.000000        0.175865         1    ;  uncertainty k = 0.187145
        18        11        10        31     9      180.000000        6.950275         2    ;  uncertainty k = 0.445067
        18        11        10        31     9        0.000000        1.432433         3    ;  uncertainty k = 0.278613
        18        11        10        31     9      180.000000        1.614178         4    ;  uncertainty k = 0.246051
        19         6         5        28     9        0.000000        1.374579         1    ;  uncertainty k = 0.505482
        19         6         5        28     9      180.000000        0.095266         2    ;  uncertainty k = 1.462891
        19         6         5        28     9        0.000000        0.636442         3    ;  uncertainty k = 0.171229
        19         6         5        28     9      180.000000        0.200691         4    ;  uncertainty k = 0.082495
        19         6        22        23     9        0.000000       -1.254501         1    ;  uncertainty k = 1.170686
        19         6        22        23     9      180.000000        3.913988         2    ;  uncertainty k = 0.980993
        19         6        22        23     9        0.000000        0.126175         3    ;  uncertainty k = 0.285228
        19         6        22        23     9      180.000000        0.109298         4    ;  uncertainty k = 0.165375
        19        20        21        40     9        0.000000       41.997787         1    ;  uncertainty k = 0.538440
        19        20        21        40     9      180.000000       -5.283550         2    ;  uncertainty k = 0.594254
        19        20        21        40     9        0.000000       -9.661772         3    ;  uncertainty k = 1.020600
        19        20        21        40     9      180.000000        4.456144         4    ;  uncertainty k = 0.290762
        19        20        21        41     9        0.000000       41.997787         1    ;  uncertainty k = 0.538440
        19        20        21        41     9      180.000000       -5.283550         2    ;  uncertainty k = 0.594254
        19        20        21        41     9        0.000000       -9.661772         3    ;  uncertainty k = 1.020600
        19        20        21        41     9      180.000000        4.456144         4    ;  uncertainty k = 0.290762
        19        21        20        38     9        0.000000       41.997787         1    ;  uncertainty k = 0.538440
        19        21        20        38     9      180.000000       -5.283550         2    ;  uncertainty k = 0.594254
        19        21        20        38     9        0.000000       -9.661772         3    ;  uncertainty k = 1.020600
        19        21        20        38     9      180.000000        4.456144         4    ;  uncertainty k = 0.290762
        19        21        20        39     9        0.000000       41.997787         1    ;  uncertainty k = 0.538440
        19        21        20        39     9      180.000000       -5.283550         2    ;  uncertainty k = 0.594254
        19        21        20        39     9        0.000000       -9.661772         3    ;  uncertainty k = 1.020600
        19        21        20        39     9      180.000000        4.456144         4    ;  uncertainty k = 0.290762
        20        19         6        22     9        0.000000       -0.233083         1    ;  uncertainty k = 0.557740
        20        19         6        22     9      180.000000        0.228841         2    ;  uncertainty k = 0.476467
        20        19         6        22     9        0.000000        0.500882         3    ;  uncertainty k = 0.312867
        20        19         6        22     9      180.000000       -0.034480         4    ;  uncertainty k = 0.127418
        20        19        21        40     9        0.000000       43.224175         1    ;  uncertainty k = 0.407746
        20        19        21        40     9      180.000000       -4.588784         2    ;  uncertainty k = 1.542575
        20        19        21        40     9        0.000000      -10.120759         3    ;  uncertainty k = 0.969736
        20        19        21        40     9      180.000000        4.930650         4    ;  uncertainty k = 0.129617
        20        19        21        41     9        0.000000       43.224175         1    ;  uncertainty k = 0.407746
        20        19        21        41     9      180.000000       -4.588784         2    ;  uncertainty k = 1.542575
        20        19        21        41     9        0.000000      -10.120759         3    ;  uncertainty k = 0.969736
        20        19        21        41     9      180.000000        4.930650         4    ;  uncertainty k = 0.129617
        20        21        19        37     9        0.000000       44.612967         1    ;  uncertainty k = 0.353264
        20        21        19        37     9      180.000000       -1.996070         2    ;  uncertainty k = 1.950392
        20        21        19        37     9        0.000000      -10.253674         3    ;  uncertainty k = 1.215937
        20        21        19        37     9      180.000000        5.302241         4    ;  uncertainty k = 0.482222
        21        19         6        22     9        0.000000       -0.233083         1    ;  uncertainty k = 0.557740
        21        19         6        22     9      180.000000        0.228841         2    ;  uncertainty k = 0.476467
        21        19         6        22     9        0.000000        0.500882         3    ;  uncertainty k = 0.312867
        21        19         6        22     9      180.000000       -0.034480         4    ;  uncertainty k = 0.127418
        21        19        20        38     9        0.000000       43.224175         1    ;  uncertainty k = 0.407746
        21        19        20        38     9      180.000000       -4.588784         2    ;  uncertainty k = 1.542575
        21        19        20        38     9        0.000000      -10.120759         3    ;  uncertainty k = 0.969736
        21        19        20        38     9      180.000000        4.930650         4    ;  uncertainty k = 0.129617
        21        19        20        39     9        0.000000       43.224175         1    ;  uncertainty k = 0.407746
        21        19        20        39     9      180.000000       -4.588784         2    ;  uncertainty k = 1.542575
        21        19        20        39     9        0.000000      -10.120759         3    ;  uncertainty k = 0.969736
        21        19        20        39     9      180.000000        4.930650         4    ;  uncertainty k = 0.129617
        21        20        19        37     9        0.000000       44.612967         1    ;  uncertainty k = 0.353264
        21        20        19        37     9      180.000000       -1.996070         2    ;  uncertainty k = 1.950392
        21        20        19        37     9        0.000000      -10.253674         3    ;  uncertainty k = 1.215937
        21        20        19        37     9      180.000000        5.302241         4    ;  uncertainty k = 0.482222
        22         2         1        24     9        0.000000        0.266638         1    ;  uncertainty k = 0.441704
        22         2         1        24     9      180.000000        0.068444         2    ;  uncertainty k = 0.239612
        22         2         1        24     9        0.000000        0.368366         3    ;  uncertainty k = 0.211350
        22         2         1        24     9      180.000000        0.305973         4    ;  uncertainty k = 0.064879
        22         2         1        25     9        0.000000        0.266638         1    ;  uncertainty k = 0.441704
        22         2         1        25     9      180.000000        0.068444         2    ;  uncertainty k = 0.239612
        22         2         1        25     9        0.000000        0.368366         3    ;  uncertainty k = 0.211350
        22         2         1        25     9      180.000000        0.305973         4    ;  uncertainty k = 0.064879
        22         2         1        26     9        0.000000        0.266638         1    ;  uncertainty k = 0.441704
        22         2         1        26     9      180.000000        0.068444         2    ;  uncertainty k = 0.239612
        22         2         1        26     9        0.000000        0.368366         3    ;  uncertainty k = 0.211350
        22         2         1        26     9      180.000000        0.305973         4    ;  uncertainty k = 0.064879
        22         6         5        28     9        0.000000        0.152252         1    ;  uncertainty k = 2.647370
        22         6         5        28     9      180.000000       -0.088868         2    ;  uncertainty k = 1.682948
        22         6         5        28     9        0.000000        0.340118         3    ;  uncertainty k = 0.403307
        22         6         5        28     9      180.000000        0.010664         4    ;  uncertainty k = 0.098531
        22         6        19        37     9        0.000000        0.743879         1    ;  uncertainty k = 1.366606
        22         6        19        37     9      180.000000       -0.499524         2    ;  uncertainty k = 0.309600
        22         6        19        37     9        0.000000        0.507012         3    ;  uncertainty k = 0.234143
        22         6        19        37     9      180.000000        0.046601         4    ;  uncertainty k = 0.093966
        29         8         9        30     9        0.000000       -0.102801         1    ;  uncertainty k = 0.340793
        29         8         9        30     9      180.000000        7.837232         2    ;  uncertainty k = 0.295465
        29         8         9        30     9        0.000000       -0.503661         3    ;  uncertainty k = 0.314921
        29         8         9        30     9      180.000000        0.124006         4    ;  uncertainty k = 0.179406
        30         9        10        31     9        0.000000       -0.095532         1    ;  uncertainty k = 0.212366
        30         9        10        31     9      180.000000        7.973046         2    ;  uncertainty k = 0.297954
        30         9        10        31     9        0.000000       -0.492866         3    ;  uncertainty k = 0.271198
        30         9        10        31     9      180.000000        0.115954         4    ;  uncertainty k = 0.147408
        32        13        14        33     9        0.000000       -0.041496         1    ;  uncertainty k = 0.196279
        32        13        14        33     9      180.000000        8.162042         2    ;  uncertainty k = 0.357568
        32        13        14        33     9        0.000000       -0.470784         3    ;  uncertainty k = 0.316492
        32        13        14        33     9      180.000000        0.117520         4    ;  uncertainty k = 0.170865
        33        14        15        34     9        0.000000       -0.272876         1    ;  uncertainty k = 0.270326
        33        14        15        34     9      180.000000        6.674021         2    ;  uncertainty k = 0.285185
        33        14        15        34     9        0.000000       -0.094419         3    ;  uncertainty k = 0.105118
        33        14        15        34     9      180.000000        0.242430         4    ;  uncertainty k = 0.077812
        37        19        20        38     9        0.000000        1.112909         1    ;  uncertainty k = 1.312835
        37        19        20        38     9      180.000000       -1.597059         2    ;  uncertainty k = 0.788589
        37        19        20        38     9        0.000000        0.801310         3    ;  uncertainty k = 0.273126
        37        19        20        38     9      180.000000       -0.760755         4    ;  uncertainty k = 0.075359
        37        19        20        39     9        0.000000        1.112909         1    ;  uncertainty k = 1.312835
        37        19        20        39     9      180.000000       -1.597059         2    ;  uncertainty k = 0.788589
        37        19        20        39     9        0.000000        0.801310         3    ;  uncertainty k = 0.273126
        37        19        20        39     9      180.000000       -0.760755         4    ;  uncertainty k = 0.075359
        37        19        21        40     9        0.000000        1.112909         1    ;  uncertainty k = 1.312835
        37        19        21        40     9      180.000000       -1.597059         2    ;  uncertainty k = 0.788589
        37        19        21        40     9        0.000000        0.801310         3    ;  uncertainty k = 0.273126
        37        19        21        40     9      180.000000       -0.760755         4    ;  uncertainty k = 0.075359
        37        19        21        41     9        0.000000        1.112909         1    ;  uncertainty k = 1.312835
        37        19        21        41     9      180.000000       -1.597059         2    ;  uncertainty k = 0.788589
        37        19        21        41     9        0.000000        0.801310         3    ;  uncertainty k = 0.273126
        37        19        21        41     9      180.000000       -0.760755         4    ;  uncertainty k = 0.075359
        38        20        21        40     9        0.000000        0.219095         1    ;  uncertainty k = 0.548231
        38        20        21        40     9      180.000000       -1.119393         2    ;  uncertainty k = 0.862492
        38        20        21        40     9        0.000000        0.928974         3    ;  uncertainty k = 0.329710
        38        20        21        40     9      180.000000       -0.633440         4    ;  uncertainty k = 0.121162
        38        20        21        41     9        0.000000        0.219095         1    ;  uncertainty k = 0.548231
        38        20        21        41     9      180.000000       -1.119393         2    ;  uncertainty k = 0.862492
        38        20        21        41     9        0.000000        0.928974         3    ;  uncertainty k = 0.329710
        38        20        21        41     9      180.000000       -0.633440         4    ;  uncertainty k = 0.121162
        39        20        21        40     9        0.000000        0.219095         1    ;  uncertainty k = 0.548231
        39        20        21        40     9      180.000000       -1.119393         2    ;  uncertainty k = 0.862492
        39        20        21        40     9        0.000000        0.928974         3    ;  uncertainty k = 0.329710
        39        20        21        40     9      180.000000       -0.633440         4    ;  uncertainty k = 0.121162
        39        20        21        41     9        0.000000        0.219095         1    ;  uncertainty k = 0.548231
        39        20        21        41     9      180.000000       -1.119393         2    ;  uncertainty k = 0.862492
        39        20        21        41     9        0.000000        0.928974         3    ;  uncertainty k = 0.329710
        39        20        21        41     9      180.000000       -0.633440         4    ;  uncertainty k = 0.121162

[ dihedrals ] ; impropers
;       ai        aj        ak        al funct           phase               k        pn
         2         1         3        22     4      180.000000        1.740988         2    ;  uncertainty k = 0.618487
         2         3        22         1     4      180.000000        1.740988         2    ;  uncertainty k = 0.618487
         2        22         1         3     4      180.000000        1.740988         2    ;  uncertainty k = 0.618487
         3         2         4         5     4      180.000000       30.611205         2    ;  uncertainty k = 0.136445
         3         4         5         2     4      180.000000       30.611205         2    ;  uncertainty k = 0.136445
         3         5         2         4     4      180.000000       30.611205         2    ;  uncertainty k = 0.136445
         4         3        27        42     4      180.000000        0.046825         2    ;  uncertainty k = 0.104703
         4        27        42         3     4      180.000000        0.046825         2    ;  uncertainty k = 0.104703
         4        42         3        27     4      180.000000        0.046825         2    ;  uncertainty k = 0.104703
         7         6         8        18     4      180.000000       11.038874         2    ;  uncertainty k = 0.200619
         7         8        18         6     4      180.000000       11.038874         2    ;  uncertainty k = 0.200619
         7        18         6         8     4      180.000000       11.038874         2    ;  uncertainty k = 0.200619
         8         7         9        29     4      180.000000        3.735097         2    ;  uncertainty k = 0.215510
         8         9        29         7     4      180.000000        3.735097         2    ;  uncertainty k = 0.215510
         8        29         7         9     4      180.000000        3.735097         2    ;  uncertainty k = 0.215510
         9         8        10        30     4      180.000000        4.013209         2    ;  uncertainty k = 0.092194
         9        10        30         8     4      180.000000        4.013209         2    ;  uncertainty k = 0.092194
         9        30         8        10     4      180.000000        4.013209         2    ;  uncertainty k = 0.092194
        10         9        11        31     4      180.000000        4.406028         2    ;  uncertainty k = 0.149731
        10        11        31         9     4      180.000000        4.406028         2    ;  uncertainty k = 0.149731
        10        31         9        11     4      180.000000        4.406028         2    ;  uncertainty k = 0.149731
        11        10        12        18     4      180.000000       15.391176         2    ;  uncertainty k = 0.055045
        11        12        18        10     4      180.000000       15.391176         2    ;  uncertainty k = 0.055045
        11        18        10        12     4      180.000000       15.391176         2    ;  uncertainty k = 0.055045
        12        11        13        17     4      180.000000       13.059776         2    ;  uncertainty k = 0.101692
        12        13        17        11     4      180.000000       13.059776         2    ;  uncertainty k = 0.101692
        12        17        11        13     4      180.000000       13.059776         2    ;  uncertainty k = 0.101692
        13        12        14        32     4      180.000000        6.136351         2    ;  uncertainty k = 0.133837
        13        14        32        12     4      180.000000        6.136351         2    ;  uncertainty k = 0.133837
        13        32        12        14     4      180.000000        6.136351         2    ;  uncertainty k = 0.133837
        14        13        15        33     4      180.000000        2.992276         2    ;  uncertainty k = 0.190983
        14        15        33        13     4      180.000000        2.992276         2    ;  uncertainty k = 0.190983
        14        33        13        15     4      180.000000        2.992276         2    ;  uncertainty k = 0.190983
        15        14        16        34     4      180.000000       13.295872         2    ;  uncertainty k = 0.022980
        15        16        34        14     4      180.000000       13.295872         2    ;  uncertainty k = 0.022980
        15        34        14        16     4      180.000000       13.295872         2    ;  uncertainty k = 0.022980
        17        12        16        35     4      180.000000       13.584179         2    ;  uncertainty k = 0.039235
        17        16        35        12     4      180.000000       13.584179         2    ;  uncertainty k = 0.039235
        17        35        12        16     4      180.000000       13.584179         2    ;  uncertainty k = 0.039235
        18         7        11        36     4      180.000000        4.218066         2    ;  uncertainty k = 0.242029
        18        11        36         7     4      180.000000        4.218066         2    ;  uncertainty k = 0.242029
        18        36         7        11     4      180.000000        4.218066         2    ;  uncertainty k = 0.242029
        22         2         6        23     4      180.000000       50.502767         2    ;  uncertainty k = 0.034923
        22         6        23         2     4      180.000000       50.502767         2    ;  uncertainty k = 0.034923
        22        23         2         6     4      180.000000       50.502767         2    ;  uncertainty k = 0.034923

[ pairs ]
;       ai        aj funct
         1         4     1
         1         5     1
         1         6     1
         1        23     1
         2         7     1
         2        19     1
         2        27     1
         2        28     1
         2        42     1
         3         7     1
         3        19     1
         3        23     1
         3        24     1
         3        25     1
         3        26     1
         4         6     1
         4        22     1
         4        28     1
         5         8     1
         5        18     1
         5        20     1
         5        21     1
         5        23     1
         5        27     1
         5        37     1
         5        42     1
         6         9     1
         6        11     1
         6        29     1
         6        36     1
         6        38     1
         6        39     1
         6        40     1
         6        41     1
         7        10     1
         7        12     1
         7        20     1
         7        21     1
         7        23     1
         7        28     1
         7        30     1
         7        37     1
         8        11     1
         8        19     1
         8        22     1
         8        31     1
         8        36     1
         9        12     1
         9        18     1
        10        13     1
        10        17     1
        10        29     1
        10        36     1
        11        14     1
        11        16     1
        11        30     1
        11        32     1
        11        35     1
        12        15     1
        12        31     1
        12        33     1
        12        36     1
        13        16     1
        13        18     1
        13        34     1
        13        35     1
        14        17     1
        15        32     1
        15        35     1
        16        33     1
        17        18     1
        17        32     1
        17        34     1
        18        19     1
        18        22     1
        18        29     1
        18        31     1
        19        23     1
        19        28     1
        20        22     1
        21        22     1
        22        24     1
        22        25     1
        22        26     1
        22        28     1
        22        37     1
        29        30     1
        30        31     1
        32        33     1
        33        34     1
        37        38     1
        37        39     1
        37        40     1
        37        41     1
        38        40     1
        38        41     1
        39        40     1
        39        41     1
