; ITP file created by ByteFF-joint-25, 2026-02-18 03:16:05.356270

[ atomtypes ]
;name           bonded.type        at.num        mass        charge   ptype           sigma         epsilon
 c0bf                                   6      0.0000       0.00000       A     3.39732e-01     4.51256e-01    ;  uncertainty sigma = 0.000013, epsilon = 0.001265
 n1bf                                   7      0.0000       0.00000       A     3.18098e-01     6.83124e-01    ;  uncertainty sigma = 0.000073, epsilon = 0.006424
 c2bf                                   6      0.0000       0.00000       A     3.31512e-01     4.12381e-01    ;  uncertainty sigma = 0.000058, epsilon = 0.001500
 n3bf                                   7      0.0000       0.00000       A     3.36544e-01     4.71564e-01    ;  uncertainty sigma = 0.000086, epsilon = 0.005524
 n4bf                                   7      0.0000       0.00000       A     3.27488e-01     6.57271e-01    ;  uncertainty sigma = 0.000130, epsilon = 0.010556
 c5bf                                   6      0.0000       0.00000       A     3.39797e-01     4.51347e-01    ;  uncertainty sigma = 0.000040, epsilon = 0.003032
 c6bf                                   6      0.0000       0.00000       A     3.31581e-01     4.13815e-01    ;  uncertainty sigma = 0.000032, epsilon = 0.001364
 c7bf                                   6      0.0000       0.00000       A     3.31512e-01     4.13187e-01    ;  uncertainty sigma = 0.000002, epsilon = 0.000604
 c8bf                                   6      0.0000       0.00000       A     3.31520e-01     4.13286e-01    ;  uncertainty sigma = 0.000002, epsilon = 0.000576
 c9bf                                   6      0.0000       0.00000       A     3.31518e-01     4.13337e-01    ;  uncertainty sigma = 0.000003, epsilon = 0.000580
 c10bf                                  6      0.0000       0.00000       A     3.31520e-01     4.13286e-01    ;  uncertainty sigma = 0.000002, epsilon = 0.000576
 c11bf                                  6      0.0000       0.00000       A     3.31512e-01     4.13187e-01    ;  uncertainty sigma = 0.000002, epsilon = 0.000604
 c12bf                                  6      0.0000       0.00000       A     3.31582e-01     4.13992e-01    ;  uncertainty sigma = 0.000025, epsilon = 0.001348
 c13bf                                  6      0.0000       0.00000       A     3.31510e-01     4.13156e-01    ;  uncertainty sigma = 0.000002, epsilon = 0.000626
 c14bf                                  6      0.0000       0.00000       A     3.31522e-01     4.13312e-01    ;  uncertainty sigma = 0.000003, epsilon = 0.000635
 c15bf                                  6      0.0000       0.00000       A     3.31511e-01     4.13225e-01    ;  uncertainty sigma = 0.000005, epsilon = 0.000664
 c16bf                                  6      0.0000       0.00000       A     3.31513e-01     4.13621e-01    ;  uncertainty sigma = 0.000009, epsilon = 0.000802
 c17bf                                  6      0.0000       0.00000       A     3.31497e-01     4.13005e-01    ;  uncertainty sigma = 0.000009, epsilon = 0.000776
 c18bf                                  6      0.0000       0.00000       A     3.31517e-01     4.13251e-01    ;  uncertainty sigma = 0.000003, epsilon = 0.000593
 c19bf                                  6      0.0000       0.00000       A     3.31520e-01     4.13305e-01    ;  uncertainty sigma = 0.000007, epsilon = 0.000588
 c20bf                                  6      0.0000       0.00000       A     3.31524e-01     4.13110e-01    ;  uncertainty sigma = 0.000005, epsilon = 0.000496
 n21bf                                  7      0.0000       0.00000       A     3.38406e-01     3.93558e-01    ;  uncertainty sigma = 0.000008, epsilon = 0.000926
 c22bf                                  6      0.0000       0.00000       A     3.31517e-01     4.13350e-01    ;  uncertainty sigma = 0.000005, epsilon = 0.000641
 c23bf                                  6      0.0000       0.00000       A     3.31517e-01     4.13175e-01    ;  uncertainty sigma = 0.000020, epsilon = 0.001060
 c24bf                                  6      0.0000       0.00000       A     3.31544e-01     4.14220e-01    ;  uncertainty sigma = 0.000018, epsilon = 0.000894
 o25bf                                  8      0.0000       0.00000       A     3.04823e-01     6.12187e-01    ;  uncertainty sigma = 0.000062, epsilon = 0.001949
 h26bf                                  1      0.0000       0.00000       A     2.42208e-01     8.66970e-02    ;  uncertainty sigma = 0.000028, epsilon = 0.000664
 h27bf                                  1      0.0000       0.00000       A     2.42208e-01     8.66970e-02    ;  uncertainty sigma = 0.000028, epsilon = 0.000664
 h28bf                                  1      0.0000       0.00000       A     2.42208e-01     8.66970e-02    ;  uncertainty sigma = 0.000028, epsilon = 0.000664
 h29bf                                  1      0.0000       0.00000       A     1.10696e-01     4.12787e-02    ;  uncertainty sigma = 0.000128, epsilon = 0.001559
 h30bf                                  1      0.0000       0.00000       A     1.10548e-01     4.04868e-02    ;  uncertainty sigma = 0.000082, epsilon = 0.001718
 h31bf                                  1      0.0000       0.00000       A     2.62558e-01     6.70852e-02    ;  uncertainty sigma = 0.000008, epsilon = 0.000421
 h32bf                                  1      0.0000       0.00000       A     2.62558e-01     6.70264e-02    ;  uncertainty sigma = 0.000011, epsilon = 0.000445
 h33bf                                  1      0.0000       0.00000       A     2.62552e-01     6.70645e-02    ;  uncertainty sigma = 0.000011, epsilon = 0.000453
 h34bf                                  1      0.0000       0.00000       A     2.62558e-01     6.70264e-02    ;  uncertainty sigma = 0.000011, epsilon = 0.000445
 h35bf                                  1      0.0000       0.00000       A     2.62558e-01     6.70852e-02    ;  uncertainty sigma = 0.000008, epsilon = 0.000420
 h36bf                                  1      0.0000       0.00000       A     2.62558e-01     6.70852e-02    ;  uncertainty sigma = 0.000008, epsilon = 0.000420
 h37bf                                  1      0.0000       0.00000       A     2.62564e-01     6.70137e-02    ;  uncertainty sigma = 0.000010, epsilon = 0.000418
 h38bf                                  1      0.0000       0.00000       A     2.62562e-01     6.70409e-02    ;  uncertainty sigma = 0.000012, epsilon = 0.000507
 h39bf                                  1      0.0000       0.00000       A     2.62564e-01     6.70712e-02    ;  uncertainty sigma = 0.000018, epsilon = 0.000644
 h40bf                                  1      0.0000       0.00000       A     2.62565e-01     6.71316e-02    ;  uncertainty sigma = 0.000013, epsilon = 0.000533
 h41bf                                  1      0.0000       0.00000       A     2.53636e-01     6.70819e-02    ;  uncertainty sigma = 0.000013, epsilon = 0.000406
 h42bf                                  1      0.0000       0.00000       A     2.53644e-01     6.67556e-02    ;  uncertainty sigma = 0.000027, epsilon = 0.000598
 h43bf                                  1      0.0000       0.00000       A     2.62550e-01     6.72376e-02    ;  uncertainty sigma = 0.000014, epsilon = 0.000655
 h44bf                                  1      0.0000       0.00000       A     1.10696e-01     4.12787e-02    ;  uncertainty sigma = 0.000128, epsilon = 0.001559

[ moleculetype ]
;name             nrexcl
 MOL                   3

[ atoms ]
;       nr            type      resi   res      atom      cgnr      charge          mass ; qtot
         1            c0bf         1   UNL        c0         1     0.07531       12.0110 ; qtot    0.075
         2            n1bf         1   UNL        n1         2    -0.41674       14.0070 ; qtot   -0.341
         3            c2bf         1   UNL        c2         3     0.46212       12.0110 ; qtot    0.121
         4            n3bf         1   UNL        n3         4    -0.47751       14.0070 ; qtot   -0.357
         5            n4bf         1   UNL        n4         5    -0.38173       14.0070 ; qtot   -0.739
         6            c5bf         1   UNL        c5         6     0.09098       12.0110 ; qtot   -0.648
         7            c6bf         1   UNL        c6         7    -0.15384       12.0110 ; qtot   -0.801
         8            c7bf         1   UNL        c7         8    -0.09654       12.0110 ; qtot   -0.898
         9            c8bf         1   UNL        c8         9    -0.11798       12.0110 ; qtot   -1.016
        10            c9bf         1   UNL        c9        10    -0.09151       12.0110 ; qtot   -1.107
        11           c10bf         1   UNL       c10        11    -0.11798       12.0110 ; qtot   -1.225
        12           c11bf         1   UNL       c11        12    -0.09654       12.0110 ; qtot   -1.322
        13           c12bf         1   UNL       c12        13    -0.14040       12.0110 ; qtot   -1.462
        14           c13bf         1   UNL       c13        14    -0.09262       12.0110 ; qtot   -1.555
        15           c14bf         1   UNL       c14        15    -0.10824       12.0110 ; qtot   -1.663
        16           c15bf         1   UNL       c15        16    -0.09184       12.0110 ; qtot   -1.755
        17           c16bf         1   UNL       c16        17    -0.01044       12.0110 ; qtot   -1.765
        18           c17bf         1   UNL       c17        18    -0.16213       12.0110 ; qtot   -1.928
        19           c18bf         1   UNL       c18        19    -0.08480       12.0110 ; qtot   -2.012
        20           c19bf         1   UNL       c19        20    -0.24745       12.0110 ; qtot   -2.260
        21           c20bf         1   UNL       c20        21     0.39854       12.0110 ; qtot   -1.861
        22           n21bf         1   UNL       n21        22    -0.66161       14.0070 ; qtot   -2.523
        23           c22bf         1   UNL       c22        23     0.40601       12.0110 ; qtot   -2.117
        24           c23bf         1   UNL       c23        24    -0.07784       12.0110 ; qtot   -2.195
        25           c24bf         1   UNL       c24        25     0.70308       12.0110 ; qtot   -1.492
        26           o25bf         1   UNL       o25        26    -0.44106       15.9990 ; qtot   -1.933
        27           h26bf         1   UNL       h26        27     0.09057        1.0080 ; qtot   -1.842
        28           h27bf         1   UNL       h27        28     0.09057        1.0080 ; qtot   -1.752
        29           h28bf         1   UNL       h28        29     0.09057        1.0080 ; qtot   -1.661
        30           h29bf         1   UNL       h29        30     0.33582        1.0080 ; qtot   -1.325
        31           h30bf         1   UNL       h30        31     0.35440        1.0080 ; qtot   -0.971
        32           h31bf         1   UNL       h31        32     0.14519        1.0080 ; qtot   -0.826
        33           h32bf         1   UNL       h32        33     0.14717        1.0080 ; qtot   -0.678
        34           h33bf         1   UNL       h33        34     0.13386        1.0080 ; qtot   -0.545
        35           h34bf         1   UNL       h34        35     0.14717        1.0080 ; qtot   -0.397
        36           h35bf         1   UNL       h35        36     0.14519        1.0080 ; qtot   -0.252
        37           h36bf         1   UNL       h36        37     0.14740        1.0080 ; qtot   -0.105
        38           h37bf         1   UNL       h37        38     0.14845        1.0080 ; qtot    0.044
        39           h38bf         1   UNL       h38        39     0.13705        1.0080 ; qtot    0.181
        40           h39bf         1   UNL       h39        40     0.14161        1.0080 ; qtot    0.322
        41           h40bf         1   UNL       h40        41     0.14521        1.0080 ; qtot    0.467
        42           h41bf         1   UNL       h41        42     0.02336        1.0080 ; qtot    0.491
        43           h42bf         1   UNL       h42        43     0.02360        1.0080 ; qtot    0.514
        44           h43bf         1   UNL       h43        44     0.14978        1.0080 ; qtot    0.664
        45           h44bf         1   UNL       h44        45     0.33579        1.0080 ; qtot    1.000

[ bonds ]
;       ai        aj funct               r               k
         1         2     1        0.146681   260602.881348    ;  uncertainty r = 0.000143, k = 13.029281
         1        27     1        0.109174   309405.420996    ;  uncertainty r = 0.000045, k = 3.044469
         1        28     1        0.109174   309405.420996    ;  uncertainty r = 0.000045, k = 3.044469
         1        29     1        0.109174   309405.420996    ;  uncertainty r = 0.000045, k = 3.044469
         2         3     1        0.135483   280628.393018    ;  uncertainty r = 0.000172, k = 43.937728
         2        25     1        0.142617   296977.429199    ;  uncertainty r = 0.000342, k = 74.592793
         3         4     1        0.132957   308233.676270    ;  uncertainty r = 0.000232, k = 39.227304
         3         5     1        0.133641   523376.876660    ;  uncertainty r = 0.000100, k = 44.741034
         4        30     1        0.101396   420869.489551    ;  uncertainty r = 0.000073, k = 12.258235
         4        45     1        0.101396   420869.489551    ;  uncertainty r = 0.000073, k = 12.258266
         5         6     1        0.150101   230544.707666    ;  uncertainty r = 0.000269, k = 76.803605
         5        31     1        0.101501   429624.734277    ;  uncertainty r = 0.000023, k = 4.106225
         6         7     1        0.150975   204394.043701    ;  uncertainty r = 0.000149, k = 20.066170
         6        13     1        0.150929   204061.282397    ;  uncertainty r = 0.000155, k = 19.693896
         6        25     1        0.153936   175864.087256    ;  uncertainty r = 0.000150, k = 17.945406
         7         8     1        0.139869   349456.955078    ;  uncertainty r = 0.000058, k = 6.929880
         7        12     1        0.139869   349456.955078    ;  uncertainty r = 0.000058, k = 6.929880
         8         9     1        0.139524   365940.393066    ;  uncertainty r = 0.000032, k = 1.462855
         8        32     1        0.108797   332693.323926    ;  uncertainty r = 0.000026, k = 2.526496
         9        10     1        0.139549   373468.937207    ;  uncertainty r = 0.000012, k = 2.413507
         9        33     1        0.108791   333723.950586    ;  uncertainty r = 0.000024, k = 1.087677
        10        11     1        0.139549   373468.937207    ;  uncertainty r = 0.000012, k = 2.413507
        10        34     1        0.108841   334503.981592    ;  uncertainty r = 0.000012, k = 0.652803
        11        12     1        0.139524   365940.393066    ;  uncertainty r = 0.000032, k = 1.462855
        11        35     1        0.108791   333723.976123    ;  uncertainty r = 0.000024, k = 1.087668
        12        36     1        0.108797   332693.323926    ;  uncertainty r = 0.000026, k = 2.526499
        13        14     1        0.139695   350457.524561    ;  uncertainty r = 0.000039, k = 5.364877
        13        24     1        0.139497   344371.597266    ;  uncertainty r = 0.000081, k = 6.070280
        14        15     1        0.139488   369019.351270    ;  uncertainty r = 0.000030, k = 1.373547
        14        37     1        0.108776   332840.519824    ;  uncertainty r = 0.000030, k = 2.465001
        15        16     1        0.139311   371145.392236    ;  uncertainty r = 0.000030, k = 2.334976
        15        38     1        0.108768   333105.390723    ;  uncertainty r = 0.000026, k = 1.115190
        16        17     1        0.140143   348876.292285    ;  uncertainty r = 0.000021, k = 1.994077
        16        39     1        0.108829   334964.696582    ;  uncertainty r = 0.000027, k = 0.785451
        17        18     1        0.147740   271971.057568    ;  uncertainty r = 0.000051, k = 3.093322
        17        24     1        0.139859   339941.164160    ;  uncertainty r = 0.000052, k = 2.423022
        18        19     1        0.139992   359311.265918    ;  uncertainty r = 0.000038, k = 3.474469
        18        23     1        0.140432   329830.639502    ;  uncertainty r = 0.000059, k = 5.944632
        19        20     1        0.139133   380686.311670    ;  uncertainty r = 0.000026, k = 1.714682
        19        40     1        0.108799   333137.184424    ;  uncertainty r = 0.000014, k = 1.330450
        20        21     1        0.139716   360881.185254    ;  uncertainty r = 0.000009, k = 2.079168
        20        41     1        0.108880   338001.773926    ;  uncertainty r = 0.000014, k = 1.254518
        21        22     1        0.133863   392320.227051    ;  uncertainty r = 0.000040, k = 4.166929
        21        42     1        0.109042   338059.794238    ;  uncertainty r = 0.000021, k = 2.477359
        22        23     1        0.133568   386155.543311    ;  uncertainty r = 0.000042, k = 4.717133
        23        43     1        0.109049   335122.337158    ;  uncertainty r = 0.000023, k = 2.465553
        24        44     1        0.108818   333436.453809    ;  uncertainty r = 0.000023, k = 2.258544
        25        26     1        0.119980   628990.138086    ;  uncertainty r = 0.000232, k = 12.942175

[ angles ]
;       ai        aj        ak funct           theta             cth
         1         2         3     1      118.639038      373.068630    ;  uncertainty theta = 0.007053, k = 0.430287
         1         2        25     1      119.076622      400.263928    ;  uncertainty theta = 0.008080, k = 0.316068
         2         1        27     1      107.362183      470.622814    ;  uncertainty theta = 0.002476, k = 0.220753
         2         1        28     1      107.362183      470.622814    ;  uncertainty theta = 0.002476, k = 0.220753
         2         1        29     1      107.362183      470.622814    ;  uncertainty theta = 0.002476, k = 0.220753
         2         3         4     1      125.899826      536.269337    ;  uncertainty theta = 0.010551, k = 0.299625
         2         3         5     1      113.193924      702.703362    ;  uncertainty theta = 0.009502, k = 0.274174
         2        25         6     1      109.961769      476.265047    ;  uncertainty theta = 0.006613, k = 0.652506
         2        25        26     1      125.508827      649.701794    ;  uncertainty theta = 0.010573, k = 0.151492
         3         2        25     1      110.408546      711.107880    ;  uncertainty theta = 0.009881, k = 0.266784
         3         4        30     1      114.821800      368.001174    ;  uncertainty theta = 0.004224, k = 0.186891
         3         4        45     1      114.821800      368.001142    ;  uncertainty theta = 0.004224, k = 0.186891
         3         5         6     1      111.750687      594.280584    ;  uncertainty theta = 0.019275, k = 0.459975
         3         5        31     1      119.382553      353.668439    ;  uncertainty theta = 0.010145, k = 0.152610
         4         3         5     1      128.556000      642.790750    ;  uncertainty theta = 0.009936, k = 0.330368
         5         6         7     1      110.460434      632.624809    ;  uncertainty theta = 0.005178, k = 0.185747
         5         6        13     1      110.363304      633.704774    ;  uncertainty theta = 0.005332, k = 0.196341
         5         6        25     1      102.870018      925.017242    ;  uncertainty theta = 0.007229, k = 0.531227
         6         5        31     1      117.291641      301.371185    ;  uncertainty theta = 0.006714, k = 0.480634
         6         7         8     1      117.074219      374.316405    ;  uncertainty theta = 0.007313, k = 0.169097
         6         7        12     1      117.074219      374.316405    ;  uncertainty theta = 0.007313, k = 0.169097
         6        13        14     1      117.188919      371.073703    ;  uncertainty theta = 0.007117, k = 0.190096
         6        13        24     1      116.619370      372.971302    ;  uncertainty theta = 0.006690, k = 0.108045
         6        25        26     1      125.519859      411.082661    ;  uncertainty theta = 0.008567, k = 0.131742
         7         6        13     1      113.186264      513.960725    ;  uncertainty theta = 0.011306, k = 0.359026
         7         6        25     1      109.141335      488.728114    ;  uncertainty theta = 0.009732, k = 0.152365
         7         8         9     1      121.038895      513.256252    ;  uncertainty theta = 0.003562, k = 0.078827
         7         8        32     1      118.396080      273.185271    ;  uncertainty theta = 0.004089, k = 0.068593
         7        12        11     1      121.038895      513.256252    ;  uncertainty theta = 0.003562, k = 0.078827
         7        12        36     1      118.396095      273.185271    ;  uncertainty theta = 0.004089, k = 0.068593
         8         7        12     1      123.006119      449.964984    ;  uncertainty theta = 0.007050, k = 0.147704
         8         9        10     1      119.486618      517.107663    ;  uncertainty theta = 0.001936, k = 0.033500
         8         9        33     1      119.692894      282.691587    ;  uncertainty theta = 0.002820, k = 0.049810
         9         8        32     1      120.085548      298.145592    ;  uncertainty theta = 0.002287, k = 0.040415
         9        10        11     1      118.018600      533.452020    ;  uncertainty theta = 0.001323, k = 0.059913
         9        10        34     1      120.465477      288.877473    ;  uncertainty theta = 0.001797, k = 0.017289
        10         9        33     1      120.779457      288.986293    ;  uncertainty theta = 0.001247, k = 0.025032
        10        11        12     1      119.486618      517.107663    ;  uncertainty theta = 0.001936, k = 0.033500
        10        11        35     1      120.779457      288.986261    ;  uncertainty theta = 0.001247, k = 0.025032
        11        10        34     1      120.465477      288.877473    ;  uncertainty theta = 0.001797, k = 0.017290
        11        12        36     1      120.085548      298.145624    ;  uncertainty theta = 0.002287, k = 0.040414
        12        11        35     1      119.692894      282.691555    ;  uncertainty theta = 0.002820, k = 0.049810
        13         6        25     1      109.087914      489.507411    ;  uncertainty theta = 0.008967, k = 0.155642
        13        14        15     1      120.116592      513.097922    ;  uncertainty theta = 0.003985, k = 0.048111
        13        14        37     1      118.579468      273.249943    ;  uncertainty theta = 0.004177, k = 0.069830
        13        24        17     1      122.137802      513.145740    ;  uncertainty theta = 0.002996, k = 0.175423
        13        24        44     1      118.195724      273.394451    ;  uncertainty theta = 0.004352, k = 0.063241
        14        13        24     1      123.388962      432.705218    ;  uncertainty theta = 0.006504, k = 0.171299
        14        15        16     1      120.250511      509.831790    ;  uncertainty theta = 0.002521, k = 0.079953
        14        15        38     1      119.788002      281.762579    ;  uncertainty theta = 0.002427, k = 0.048474
        15        14        37     1      120.331825      300.364767    ;  uncertainty theta = 0.002789, k = 0.028913
        15        16        17     1      119.773193      533.764466    ;  uncertainty theta = 0.002266, k = 0.081699
        15        16        39     1      120.214828      294.511981    ;  uncertainty theta = 0.001191, k = 0.019912
        16        15        38     1      120.360497      284.382878    ;  uncertainty theta = 0.000886, k = 0.051851
        16        17        18     1      121.243675      413.352367    ;  uncertainty theta = 0.002524, k = 0.144597
        16        17        24     1      120.070724      403.928439    ;  uncertainty theta = 0.003992, k = 0.232489
        17        16        39     1      118.859787      279.272902    ;  uncertainty theta = 0.000993, k = 0.094759
        17        18        19     1      121.986000      404.776399    ;  uncertainty theta = 0.004025, k = 0.067465
        17        18        23     1      120.850708      397.250102    ;  uncertainty theta = 0.003719, k = 0.072687
        17        24        44     1      118.774986      283.635375    ;  uncertainty theta = 0.001992, k = 0.080930
        18        17        24     1      120.168312      419.554660    ;  uncertainty theta = 0.002687, k = 0.134355
        18        19        20     1      119.116211      533.784641    ;  uncertainty theta = 0.002113, k = 0.049785
        18        19        40     1      119.595520      276.353851    ;  uncertainty theta = 0.001595, k = 0.054533
        18        23        22     1      124.844284      707.579162    ;  uncertainty theta = 0.001759, k = 0.114937
        18        23        43     1      119.055542      264.958395    ;  uncertainty theta = 0.002736, k = 0.068866
        19        18        23     1      117.954163      400.608328    ;  uncertainty theta = 0.003419, k = 0.212032
        19        20        21     1      117.106735      476.163824    ;  uncertainty theta = 0.001555, k = 0.042956
        19        20        41     1      121.657913      282.363627    ;  uncertainty theta = 0.000992, k = 0.055074
        20        19        40     1      120.811729      287.817811    ;  uncertainty theta = 0.001195, k = 0.056203
        20        21        22     1      122.531776      699.502030    ;  uncertainty theta = 0.001608, k = 0.061832
        20        21        42     1      120.739769      279.139758    ;  uncertainty theta = 0.001316, k = 0.021431
        21        20        41     1      121.649521      288.005923    ;  uncertainty theta = 0.000993, k = 0.094236
        21        22        23     1      116.548264      406.951746    ;  uncertainty theta = 0.002827, k = 0.106550
        22        21        42     1      116.264793      336.295448    ;  uncertainty theta = 0.001599, k = 0.036957
        22        23        43     1      116.234695      342.414778    ;  uncertainty theta = 0.001370, k = 0.079591
        27         1        28     1      107.627052      325.730906    ;  uncertainty theta = 0.003369, k = 0.100967
        27         1        29     1      107.627052      325.730906    ;  uncertainty theta = 0.003369, k = 0.100967
        28         1        29     1      107.627052      325.730906    ;  uncertainty theta = 0.003369, k = 0.100967
        30         4        45     1      112.418320      264.652971    ;  uncertainty theta = 0.015777, k = 0.354183

[ dihedrals ] ; propers for gromacs 4.5 or higher, use funct 9
;       ai        aj        ak        al funct           phase               k        pn
         1         2         3         4     9        0.000000        0.020220         1    ;  uncertainty k = 0.657937
         1         2         3         4     9      180.000000        6.877463         2    ;  uncertainty k = 0.678113
         1         2         3         4     9        0.000000        0.933687         3    ;  uncertainty k = 0.728898
         1         2         3         4     9      180.000000        0.009158         4    ;  uncertainty k = 0.300485
         1         2         3         5     9        0.000000       -0.356115         1    ;  uncertainty k = 2.518191
         1         2         3         5     9      180.000000        8.283854         2    ;  uncertainty k = 0.415941
         1         2         3         5     9        0.000000        0.272445         3    ;  uncertainty k = 0.120757
         1         2         3         5     9      180.000000       -0.125980         4    ;  uncertainty k = 0.245883
         1         2        25         6     9        0.000000        5.315178         1    ;  uncertainty k = 1.998701
         1         2        25         6     9      180.000000        4.608340         2    ;  uncertainty k = 1.496939
         1         2        25         6     9        0.000000        1.271077         3    ;  uncertainty k = 0.828356
         1         2        25         6     9      180.000000        0.033156         4    ;  uncertainty k = 0.568101
         1         2        25        26     9        0.000000       -0.515841         1    ;  uncertainty k = 3.156148
         1         2        25        26     9      180.000000        8.416191         2    ;  uncertainty k = 0.470256
         1         2        25        26     9        0.000000        0.571768         3    ;  uncertainty k = 0.526356
         1         2        25        26     9      180.000000        0.206425         4    ;  uncertainty k = 0.242867
         2         3         4        30     9        0.000000        7.495475         1    ;  uncertainty k = 2.018544
         2         3         4        30     9      180.000000        9.518865         2    ;  uncertainty k = 0.609488
         2         3         4        30     9        0.000000        1.009625         3    ;  uncertainty k = 0.533193
         2         3         4        30     9      180.000000       -0.962191         4    ;  uncertainty k = 0.242201
         2         3         4        45     9        0.000000        7.495473         1    ;  uncertainty k = 2.018546
         2         3         4        45     9      180.000000        9.518867         2    ;  uncertainty k = 0.609488
         2         3         4        45     9        0.000000        1.009626         3    ;  uncertainty k = 0.533193
         2         3         4        45     9      180.000000       -0.962190         4    ;  uncertainty k = 0.242200
         2         3         5         6     9        0.000000        1.216637         1    ;  uncertainty k = 1.851010
         2         3         5         6     9      180.000000       14.836933         2    ;  uncertainty k = 0.431548
         2         3         5         6     9        0.000000       -0.181362         3    ;  uncertainty k = 0.984649
         2         3         5         6     9      180.000000       -0.541452         4    ;  uncertainty k = 0.214128
         2         3         5        31     9        0.000000        4.192861         1    ;  uncertainty k = 3.453401
         2         3         5        31     9      180.000000       10.610634         2    ;  uncertainty k = 0.634114
         2         3         5        31     9        0.000000        0.940964         3    ;  uncertainty k = 0.791708
         2         3         5        31     9      180.000000       -0.427268         4    ;  uncertainty k = 0.191048
         2        25         6         5     9        0.000000        0.026898         1    ;  uncertainty k = 2.722767
         2        25         6         5     9      180.000000        6.600280         2    ;  uncertainty k = 0.954493
         2        25         6         5     9        0.000000        0.270507         3    ;  uncertainty k = 0.664803
         2        25         6         5     9      180.000000        0.250183         4    ;  uncertainty k = 0.591147
         2        25         6         7     9        0.000000       -2.102597         1    ;  uncertainty k = 3.102238
         2        25         6         7     9      180.000000        1.474984         2    ;  uncertainty k = 1.103387
         2        25         6         7     9        0.000000        1.021732         3    ;  uncertainty k = 0.532805
         2        25         6         7     9      180.000000        0.737330         4    ;  uncertainty k = 0.291002
         2        25         6        13     9        0.000000       -2.037879         1    ;  uncertainty k = 3.177866
         2        25         6        13     9      180.000000        1.481072         2    ;  uncertainty k = 1.062157
         2        25         6        13     9        0.000000        1.051229         3    ;  uncertainty k = 0.548384
         2        25         6        13     9      180.000000        0.739318         4    ;  uncertainty k = 0.281152
         3         2         1        27     9        0.000000       -0.396418         1    ;  uncertainty k = 0.524313
         3         2         1        27     9      180.000000       -1.104407         2    ;  uncertainty k = 0.426496
         3         2         1        27     9        0.000000        0.442754         3    ;  uncertainty k = 0.213660
         3         2         1        27     9      180.000000        0.194733         4    ;  uncertainty k = 0.049391
         3         2         1        28     9        0.000000       -0.396418         1    ;  uncertainty k = 0.524313
         3         2         1        28     9      180.000000       -1.104407         2    ;  uncertainty k = 0.426496
         3         2         1        28     9        0.000000        0.442754         3    ;  uncertainty k = 0.213660
         3         2         1        28     9      180.000000        0.194733         4    ;  uncertainty k = 0.049391
         3         2         1        29     9        0.000000       -0.396418         1    ;  uncertainty k = 0.524313
         3         2         1        29     9      180.000000       -1.104407         2    ;  uncertainty k = 0.426496
         3         2         1        29     9        0.000000        0.442754         3    ;  uncertainty k = 0.213660
         3         2         1        29     9      180.000000        0.194733         4    ;  uncertainty k = 0.049391
         3         2        25         6     9        0.000000        3.107150         1    ;  uncertainty k = 1.849250
         3         2        25         6     9      180.000000        3.066216         2    ;  uncertainty k = 0.882201
         3         2        25         6     9        0.000000       -0.285893         3    ;  uncertainty k = 0.712736
         3         2        25         6     9      180.000000        0.753329         4    ;  uncertainty k = 0.259714
         3         2        25        26     9        0.000000        0.406781         1    ;  uncertainty k = 2.598331
         3         2        25        26     9      180.000000        7.636295         2    ;  uncertainty k = 0.797349
         3         2        25        26     9        0.000000        0.506697         3    ;  uncertainty k = 0.484035
         3         2        25        26     9      180.000000        0.070886         4    ;  uncertainty k = 0.264122
         3         5         6         7     9        0.000000        0.091811         1    ;  uncertainty k = 0.741142
         3         5         6         7     9      180.000000        1.014766         2    ;  uncertainty k = 0.553248
         3         5         6         7     9        0.000000        0.643088         3    ;  uncertainty k = 0.282748
         3         5         6         7     9      180.000000        0.484815         4    ;  uncertainty k = 0.293264
         3         5         6        13     9        0.000000        0.066200         1    ;  uncertainty k = 0.766273
         3         5         6        13     9      180.000000        1.001081         2    ;  uncertainty k = 0.551928
         3         5         6        13     9        0.000000        0.663411         3    ;  uncertainty k = 0.261481
         3         5         6        13     9      180.000000        0.495633         4    ;  uncertainty k = 0.301240
         3         5         6        25     9        0.000000        2.020599         1    ;  uncertainty k = 0.690692
         3         5         6        25     9      180.000000        2.318166         2    ;  uncertainty k = 1.059665
         3         5         6        25     9        0.000000        0.199857         3    ;  uncertainty k = 0.699828
         3         5         6        25     9      180.000000        0.438068         4    ;  uncertainty k = 0.468952
         4         3         2        25     9        0.000000       -0.586686         1    ;  uncertainty k = 0.774775
         4         3         2        25     9      180.000000        6.636751         2    ;  uncertainty k = 1.298463
         4         3         2        25     9        0.000000        0.201670         3    ;  uncertainty k = 0.743074
         4         3         2        25     9      180.000000       -0.088174         4    ;  uncertainty k = 0.478529
         4         3         5         6     9        0.000000        2.188014         1    ;  uncertainty k = 1.893592
         4         3         5         6     9      180.000000       10.144535         2    ;  uncertainty k = 0.979797
         4         3         5         6     9        0.000000        0.434811         3    ;  uncertainty k = 0.470363
         4         3         5         6     9      180.000000       -0.420942         4    ;  uncertainty k = 0.555914
         4         3         5        31     9        0.000000        2.256416         1    ;  uncertainty k = 2.728265
         4         3         5        31     9      180.000000        7.437433         2    ;  uncertainty k = 1.129202
         4         3         5        31     9        0.000000        0.944499         3    ;  uncertainty k = 0.181481
         4         3         5        31     9      180.000000       -0.270289         4    ;  uncertainty k = 0.314795
         5         3         2        25     9        0.000000       -0.153039         1    ;  uncertainty k = 1.721869
         5         3         2        25     9      180.000000        8.631896         2    ;  uncertainty k = 0.890565
         5         3         2        25     9        0.000000       -1.128578         3    ;  uncertainty k = 1.132200
         5         3         2        25     9      180.000000        0.000351         4    ;  uncertainty k = 0.465973
         5         3         4        30     9        0.000000        5.761295         1    ;  uncertainty k = 1.326850
         5         3         4        30     9      180.000000       10.436708         2    ;  uncertainty k = 0.346046
         5         3         4        30     9        0.000000        1.485194         3    ;  uncertainty k = 0.455012
         5         3         4        30     9      180.000000       -0.773238         4    ;  uncertainty k = 0.306951
         5         3         4        45     9        0.000000        5.761296         1    ;  uncertainty k = 1.326851
         5         3         4        45     9      180.000000       10.436706         2    ;  uncertainty k = 0.346045
         5         3         4        45     9        0.000000        1.485193         3    ;  uncertainty k = 0.455012
         5         3         4        45     9      180.000000       -0.773239         4    ;  uncertainty k = 0.306951
         5         6         7         8     9        0.000000       -1.006359         1    ;  uncertainty k = 1.282049
         5         6         7         8     9      180.000000        2.605369         2    ;  uncertainty k = 0.522487
         5         6         7         8     9        0.000000        0.536044         3    ;  uncertainty k = 0.227425
         5         6         7         8     9      180.000000        0.333205         4    ;  uncertainty k = 0.173230
         5         6         7        12     9        0.000000       -1.006359         1    ;  uncertainty k = 1.282049
         5         6         7        12     9      180.000000        2.605369         2    ;  uncertainty k = 0.522487
         5         6         7        12     9        0.000000        0.536044         3    ;  uncertainty k = 0.227425
         5         6         7        12     9      180.000000        0.333205         4    ;  uncertainty k = 0.173230
         5         6        13        14     9        0.000000       -1.025905         1    ;  uncertainty k = 1.201610
         5         6        13        14     9      180.000000        2.621036         2    ;  uncertainty k = 0.558884
         5         6        13        14     9        0.000000        0.532331         3    ;  uncertainty k = 0.211924
         5         6        13        14     9      180.000000        0.331473         4    ;  uncertainty k = 0.181779
         5         6        13        24     9        0.000000       -0.774692         1    ;  uncertainty k = 1.174237
         5         6        13        24     9      180.000000        2.611797         2    ;  uncertainty k = 0.647347
         5         6        13        24     9        0.000000        0.477866         3    ;  uncertainty k = 0.184714
         5         6        13        24     9      180.000000        0.333715         4    ;  uncertainty k = 0.185819
         5         6        25        26     9        0.000000       -1.351475         1    ;  uncertainty k = 2.878365
         5         6        25        26     9      180.000000        2.586288         2    ;  uncertainty k = 1.299806
         5         6        25        26     9        0.000000        0.299897         3    ;  uncertainty k = 0.631686
         5         6        25        26     9      180.000000        0.356820         4    ;  uncertainty k = 0.111975
         6         7         8         9     9        0.000000        0.032929         1    ;  uncertainty k = 0.381328
         6         7         8         9     9      180.000000        8.668432         2    ;  uncertainty k = 0.351930
         6         7         8         9     9        0.000000        1.456047         3    ;  uncertainty k = 0.364144
         6         7         8         9     9      180.000000        1.853281         4    ;  uncertainty k = 0.176603
         6         7         8        32     9        0.000000       -0.276887         1    ;  uncertainty k = 0.183727
         6         7         8        32     9      180.000000        6.938092         2    ;  uncertainty k = 0.459858
         6         7         8        32     9        0.000000        0.623177         3    ;  uncertainty k = 0.398127
         6         7         8        32     9      180.000000        1.065176         4    ;  uncertainty k = 0.272844
         6         7        12        11     9        0.000000        0.032929         1    ;  uncertainty k = 0.381328
         6         7        12        11     9      180.000000        8.668432         2    ;  uncertainty k = 0.351930
         6         7        12        11     9        0.000000        1.456047         3    ;  uncertainty k = 0.364144
         6         7        12        11     9      180.000000        1.853281         4    ;  uncertainty k = 0.176603
         6         7        12        36     9        0.000000       -0.276887         1    ;  uncertainty k = 0.183726
         6         7        12        36     9      180.000000        6.938093         2    ;  uncertainty k = 0.459858
         6         7        12        36     9        0.000000        0.623177         3    ;  uncertainty k = 0.398126
         6         7        12        36     9      180.000000        1.065175         4    ;  uncertainty k = 0.272845
         6        13        14        15     9        0.000000        0.040986         1    ;  uncertainty k = 0.352622
         6        13        14        15     9      180.000000        8.805889         2    ;  uncertainty k = 0.399520
         6        13        14        15     9        0.000000        1.443688         3    ;  uncertainty k = 0.363117
         6        13        14        15     9      180.000000        1.863794         4    ;  uncertainty k = 0.164462
         6        13        14        37     9        0.000000       -0.295494         1    ;  uncertainty k = 0.178811
         6        13        14        37     9      180.000000        6.909227         2    ;  uncertainty k = 0.444428
         6        13        14        37     9        0.000000        0.631066         3    ;  uncertainty k = 0.378603
         6        13        14        37     9      180.000000        1.058610         4    ;  uncertainty k = 0.260535
         6        13        24        17     9        0.000000        0.042790         1    ;  uncertainty k = 0.265594
         6        13        24        17     9      180.000000        8.462818         2    ;  uncertainty k = 0.368862
         6        13        24        17     9        0.000000        1.328455         3    ;  uncertainty k = 0.244765
         6        13        24        17     9      180.000000        1.866020         4    ;  uncertainty k = 0.123570
         6        13        24        44     9        0.000000       -0.244221         1    ;  uncertainty k = 0.114799
         6        13        24        44     9      180.000000        7.108851         2    ;  uncertainty k = 0.498434
         6        13        24        44     9        0.000000        0.594308         3    ;  uncertainty k = 0.418968
         6        13        24        44     9      180.000000        1.107788         4    ;  uncertainty k = 0.294041
         7         6         5        31     9        0.000000        2.192743         1    ;  uncertainty k = 1.168889
         7         6         5        31     9      180.000000        0.278657         2    ;  uncertainty k = 1.126461
         7         6         5        31     9        0.000000        0.581789         3    ;  uncertainty k = 0.409016
         7         6         5        31     9      180.000000        0.050893         4    ;  uncertainty k = 0.133681
         7         6        13        14     9        0.000000        0.693923         1    ;  uncertainty k = 0.318570
         7         6        13        14     9      180.000000        1.270418         2    ;  uncertainty k = 0.479803
         7         6        13        14     9        0.000000        0.262143         3    ;  uncertainty k = 0.314566
         7         6        13        14     9      180.000000        0.217016         4    ;  uncertainty k = 0.019052
         7         6        13        24     9        0.000000        0.698097         1    ;  uncertainty k = 0.402911
         7         6        13        24     9      180.000000        1.203006         2    ;  uncertainty k = 0.524789
         7         6        13        24     9        0.000000        0.204295         3    ;  uncertainty k = 0.347804
         7         6        13        24     9      180.000000        0.227087         4    ;  uncertainty k = 0.026882
         7         6        25        26     9        0.000000       -0.742446         1    ;  uncertainty k = 1.309835
         7         6        25        26     9      180.000000        3.252605         2    ;  uncertainty k = 0.704089
         7         6        25        26     9        0.000000        0.415226         3    ;  uncertainty k = 0.232107
         7         6        25        26     9      180.000000        0.072409         4    ;  uncertainty k = 0.180997
         7         8         9        10     9        0.000000        0.005132         1    ;  uncertainty k = 0.242164
         7         8         9        10     9      180.000000       13.352664         2    ;  uncertainty k = 0.284060
         7         8         9        10     9        0.000000       -0.876868         3    ;  uncertainty k = 0.537707
         7         8         9        10     9      180.000000        0.737381         4    ;  uncertainty k = 0.245374
         7         8         9        33     9        0.000000        0.129489         1    ;  uncertainty k = 0.312671
         7         8         9        33     9      180.000000        7.427846         2    ;  uncertainty k = 0.328692
         7         8         9        33     9        0.000000        1.481585         3    ;  uncertainty k = 0.152720
         7         8         9        33     9      180.000000        1.803538         4    ;  uncertainty k = 0.149501
         7        12        11        10     9        0.000000        0.005132         1    ;  uncertainty k = 0.242164
         7        12        11        10     9      180.000000       13.352664         2    ;  uncertainty k = 0.284060
         7        12        11        10     9        0.000000       -0.876868         3    ;  uncertainty k = 0.537707
         7        12        11        10     9      180.000000        0.737381         4    ;  uncertainty k = 0.245374
         7        12        11        35     9        0.000000        0.129490         1    ;  uncertainty k = 0.312672
         7        12        11        35     9      180.000000        7.427846         2    ;  uncertainty k = 0.328691
         7        12        11        35     9        0.000000        1.481584         3    ;  uncertainty k = 0.152719
         7        12        11        35     9      180.000000        1.803538         4    ;  uncertainty k = 0.149501
         8         7         6        13     9        0.000000        0.604432         1    ;  uncertainty k = 0.306259
         8         7         6        13     9      180.000000        1.338868         2    ;  uncertainty k = 0.482783
         8         7         6        13     9        0.000000        0.282089         3    ;  uncertainty k = 0.315113
         8         7         6        13     9      180.000000        0.240277         4    ;  uncertainty k = 0.026854
         8         7         6        25     9        0.000000        0.270089         1    ;  uncertainty k = 1.215594
         8         7         6        25     9      180.000000        0.970682         2    ;  uncertainty k = 0.379853
         8         7         6        25     9        0.000000        0.486667         3    ;  uncertainty k = 0.110642
         8         7         6        25     9      180.000000        0.249509         4    ;  uncertainty k = 0.167504
         8         7        12        11     9        0.000000       -0.240734         1    ;  uncertainty k = 0.377669
         8         7        12        11     9      180.000000       12.023573         2    ;  uncertainty k = 0.322594
         8         7        12        11     9        0.000000       -0.630710         3    ;  uncertainty k = 0.226694
         8         7        12        11     9      180.000000        0.783826         4    ;  uncertainty k = 0.301902
         8         7        12        36     9        0.000000        0.252148         1    ;  uncertainty k = 0.138567
         8         7        12        36     9      180.000000        7.620992         2    ;  uncertainty k = 0.536106
         8         7        12        36     9        0.000000        1.293074         3    ;  uncertainty k = 0.300641
         8         7        12        36     9      180.000000        1.649204         4    ;  uncertainty k = 0.194464
         8         9        10        11     9        0.000000       -0.006370         1    ;  uncertainty k = 0.040989
         8         9        10        11     9      180.000000       14.797851         2    ;  uncertainty k = 0.237722
         8         9        10        11     9        0.000000       -1.169438         3    ;  uncertainty k = 0.405008
         8         9        10        11     9      180.000000        0.534938         4    ;  uncertainty k = 0.272125
         8         9        10        34     9        0.000000        0.023622         1    ;  uncertainty k = 0.110077
         8         9        10        34     9      180.000000        7.495127         2    ;  uncertainty k = 0.205716
         8         9        10        34     9        0.000000        1.458527         3    ;  uncertainty k = 0.253935
         8         9        10        34     9      180.000000        1.798437         4    ;  uncertainty k = 0.212079
         9         8         7        12     9        0.000000       -0.240734         1    ;  uncertainty k = 0.377669
         9         8         7        12     9      180.000000       12.023573         2    ;  uncertainty k = 0.322594
         9         8         7        12     9        0.000000       -0.630710         3    ;  uncertainty k = 0.226694
         9         8         7        12     9      180.000000        0.783826         4    ;  uncertainty k = 0.301902
         9        10        11        12     9        0.000000       -0.006370         1    ;  uncertainty k = 0.040989
         9        10        11        12     9      180.000000       14.797851         2    ;  uncertainty k = 0.237722
         9        10        11        12     9        0.000000       -1.169438         3    ;  uncertainty k = 0.405008
         9        10        11        12     9      180.000000        0.534938         4    ;  uncertainty k = 0.272125
         9        10        11        35     9        0.000000       -0.019978         1    ;  uncertainty k = 0.134329
         9        10        11        35     9      180.000000        7.715563         2    ;  uncertainty k = 0.305080
         9        10        11        35     9        0.000000        1.421882         3    ;  uncertainty k = 0.287489
         9        10        11        35     9      180.000000        1.773059         4    ;  uncertainty k = 0.137712
        10         9         8        32     9        0.000000       -0.004880         1    ;  uncertainty k = 0.143286
        10         9         8        32     9      180.000000        8.039949         2    ;  uncertainty k = 0.374443
        10         9         8        32     9        0.000000        1.349892         3    ;  uncertainty k = 0.280047
        10         9         8        32     9      180.000000        1.833069         4    ;  uncertainty k = 0.108033
        10        11        12        36     9        0.000000       -0.004879         1    ;  uncertainty k = 0.143286
        10        11        12        36     9      180.000000        8.039949         2    ;  uncertainty k = 0.374443
        10        11        12        36     9        0.000000        1.349892         3    ;  uncertainty k = 0.280046
        10        11        12        36     9      180.000000        1.833069         4    ;  uncertainty k = 0.108033
        11        10         9        33     9        0.000000       -0.019978         1    ;  uncertainty k = 0.134330
        11        10         9        33     9      180.000000        7.715563         2    ;  uncertainty k = 0.305081
        11        10         9        33     9        0.000000        1.421883         3    ;  uncertainty k = 0.287490
        11        10         9        33     9      180.000000        1.773059         4    ;  uncertainty k = 0.137712
        12         7         6        13     9        0.000000        0.604432         1    ;  uncertainty k = 0.306259
        12         7         6        13     9      180.000000        1.338868         2    ;  uncertainty k = 0.482783
        12         7         6        13     9        0.000000        0.282089         3    ;  uncertainty k = 0.315113
        12         7         6        13     9      180.000000        0.240277         4    ;  uncertainty k = 0.026854
        12         7         6        25     9        0.000000        0.270089         1    ;  uncertainty k = 1.215594
        12         7         6        25     9      180.000000        0.970682         2    ;  uncertainty k = 0.379853
        12         7         6        25     9        0.000000        0.486667         3    ;  uncertainty k = 0.110642
        12         7         6        25     9      180.000000        0.249509         4    ;  uncertainty k = 0.167504
        12         7         8        32     9        0.000000        0.252150         1    ;  uncertainty k = 0.138569
        12         7         8        32     9      180.000000        7.620993         2    ;  uncertainty k = 0.536108
        12         7         8        32     9        0.000000        1.293074         3    ;  uncertainty k = 0.300641
        12         7         8        32     9      180.000000        1.649203         4    ;  uncertainty k = 0.194464
        12        11        10        34     9        0.000000        0.023622         1    ;  uncertainty k = 0.110077
        12        11        10        34     9      180.000000        7.495127         2    ;  uncertainty k = 0.205716
        12        11        10        34     9        0.000000        1.458527         3    ;  uncertainty k = 0.253935
        12        11        10        34     9      180.000000        1.798437         4    ;  uncertainty k = 0.212079
        13         6         5        31     9        0.000000        2.215360         1    ;  uncertainty k = 1.158417
        13         6         5        31     9      180.000000        0.335800         2    ;  uncertainty k = 1.110182
        13         6         5        31     9        0.000000        0.587312         3    ;  uncertainty k = 0.400245
        13         6         5        31     9      180.000000        0.046799         4    ;  uncertainty k = 0.131012
        13         6        25        26     9        0.000000       -0.497888         1    ;  uncertainty k = 1.456440
        13         6        25        26     9      180.000000        3.282056         2    ;  uncertainty k = 0.680877
        13         6        25        26     9        0.000000        0.447933         3    ;  uncertainty k = 0.239946
        13         6        25        26     9      180.000000        0.073709         4    ;  uncertainty k = 0.185546
        13        14        15        16     9        0.000000       -0.029521         1    ;  uncertainty k = 0.234168
        13        14        15        16     9      180.000000       13.122554         2    ;  uncertainty k = 0.326401
        13        14        15        16     9        0.000000       -0.887380         3    ;  uncertainty k = 0.560838
        13        14        15        16     9      180.000000        0.769787         4    ;  uncertainty k = 0.216799
        13        14        15        38     9        0.000000        0.130307         1    ;  uncertainty k = 0.335969
        13        14        15        38     9      180.000000        7.387018         2    ;  uncertainty k = 0.314936
        13        14        15        38     9        0.000000        1.444593         3    ;  uncertainty k = 0.134927
        13        14        15        38     9      180.000000        1.815730         4    ;  uncertainty k = 0.167712
        13        24        17        16     9        0.000000        0.083695         1    ;  uncertainty k = 0.319535
        13        24        17        16     9      180.000000        9.876544         2    ;  uncertainty k = 0.455358
        13        24        17        16     9        0.000000       -0.154973         3    ;  uncertainty k = 0.321666
        13        24        17        16     9      180.000000        1.087095         4    ;  uncertainty k = 0.317710
        13        24        17        18     9        0.000000        0.291095         1    ;  uncertainty k = 0.115567
        13        24        17        18     9      180.000000        8.480799         2    ;  uncertainty k = 0.358130
        13        24        17        18     9        0.000000        1.271783         3    ;  uncertainty k = 0.393833
        13        24        17        18     9      180.000000        1.703568         4    ;  uncertainty k = 0.050355
        14        13         6        25     9        0.000000        0.342002         1    ;  uncertainty k = 1.184395
        14        13         6        25     9      180.000000        0.986087         2    ;  uncertainty k = 0.376612
        14        13         6        25     9        0.000000        0.469383         3    ;  uncertainty k = 0.110008
        14        13         6        25     9      180.000000        0.252516         4    ;  uncertainty k = 0.170004
        14        13        24        17     9        0.000000       -0.358730         1    ;  uncertainty k = 0.457427
        14        13        24        17     9      180.000000       11.630929         2    ;  uncertainty k = 0.175448
        14        13        24        17     9        0.000000       -0.287932         3    ;  uncertainty k = 0.280276
        14        13        24        17     9      180.000000        0.938401         4    ;  uncertainty k = 0.241010
        14        13        24        44     9        0.000000        0.279737         1    ;  uncertainty k = 0.113552
        14        13        24        44     9      180.000000        7.836139         2    ;  uncertainty k = 0.503534
        14        13        24        44     9        0.000000        1.304639         3    ;  uncertainty k = 0.357736
        14        13        24        44     9      180.000000        1.639694         4    ;  uncertainty k = 0.192804
        14        15        16        17     9        0.000000       -0.085997         1    ;  uncertainty k = 0.266928
        14        15        16        17     9      180.000000       13.983748         2    ;  uncertainty k = 0.259620
        14        15        16        17     9        0.000000       -0.834090         3    ;  uncertainty k = 0.479571
        14        15        16        17     9      180.000000        0.707208         4    ;  uncertainty k = 0.226778
        14        15        16        39     9        0.000000        0.030212         1    ;  uncertainty k = 0.096294
        14        15        16        39     9      180.000000        7.702476         2    ;  uncertainty k = 0.235570
        14        15        16        39     9        0.000000        1.440508         3    ;  uncertainty k = 0.223602
        14        15        16        39     9      180.000000        1.811952         4    ;  uncertainty k = 0.221970
        15        14        13        24     9        0.000000       -0.280434         1    ;  uncertainty k = 0.294041
        15        14        13        24     9      180.000000       11.969756         2    ;  uncertainty k = 0.342149
        15        14        13        24     9        0.000000       -0.622724         3    ;  uncertainty k = 0.188401
        15        14        13        24     9      180.000000        0.825539         4    ;  uncertainty k = 0.274381
        15        16        17        18     9        0.000000       -0.048895         1    ;  uncertainty k = 0.213144
        15        16        17        18     9      180.000000        8.948911         2    ;  uncertainty k = 0.533028
        15        16        17        18     9        0.000000        1.147546         3    ;  uncertainty k = 0.421480
        15        16        17        18     9      180.000000        1.716532         4    ;  uncertainty k = 0.187744
        15        16        17        24     9        0.000000        0.113801         1    ;  uncertainty k = 0.146189
        15        16        17        24     9      180.000000       11.034256         2    ;  uncertainty k = 0.245648
        15        16        17        24     9        0.000000       -0.461903         3    ;  uncertainty k = 0.342809
        15        16        17        24     9      180.000000        0.937210         4    ;  uncertainty k = 0.278411
        16        15        14        37     9        0.000000        0.046199         1    ;  uncertainty k = 0.100255
        16        15        14        37     9      180.000000        7.762469         2    ;  uncertainty k = 0.383547
        16        15        14        37     9        0.000000        1.370296         3    ;  uncertainty k = 0.232972
        16        15        14        37     9      180.000000        1.812301         4    ;  uncertainty k = 0.097316
        16        17        18        19     9        0.000000       -0.504969         1    ;  uncertainty k = 0.513519
        16        17        18        19     9      180.000000        3.643776         2    ;  uncertainty k = 0.124022
        16        17        18        19     9        0.000000        0.312571         3    ;  uncertainty k = 0.175759
        16        17        18        19     9      180.000000       -0.153186         4    ;  uncertainty k = 0.082008
        16        17        18        23     9        0.000000       -0.250734         1    ;  uncertainty k = 0.767826
        16        17        18        23     9      180.000000        3.317167         2    ;  uncertainty k = 0.065419
        16        17        18        23     9        0.000000        0.331100         3    ;  uncertainty k = 0.233850
        16        17        18        23     9      180.000000       -0.181667         4    ;  uncertainty k = 0.061459
        16        17        24        44     9        0.000000        0.076891         1    ;  uncertainty k = 0.184428
        16        17        24        44     9      180.000000        7.216744         2    ;  uncertainty k = 0.703495
        16        17        24        44     9        0.000000        1.421303         3    ;  uncertainty k = 0.135770
        16        17        24        44     9      180.000000        1.627746         4    ;  uncertainty k = 0.245405
        17        16        15        38     9        0.000000        0.020921         1    ;  uncertainty k = 0.184724
        17        16        15        38     9      180.000000        7.706106         2    ;  uncertainty k = 0.324272
        17        16        15        38     9        0.000000        1.353882         3    ;  uncertainty k = 0.239198
        17        16        15        38     9      180.000000        1.829404         4    ;  uncertainty k = 0.177890
        17        18        19        20     9        0.000000        0.098472         1    ;  uncertainty k = 0.279544
        17        18        19        20     9      180.000000        8.958360         2    ;  uncertainty k = 0.458634
        17        18        19        20     9        0.000000        1.360518         3    ;  uncertainty k = 0.484040
        17        18        19        20     9      180.000000        1.818392         4    ;  uncertainty k = 0.180221
        17        18        19        40     9        0.000000       -0.197410         1    ;  uncertainty k = 0.403759
        17        18        19        40     9      180.000000        7.126632         2    ;  uncertainty k = 0.422948
        17        18        19        40     9        0.000000        0.863094         3    ;  uncertainty k = 0.214490
        17        18        19        40     9      180.000000        1.171351         4    ;  uncertainty k = 0.226776
        17        18        23        22     9        0.000000        0.131602         1    ;  uncertainty k = 0.241521
        17        18        23        22     9      180.000000        9.489626         2    ;  uncertainty k = 0.283825
        17        18        23        22     9        0.000000        1.069883         3    ;  uncertainty k = 0.323675
        17        18        23        22     9      180.000000        1.730506         4    ;  uncertainty k = 0.192903
        17        18        23        43     9        0.000000       -0.484724         1    ;  uncertainty k = 0.743411
        17        18        23        43     9      180.000000        6.126633         2    ;  uncertainty k = 0.813696
        17        18        23        43     9        0.000000        0.824275         3    ;  uncertainty k = 0.183401
        17        18        23        43     9      180.000000        1.135343         4    ;  uncertainty k = 0.203215
        18        17        16        39     9        0.000000       -0.150645         1    ;  uncertainty k = 0.272538
        18        17        16        39     9      180.000000        7.141928         2    ;  uncertainty k = 0.436962
        18        17        16        39     9        0.000000        0.897704         3    ;  uncertainty k = 0.104973
        18        17        16        39     9      180.000000        1.211068         4    ;  uncertainty k = 0.195636
        18        17        24        44     9        0.000000       -0.123579         1    ;  uncertainty k = 0.215785
        18        17        24        44     9      180.000000        7.340059         2    ;  uncertainty k = 0.232474
        18        17        24        44     9        0.000000        0.882135         3    ;  uncertainty k = 0.170311
        18        17        24        44     9      180.000000        1.289905         4    ;  uncertainty k = 0.188754
        18        19        20        21     9        0.000000       -0.022293         1    ;  uncertainty k = 0.082343
        18        19        20        21     9      180.000000       13.928101         2    ;  uncertainty k = 0.271735
        18        19        20        21     9        0.000000       -1.069198         3    ;  uncertainty k = 0.388042
        18        19        20        21     9      180.000000        0.793067         4    ;  uncertainty k = 0.227887
        18        19        20        41     9        0.000000        0.092359         1    ;  uncertainty k = 0.106300
        18        19        20        41     9      180.000000        8.315953         2    ;  uncertainty k = 0.529381
        18        19        20        41     9        0.000000        1.499681         3    ;  uncertainty k = 0.371202
        18        19        20        41     9      180.000000        1.863068         4    ;  uncertainty k = 0.086393
        18        23        22        21     9        0.000000       -0.354420         1    ;  uncertainty k = 0.480149
        18        23        22        21     9      180.000000       14.667082         2    ;  uncertainty k = 0.350450
        18        23        22        21     9        0.000000        0.872422         3    ;  uncertainty k = 0.737263
        18        23        22        21     9      180.000000        1.445752         4    ;  uncertainty k = 0.150659
        19        18        17        24     9        0.000000       -0.293115         1    ;  uncertainty k = 0.513612
        19        18        17        24     9      180.000000        3.940707         2    ;  uncertainty k = 0.158543
        19        18        17        24     9        0.000000        0.288786         3    ;  uncertainty k = 0.184214
        19        18        17        24     9      180.000000       -0.083034         4    ;  uncertainty k = 0.078849
        19        18        23        22     9        0.000000       -0.239686         1    ;  uncertainty k = 0.325949
        19        18        23        22     9      180.000000       12.270964         2    ;  uncertainty k = 0.451461
        19        18        23        22     9        0.000000       -0.377785         3    ;  uncertainty k = 0.397532
        19        18        23        22     9      180.000000        1.061585         4    ;  uncertainty k = 0.209256
        19        18        23        43     9        0.000000       -0.134988         1    ;  uncertainty k = 0.502066
        19        18        23        43     9      180.000000        5.406283         2    ;  uncertainty k = 0.611990
        19        18        23        43     9        0.000000        1.051939         3    ;  uncertainty k = 0.250285
        19        18        23        43     9      180.000000        1.390307         4    ;  uncertainty k = 0.191182
        19        20        21        22     9        0.000000        0.032707         1    ;  uncertainty k = 0.230291
        19        20        21        22     9      180.000000       15.289852         2    ;  uncertainty k = 0.216983
        19        20        21        22     9        0.000000       -1.417882         3    ;  uncertainty k = 0.690982
        19        20        21        22     9      180.000000        0.829411         4    ;  uncertainty k = 0.195666
        19        20        21        42     9        0.000000       -0.155227         1    ;  uncertainty k = 0.339000
        19        20        21        42     9      180.000000        6.322347         2    ;  uncertainty k = 0.191257
        19        20        21        42     9        0.000000        1.225748         3    ;  uncertainty k = 0.248864
        19        20        21        42     9      180.000000        1.523585         4    ;  uncertainty k = 0.207206
        20        19        18        23     9        0.000000        0.003044         1    ;  uncertainty k = 0.101412
        20        19        18        23     9      180.000000       11.054199         2    ;  uncertainty k = 0.278577
        20        19        18        23     9        0.000000       -0.623445         3    ;  uncertainty k = 0.359266
        20        19        18        23     9      180.000000        0.870393         4    ;  uncertainty k = 0.321446
        20        21        22        23     9        0.000000       -0.217753         1    ;  uncertainty k = 0.641569
        20        21        22        23     9      180.000000       15.698946         2    ;  uncertainty k = 0.511991
        20        21        22        23     9        0.000000        0.719894         3    ;  uncertainty k = 0.635225
        20        21        22        23     9      180.000000        1.305715         4    ;  uncertainty k = 0.097679
        21        20        19        40     9        0.000000       -0.125637         1    ;  uncertainty k = 0.395479
        21        20        19        40     9      180.000000        8.042971         2    ;  uncertainty k = 0.374305
        21        20        19        40     9        0.000000        1.305638         3    ;  uncertainty k = 0.239109
        21        20        19        40     9      180.000000        1.654096         4    ;  uncertainty k = 0.140573
        21        22        23        43     9        0.000000        0.375816         1    ;  uncertainty k = 0.290394
        21        22        23        43     9      180.000000       15.574508         2    ;  uncertainty k = 0.413185
        21        22        23        43     9        0.000000        2.255651         3    ;  uncertainty k = 0.445367
        21        22        23        43     9      180.000000        1.629118         4    ;  uncertainty k = 0.327615
        22        21        20        41     9        0.000000       -0.033385         1    ;  uncertainty k = 0.312852
        22        21        20        41     9      180.000000        9.297232         2    ;  uncertainty k = 0.586533
        22        21        20        41     9        0.000000        0.960940         3    ;  uncertainty k = 0.286602
        22        21        20        41     9      180.000000        1.627077         4    ;  uncertainty k = 0.106970
        23        18        17        24     9        0.000000       -0.218979         1    ;  uncertainty k = 0.621430
        23        18        17        24     9      180.000000        3.511312         2    ;  uncertainty k = 0.114020
        23        18        17        24     9        0.000000        0.351227         3    ;  uncertainty k = 0.228650
        23        18        17        24     9      180.000000       -0.143971         4    ;  uncertainty k = 0.043920
        23        18        19        40     9        0.000000       -0.032392         1    ;  uncertainty k = 0.246383
        23        18        19        40     9      180.000000        6.620083         2    ;  uncertainty k = 0.630669
        23        18        19        40     9        0.000000        1.239595         3    ;  uncertainty k = 0.223066
        23        18        19        40     9      180.000000        1.476520         4    ;  uncertainty k = 0.225619
        23        22        21        42     9        0.000000        0.277290         1    ;  uncertainty k = 0.147788
        23        22        21        42     9      180.000000       14.860574         2    ;  uncertainty k = 0.407799
        23        22        21        42     9        0.000000        2.108131         3    ;  uncertainty k = 0.597812
        23        22        21        42     9      180.000000        1.549388         4    ;  uncertainty k = 0.299098
        24        13         6        25     9        0.000000        0.349180         1    ;  uncertainty k = 1.231580
        24        13         6        25     9      180.000000        0.988697         2    ;  uncertainty k = 0.351944
        24        13         6        25     9        0.000000        0.415623         3    ;  uncertainty k = 0.100304
        24        13         6        25     9      180.000000        0.260453         4    ;  uncertainty k = 0.165048
        24        13        14        37     9        0.000000        0.305946         1    ;  uncertainty k = 0.185613
        24        13        14        37     9      180.000000        7.597169         2    ;  uncertainty k = 0.556769
        24        13        14        37     9        0.000000        1.291677         3    ;  uncertainty k = 0.346577
        24        13        14        37     9      180.000000        1.643538         4    ;  uncertainty k = 0.210914
        24        17        16        39     9        0.000000        0.150169         1    ;  uncertainty k = 0.181449
        24        17        16        39     9      180.000000        7.020528         2    ;  uncertainty k = 0.452528
        24        17        16        39     9        0.000000        1.413874         3    ;  uncertainty k = 0.278636
        24        17        16        39     9      180.000000        1.595147         4    ;  uncertainty k = 0.254475
        25         2         1        27     9        0.000000        0.248591         1    ;  uncertainty k = 0.444249
        25         2         1        27     9      180.000000        0.083806         2    ;  uncertainty k = 0.256009
        25         2         1        27     9        0.000000        0.361519         3    ;  uncertainty k = 0.229559
        25         2         1        27     9      180.000000        0.309824         4    ;  uncertainty k = 0.070542
        25         2         1        28     9        0.000000        0.248591         1    ;  uncertainty k = 0.444249
        25         2         1        28     9      180.000000        0.083806         2    ;  uncertainty k = 0.256009
        25         2         1        28     9        0.000000        0.361519         3    ;  uncertainty k = 0.229559
        25         2         1        28     9      180.000000        0.309824         4    ;  uncertainty k = 0.070542
        25         2         1        29     9        0.000000        0.248591         1    ;  uncertainty k = 0.444249
        25         2         1        29     9      180.000000        0.083806         2    ;  uncertainty k = 0.256009
        25         2         1        29     9        0.000000        0.361519         3    ;  uncertainty k = 0.229559
        25         2         1        29     9      180.000000        0.309824         4    ;  uncertainty k = 0.070542
        25         6         5        31     9        0.000000       -0.290074         1    ;  uncertainty k = 2.574717
        25         6         5        31     9      180.000000        0.241721         2    ;  uncertainty k = 1.828814
        25         6         5        31     9        0.000000        0.369689         3    ;  uncertainty k = 0.455815
        25         6         5        31     9      180.000000       -0.040549         4    ;  uncertainty k = 0.160948
        32         8         9        33     9        0.000000       -0.156460         1    ;  uncertainty k = 0.354103
        32         8         9        33     9      180.000000        7.863235         2    ;  uncertainty k = 0.315073
        32         8         9        33     9        0.000000       -0.450842         3    ;  uncertainty k = 0.303952
        32         8         9        33     9      180.000000        0.185726         4    ;  uncertainty k = 0.168830
        33         9        10        34     9        0.000000       -0.049616         1    ;  uncertainty k = 0.148337
        33         9        10        34     9      180.000000        7.798625         2    ;  uncertainty k = 0.386263
        33         9        10        34     9        0.000000       -0.413767         3    ;  uncertainty k = 0.291378
        33         9        10        34     9      180.000000        0.047027         4    ;  uncertainty k = 0.170118
        34        10        11        35     9        0.000000       -0.049616         1    ;  uncertainty k = 0.148337
        34        10        11        35     9      180.000000        7.798626         2    ;  uncertainty k = 0.386262
        34        10        11        35     9        0.000000       -0.413767         3    ;  uncertainty k = 0.291378
        34        10        11        35     9      180.000000        0.047026         4    ;  uncertainty k = 0.170118
        35        11        12        36     9        0.000000       -0.156458         1    ;  uncertainty k = 0.354101
        35        11        12        36     9      180.000000        7.863232         2    ;  uncertainty k = 0.315071
        35        11        12        36     9        0.000000       -0.450842         3    ;  uncertainty k = 0.303952
        35        11        12        36     9      180.000000        0.185726         4    ;  uncertainty k = 0.168830
        37        14        15        38     9        0.000000       -0.162735         1    ;  uncertainty k = 0.342358
        37        14        15        38     9      180.000000        7.812447         2    ;  uncertainty k = 0.315878
        37        14        15        38     9        0.000000       -0.476482         3    ;  uncertainty k = 0.316090
        37        14        15        38     9      180.000000        0.149754         4    ;  uncertainty k = 0.190255
        38        15        16        39     9        0.000000       -0.087062         1    ;  uncertainty k = 0.221647
        38        15        16        39     9      180.000000        7.986535         2    ;  uncertainty k = 0.292338
        38        15        16        39     9        0.000000       -0.491663         3    ;  uncertainty k = 0.269713
        38        15        16        39     9      180.000000        0.117964         4    ;  uncertainty k = 0.148528
        40        19        20        41     9        0.000000       -0.041494         1    ;  uncertainty k = 0.196278
        40        19        20        41     9      180.000000        8.162046         2    ;  uncertainty k = 0.357568
        40        19        20        41     9        0.000000       -0.470783         3    ;  uncertainty k = 0.316493
        40        19        20        41     9      180.000000        0.117520         4    ;  uncertainty k = 0.170865
        41        20        21        42     9        0.000000       -0.272876         1    ;  uncertainty k = 0.270326
        41        20        21        42     9      180.000000        6.674021         2    ;  uncertainty k = 0.285185
        41        20        21        42     9        0.000000       -0.094419         3    ;  uncertainty k = 0.105118
        41        20        21        42     9      180.000000        0.242430         4    ;  uncertainty k = 0.077812

[ dihedrals ] ; impropers
;       ai        aj        ak        al funct           phase               k        pn
         2         1         3        25     4      180.000000        1.980029         2    ;  uncertainty k = 0.475019
         2         3        25         1     4      180.000000        1.980029         2    ;  uncertainty k = 0.475019
         2        25         1         3     4      180.000000        1.980029         2    ;  uncertainty k = 0.475019
         3         2         4         5     4      180.000000       30.576100         2    ;  uncertainty k = 0.126950
         3         4         5         2     4      180.000000       30.576100         2    ;  uncertainty k = 0.126950
         3         5         2         4     4      180.000000       30.576100         2    ;  uncertainty k = 0.126950
         4         3        30        45     4      180.000000        0.162942         2    ;  uncertainty k = 0.364350
         4        30        45         3     4      180.000000        0.162942         2    ;  uncertainty k = 0.364350
         4        45         3        30     4      180.000000        0.162942         2    ;  uncertainty k = 0.364350
         7         6         8        12     4      180.000000        9.903187         2    ;  uncertainty k = 0.263109
         7         8        12         6     4      180.000000        9.903187         2    ;  uncertainty k = 0.263109
         7        12         6         8     4      180.000000        9.903187         2    ;  uncertainty k = 0.263109
         8         7         9        32     4      180.000000        4.262961         2    ;  uncertainty k = 0.194702
         8         9        32         7     4      180.000000        4.262961         2    ;  uncertainty k = 0.194702
         8        32         7         9     4      180.000000        4.262961         2    ;  uncertainty k = 0.194702
         9         8        10        33     4      180.000000        4.374957         2    ;  uncertainty k = 0.132607
         9        10        33         8     4      180.000000        4.374957         2    ;  uncertainty k = 0.132607
         9        33         8        10     4      180.000000        4.374957         2    ;  uncertainty k = 0.132607
        10         9        11        34     4      180.000000        4.945480         2    ;  uncertainty k = 0.161841
        10        11        34         9     4      180.000000        4.945480         2    ;  uncertainty k = 0.161841
        10        34         9        11     4      180.000000        4.945480         2    ;  uncertainty k = 0.161841
        11        10        12        35     4      180.000000        4.374960         2    ;  uncertainty k = 0.132607
        11        12        35        10     4      180.000000        4.374960         2    ;  uncertainty k = 0.132607
        11        35        10        12     4      180.000000        4.374960         2    ;  uncertainty k = 0.132607
        12         7        11        36     4      180.000000        4.262962         2    ;  uncertainty k = 0.194702
        12        11        36         7     4      180.000000        4.262962         2    ;  uncertainty k = 0.194702
        12        36         7        11     4      180.000000        4.262962         2    ;  uncertainty k = 0.194702
        13         6        14        24     4      180.000000       10.246084         2    ;  uncertainty k = 0.229427
        13        14        24         6     4      180.000000       10.246084         2    ;  uncertainty k = 0.229427
        13        24         6        14     4      180.000000       10.246084         2    ;  uncertainty k = 0.229427
        14        13        15        37     4      180.000000        4.099001         2    ;  uncertainty k = 0.199477
        14        15        37        13     4      180.000000        4.099001         2    ;  uncertainty k = 0.199477
        14        37        13        15     4      180.000000        4.099001         2    ;  uncertainty k = 0.199477
        15        14        16        38     4      180.000000        4.144789         2    ;  uncertainty k = 0.128855
        15        16        38        14     4      180.000000        4.144789         2    ;  uncertainty k = 0.128855
        15        38        14        16     4      180.000000        4.144789         2    ;  uncertainty k = 0.128855
        16        15        17        39     4      180.000000        4.571841         2    ;  uncertainty k = 0.143309
        16        17        39        15     4      180.000000        4.571841         2    ;  uncertainty k = 0.143309
        16        39        15        17     4      180.000000        4.571841         2    ;  uncertainty k = 0.143309
        17        16        18        24     4      180.000000       15.683644         2    ;  uncertainty k = 0.066699
        17        18        24        16     4      180.000000       15.683644         2    ;  uncertainty k = 0.066699
        17        24        16        18     4      180.000000       15.683644         2    ;  uncertainty k = 0.066699
        18        17        19        23     4      180.000000       13.036154         2    ;  uncertainty k = 0.103634
        18        19        23        17     4      180.000000       13.036154         2    ;  uncertainty k = 0.103634
        18        23        17        19     4      180.000000       13.036154         2    ;  uncertainty k = 0.103634
        19        18        20        40     4      180.000000        6.136347         2    ;  uncertainty k = 0.133837
        19        20        40        18     4      180.000000        6.136347         2    ;  uncertainty k = 0.133837
        19        40        18        20     4      180.000000        6.136347         2    ;  uncertainty k = 0.133837
        20        19        21        41     4      180.000000        2.992276         2    ;  uncertainty k = 0.190982
        20        21        41        19     4      180.000000        2.992276         2    ;  uncertainty k = 0.190982
        20        41        19        21     4      180.000000        2.992276         2    ;  uncertainty k = 0.190982
        21        20        22        42     4      180.000000       13.295872         2    ;  uncertainty k = 0.022980
        21        22        42        20     4      180.000000       13.295872         2    ;  uncertainty k = 0.022980
        21        42        20        22     4      180.000000       13.295872         2    ;  uncertainty k = 0.022980
        23        18        22        43     4      180.000000       13.584179         2    ;  uncertainty k = 0.039235
        23        22        43        18     4      180.000000       13.584179         2    ;  uncertainty k = 0.039235
        23        43        18        22     4      180.000000       13.584179         2    ;  uncertainty k = 0.039235
        24        13        17        44     4      180.000000        4.474303         2    ;  uncertainty k = 0.287061
        24        17        44        13     4      180.000000        4.474303         2    ;  uncertainty k = 0.287061
        24        44        13        17     4      180.000000        4.474303         2    ;  uncertainty k = 0.287061
        25         2         6        26     4      180.000000       49.868697         2    ;  uncertainty k = 0.032116
        25         6        26         2     4      180.000000       49.868697         2    ;  uncertainty k = 0.032116
        25        26         2         6     4      180.000000       49.868697         2    ;  uncertainty k = 0.032116

[ pairs ]
;       ai        aj funct
         1         4     1
         1         5     1
         1         6     1
         1        26     1
         2         7     1
         2        13     1
         2        30     1
         2        31     1
         2        45     1
         3         7     1
         3        13     1
         3        26     1
         3        27     1
         3        28     1
         3        29     1
         4         6     1
         4        25     1
         4        31     1
         5         8     1
         5        12     1
         5        14     1
         5        24     1
         5        26     1
         5        30     1
         5        45     1
         6         9     1
         6        11     1
         6        15     1
         6        17     1
         6        32     1
         6        36     1
         6        37     1
         6        44     1
         7        10     1
         7        14     1
         7        24     1
         7        26     1
         7        31     1
         7        33     1
         7        35     1
         8        11     1
         8        13     1
         8        25     1
         8        34     1
         8        36     1
         9        12     1
         9        35     1
        10        32     1
        10        36     1
        11        33     1
        12        13     1
        12        25     1
        12        32     1
        12        34     1
        13        16     1
        13        18     1
        13        26     1
        13        31     1
        13        38     1
        14        17     1
        14        25     1
        14        39     1
        14        44     1
        15        18     1
        15        24     1
        16        19     1
        16        23     1
        16        37     1
        16        44     1
        17        20     1
        17        22     1
        17        38     1
        17        40     1
        17        43     1
        18        21     1
        18        39     1
        18        41     1
        18        44     1
        19        22     1
        19        24     1
        19        42     1
        19        43     1
        20        23     1
        21        40     1
        21        43     1
        22        41     1
        23        24     1
        23        40     1
        23        42     1
        24        25     1
        24        37     1
        24        39     1
        25        27     1
        25        28     1
        25        29     1
        25        31     1
        32        33     1
        33        34     1
        34        35     1
        35        36     1
        37        38     1
        38        39     1
        40        41     1
        41        42     1
