; ITP file created by ByteFF-joint-25, 2026-02-18 03:15:32.558337

[ atomtypes ]
;name           bonded.type        at.num        mass        charge   ptype           sigma         epsilon
 c0bf                                   6      0.0000       0.00000       A     3.39733e-01     4.51254e-01    ;  uncertainty sigma = 0.000013, epsilon = 0.001262
 n1bf                                   7      0.0000       0.00000       A     3.18110e-01     6.83692e-01    ;  uncertainty sigma = 0.000074, epsilon = 0.006737
 c2bf                                   6      0.0000       0.00000       A     3.31517e-01     4.12248e-01    ;  uncertainty sigma = 0.000058, epsilon = 0.001403
 n3bf                                   7      0.0000       0.00000       A     3.36546e-01     4.71601e-01    ;  uncertainty sigma = 0.000088, epsilon = 0.005519
 n4bf                                   7      0.0000       0.00000       A     3.27439e-01     6.56945e-01    ;  uncertainty sigma = 0.000124, epsilon = 0.011786
 c5bf                                   6      0.0000       0.00000       A     3.39803e-01     4.52408e-01    ;  uncertainty sigma = 0.000048, epsilon = 0.001848
 c6bf                                   6      0.0000       0.00000       A     3.31515e-01     4.13825e-01    ;  uncertainty sigma = 0.000024, epsilon = 0.000893
 c7bf                                   6      0.0000       0.00000       A     3.31507e-01     4.13144e-01    ;  uncertainty sigma = 0.000003, epsilon = 0.000558
 c8bf                                   6      0.0000       0.00000       A     3.31522e-01     4.13324e-01    ;  uncertainty sigma = 0.000003, epsilon = 0.000652
 c9bf                                   6      0.0000       0.00000       A     3.31511e-01     4.13225e-01    ;  uncertainty sigma = 0.000005, epsilon = 0.000664
 c10bf                                  6      0.0000       0.00000       A     3.31512e-01     4.13503e-01    ;  uncertainty sigma = 0.000009, epsilon = 0.000856
 c11bf                                  6      0.0000       0.00000       A     3.31498e-01     4.12922e-01    ;  uncertainty sigma = 0.000009, epsilon = 0.000799
 c12bf                                  6      0.0000       0.00000       A     3.31517e-01     4.13379e-01    ;  uncertainty sigma = 0.000004, epsilon = 0.000678
 n13bf                                  7      0.0000       0.00000       A     3.38403e-01     3.93688e-01    ;  uncertainty sigma = 0.000007, epsilon = 0.001040
 c14bf                                  6      0.0000       0.00000       A     3.31508e-01     4.13275e-01    ;  uncertainty sigma = 0.000004, epsilon = 0.000430
 c15bf                                  6      0.0000       0.00000       A     3.31517e-01     4.13257e-01    ;  uncertainty sigma = 0.000009, epsilon = 0.000645
 cl16bf                                17      0.0000       0.00000       A     3.46610e-01     1.10387e+00    ;  uncertainty sigma = 0.000023, epsilon = 0.001116
 c17bf                                  6      0.0000       0.00000       A     3.31513e-01     4.13285e-01    ;  uncertainty sigma = 0.000005, epsilon = 0.000694
 c18bf                                  6      0.0000       0.00000       A     3.31517e-01     4.13236e-01    ;  uncertainty sigma = 0.000017, epsilon = 0.000949
 c19bf                                  6      0.0000       0.00000       A     3.39764e-01     4.49715e-01    ;  uncertainty sigma = 0.000040, epsilon = 0.002019
 c20bf                                  6      0.0000       0.00000       A     3.39735e-01     4.50625e-01    ;  uncertainty sigma = 0.000020, epsilon = 0.000685
 c21bf                                  6      0.0000       0.00000       A     3.39735e-01     4.50625e-01    ;  uncertainty sigma = 0.000020, epsilon = 0.000685
 c22bf                                  6      0.0000       0.00000       A     3.31558e-01     4.13924e-01    ;  uncertainty sigma = 0.000016, epsilon = 0.000458
 o23bf                                  8      0.0000       0.00000       A     3.04808e-01     6.12161e-01    ;  uncertainty sigma = 0.000055, epsilon = 0.001789
 h24bf                                  1      0.0000       0.00000       A     2.42208e-01     8.66970e-02    ;  uncertainty sigma = 0.000028, epsilon = 0.000664
 h25bf                                  1      0.0000       0.00000       A     2.42208e-01     8.66970e-02    ;  uncertainty sigma = 0.000028, epsilon = 0.000664
 h26bf                                  1      0.0000       0.00000       A     2.42208e-01     8.66970e-02    ;  uncertainty sigma = 0.000028, epsilon = 0.000664
 h27bf                                  1      0.0000       0.00000       A     1.10696e-01     4.12787e-02    ;  uncertainty sigma = 0.000128, epsilon = 0.001559
 h28bf                                  1      0.0000       0.00000       A     1.10560e-01     4.03483e-02    ;  uncertainty sigma = 0.000072, epsilon = 0.001764
 h29bf                                  1      0.0000       0.00000       A     2.62559e-01     6.70864e-02    ;  uncertainty sigma = 0.000006, epsilon = 0.000392
 h30bf                                  1      0.0000       0.00000       A     2.62564e-01     6.70136e-02    ;  uncertainty sigma = 0.000010, epsilon = 0.000418
 h31bf                                  1      0.0000       0.00000       A     2.62562e-01     6.70409e-02    ;  uncertainty sigma = 0.000012, epsilon = 0.000506
 h32bf                                  1      0.0000       0.00000       A     2.53644e-01     6.67556e-02    ;  uncertainty sigma = 0.000027, epsilon = 0.000598
 h33bf                                  1      0.0000       0.00000       A     2.53671e-01     6.70842e-02    ;  uncertainty sigma = 0.000022, epsilon = 0.000540
 h34bf                                  1      0.0000       0.00000       A     2.62556e-01     6.71830e-02    ;  uncertainty sigma = 0.000014, epsilon = 0.000719
 h35bf                                  1      0.0000       0.00000       A     2.62550e-01     6.72383e-02    ;  uncertainty sigma = 0.000015, epsilon = 0.000625
 h36bf                                  1      0.0000       0.00000       A     2.59937e-01     8.72288e-02    ;  uncertainty sigma = 0.000071, epsilon = 0.001228
 h37bf                                  1      0.0000       0.00000       A     2.60065e-01     8.61959e-02    ;  uncertainty sigma = 0.000029, epsilon = 0.000649
 h38bf                                  1      0.0000       0.00000       A     2.60065e-01     8.61959e-02    ;  uncertainty sigma = 0.000029, epsilon = 0.000649
 h39bf                                  1      0.0000       0.00000       A     2.60065e-01     8.61959e-02    ;  uncertainty sigma = 0.000029, epsilon = 0.000649
 h40bf                                  1      0.0000       0.00000       A     2.60065e-01     8.61961e-02    ;  uncertainty sigma = 0.000029, epsilon = 0.000649
 h41bf                                  1      0.0000       0.00000       A     1.10696e-01     4.12786e-02    ;  uncertainty sigma = 0.000128, epsilon = 0.001560

[ moleculetype ]
;name             nrexcl
 MOL                   3

[ atoms ]
;       nr            type      resi   res      atom      cgnr      charge          mass ; qtot
         1            c0bf         1   UNL        c0         1     0.07468       12.0110 ; qtot    0.075
         2            n1bf         1   UNL        n1         2    -0.42319       14.0070 ; qtot   -0.349
         3            c2bf         1   UNL        c2         3     0.46059       12.0110 ; qtot    0.112
         4            n3bf         1   UNL        n3         4    -0.48161       14.0070 ; qtot   -0.370
         5            n4bf         1   UNL        n4         5    -0.37866       14.0070 ; qtot   -0.748
         6            c5bf         1   UNL        c5         6     0.08654       12.0110 ; qtot   -0.662
         7            c6bf         1   UNL        c6         7    -0.12595       12.0110 ; qtot   -0.788
         8            c7bf         1   UNL        c7         8    -0.09631       12.0110 ; qtot   -0.884
         9            c8bf         1   UNL        c8         9    -0.11133       12.0110 ; qtot   -0.995
        10            c9bf         1   UNL        c9        10    -0.09297       12.0110 ; qtot   -1.088
        11           c10bf         1   UNL       c10        11    -0.01880       12.0110 ; qtot   -1.107
        12           c11bf         1   UNL       c11        12    -0.14476       12.0110 ; qtot   -1.252
        13           c12bf         1   UNL       c12        13     0.40372       12.0110 ; qtot   -0.848
        14           n13bf         1   UNL       n13        14    -0.65413       14.0070 ; qtot   -1.502
        15           c14bf         1   UNL       c14        15     0.41404       12.0110 ; qtot   -1.088
        16           c15bf         1   UNL       c15        16    -0.09004       12.0110 ; qtot   -1.178
        17          cl16bf         1   UNL      cl16        17    -0.09399       35.4530 ; qtot   -1.272
        18           c17bf         1   UNL       c17        18    -0.07876       12.0110 ; qtot   -1.351
        19           c18bf         1   UNL       c18        19    -0.07882       12.0110 ; qtot   -1.430
        20           c19bf         1   UNL       c19        20    -0.18780       12.0110 ; qtot   -1.618
        21           c20bf         1   UNL       c20        21    -0.09798       12.0110 ; qtot   -1.716
        22           c21bf         1   UNL       c21        22    -0.09798       12.0110 ; qtot   -1.814
        23           c22bf         1   UNL       c22        23     0.71197       12.0110 ; qtot   -1.102
        24           o23bf         1   UNL       o23        24    -0.45487       15.9990 ; qtot   -1.556
        25           h24bf         1   UNL       h24        25     0.09037        1.0080 ; qtot   -1.466
        26           h25bf         1   UNL       h25        26     0.09037        1.0080 ; qtot   -1.376
        27           h26bf         1   UNL       h26        27     0.09037        1.0080 ; qtot   -1.285
        28           h27bf         1   UNL       h27        28     0.33562        1.0080 ; qtot   -0.950
        29           h28bf         1   UNL       h28        29     0.35109        1.0080 ; qtot   -0.599
        30           h29bf         1   UNL       h29        30     0.14428        1.0080 ; qtot   -0.454
        31           h30bf         1   UNL       h30        31     0.14635        1.0080 ; qtot   -0.308
        32           h31bf         1   UNL       h31        32     0.13705        1.0080 ; qtot   -0.171
        33           h32bf         1   UNL       h32        33     0.02896        1.0080 ; qtot   -0.142
        34           h33bf         1   UNL       h33        34     0.03933        1.0080 ; qtot   -0.103
        35           h34bf         1   UNL       h34        35     0.15707        1.0080 ; qtot    0.054
        36           h35bf         1   UNL       h35        36     0.14653        1.0080 ; qtot    0.201
        37           h36bf         1   UNL       h36        37     0.11275        1.0080 ; qtot    0.314
        38           h37bf         1   UNL       h37        38     0.08766        1.0080 ; qtot    0.401
        39           h38bf         1   UNL       h38        39     0.08766        1.0080 ; qtot    0.489
        40           h39bf         1   UNL       h39        40     0.08766        1.0080 ; qtot    0.577
        41           h40bf         1   UNL       h40        41     0.08766        1.0080 ; qtot    0.664
        42           h41bf         1   UNL       h41        42     0.33563        1.0080 ; qtot    1.000

[ bonds ]
;       ai        aj funct               r               k
         1         2     1        0.146656   261100.676221    ;  uncertainty r = 0.000124, k = 11.833566
         1        25     1        0.109173   309392.626904    ;  uncertainty r = 0.000044, k = 3.074427
         1        26     1        0.109173   309392.626904    ;  uncertainty r = 0.000044, k = 3.074427
         1        27     1        0.109173   309392.626904    ;  uncertainty r = 0.000044, k = 3.074427
         2         3     1        0.135503   283548.050732    ;  uncertainty r = 0.000225, k = 42.568952
         2        23     1        0.142785   299314.049170    ;  uncertainty r = 0.000374, k = 69.452427
         3         4     1        0.133098   316435.557373    ;  uncertainty r = 0.000215, k = 41.951408
         3         5     1        0.133481   527501.221973    ;  uncertainty r = 0.000076, k = 54.235097
         4        28     1        0.101395   420938.337598    ;  uncertainty r = 0.000072, k = 12.186656
         4        42     1        0.101395   420938.388672    ;  uncertainty r = 0.000072, k = 12.186639
         5         6     1        0.149852   225534.965234    ;  uncertainty r = 0.000257, k = 72.040404
         5        29     1        0.101512   426891.191016    ;  uncertainty r = 0.000059, k = 5.031882
         6         7     1        0.150890   206477.067407    ;  uncertainty r = 0.000131, k = 15.740387
         6        20     1        0.151162   204155.935693    ;  uncertainty r = 0.000209, k = 15.151137
         6        23     1        0.153376   180115.581836    ;  uncertainty r = 0.000390, k = 26.443674
         7         8     1        0.139716   351668.009082    ;  uncertainty r = 0.000036, k = 6.008971
         7        19     1        0.139493   344820.309814    ;  uncertainty r = 0.000039, k = 8.051553
         8         9     1        0.139473   369549.501660    ;  uncertainty r = 0.000015, k = 1.353426
         8        30     1        0.108792   333228.173145    ;  uncertainty r = 0.000023, k = 2.570379
         9        10     1        0.139318   370848.753174    ;  uncertainty r = 0.000027, k = 2.020882
         9        31     1        0.108773   333044.357031    ;  uncertainty r = 0.000024, k = 1.073341
        10        11     1        0.140113   349225.410107    ;  uncertainty r = 0.000024, k = 2.671861
        10        32     1        0.108829   334964.696582    ;  uncertainty r = 0.000027, k = 0.785423
        11        12     1        0.147747   271983.826123    ;  uncertainty r = 0.000040, k = 2.464512
        11        19     1        0.139841   339969.535889    ;  uncertainty r = 0.000071, k = 2.323543
        12        13     1        0.140335   330695.223877    ;  uncertainty r = 0.000055, k = 5.735296
        12        18     1        0.139808   363910.422705    ;  uncertainty r = 0.000053, k = 4.272819
        13        14     1        0.133513   391056.165674    ;  uncertainty r = 0.000047, k = 4.009811
        13        33     1        0.109016   336117.467236    ;  uncertainty r = 0.000021, k = 2.598290
        14        15     1        0.133449   403869.257080    ;  uncertainty r = 0.000042, k = 5.202930
        15        16     1        0.139604   341173.891504    ;  uncertainty r = 0.000017, k = 8.338518
        15        34     1        0.108982   339187.589600    ;  uncertainty r = 0.000035, k = 2.525007
        16        17     1        0.175261   197174.396436    ;  uncertainty r = 0.000020, k = 2.912213
        16        18     1        0.139051   369738.374121    ;  uncertainty r = 0.000029, k = 2.224956
        18        35     1        0.108728   334380.790576    ;  uncertainty r = 0.000023, k = 2.151468
        19        36     1        0.108838   333785.469482    ;  uncertainty r = 0.000018, k = 2.036226
        20        21     1        0.151152   209331.465039    ;  uncertainty r = 0.000138, k = 6.033815
        20        22     1        0.151152   209331.465039    ;  uncertainty r = 0.000138, k = 6.033815
        20        37     1        0.108719   310203.481201    ;  uncertainty r = 0.000077, k = 4.480011
        21        22     1        0.150777   217596.141895    ;  uncertainty r = 0.000077, k = 4.692774
        21        38     1        0.108641   313244.057129    ;  uncertainty r = 0.000029, k = 3.059020
        21        39     1        0.108641   313244.057129    ;  uncertainty r = 0.000029, k = 3.059020
        22        40     1        0.108641   313244.057129    ;  uncertainty r = 0.000029, k = 3.059020
        22        41     1        0.108641   313244.057129    ;  uncertainty r = 0.000029, k = 3.059020
        23        24     1        0.120161   629558.236621    ;  uncertainty r = 0.000190, k = 11.702454

[ angles ]
;       ai        aj        ak funct           theta             cth
         1         2         3     1      118.614197      373.008810    ;  uncertainty theta = 0.007384, k = 0.436302
         1         2        23     1      119.198463      398.913845    ;  uncertainty theta = 0.009079, k = 0.285859
         2         1        25     1      107.393494      471.159859    ;  uncertainty theta = 0.002493, k = 0.223269
         2         1        26     1      107.393494      471.159859    ;  uncertainty theta = 0.002493, k = 0.223269
         2         1        27     1      107.393494      471.159859    ;  uncertainty theta = 0.002493, k = 0.223269
         2         3         4     1      125.894386      534.489050    ;  uncertainty theta = 0.010836, k = 0.297060
         2         3         5     1      113.162216      705.430278    ;  uncertainty theta = 0.009464, k = 0.270720
         2        23         6     1      109.881653      478.461302    ;  uncertainty theta = 0.004913, k = 0.638722
         2        23        24     1      125.231102      649.265684    ;  uncertainty theta = 0.010191, k = 0.111305
         3         2        23     1      110.403458      715.219163    ;  uncertainty theta = 0.010415, k = 0.265126
         3         4        28     1      114.818565      368.234583    ;  uncertainty theta = 0.004127, k = 0.182930
         3         4        42     1      114.818565      368.234583    ;  uncertainty theta = 0.004127, k = 0.182930
         3         5         6     1      111.925354      603.092930    ;  uncertainty theta = 0.017251, k = 0.409410
         3         5        29     1      119.250549      354.164625    ;  uncertainty theta = 0.008486, k = 0.158432
         4         3         5     1      128.705078      646.711143    ;  uncertainty theta = 0.008044, k = 0.328473
         5         6         7     1      110.559860      619.554406    ;  uncertainty theta = 0.004317, k = 0.200006
         5         6        20     1      110.212158      624.961187    ;  uncertainty theta = 0.003788, k = 0.136123
         5         6        23     1      102.739685      943.303664    ;  uncertainty theta = 0.008074, k = 0.565002
         6         5        29     1      117.676224      299.217704    ;  uncertainty theta = 0.008967, k = 0.364637
         6         7         8     1      117.054367      373.464998    ;  uncertainty theta = 0.006930, k = 0.229722
         6         7        19     1      116.524132      376.094522    ;  uncertainty theta = 0.006500, k = 0.184768
         6        20        21     1      112.597801      318.680365    ;  uncertainty theta = 0.010889, k = 0.113929
         6        20        22     1      112.597801      318.680365    ;  uncertainty theta = 0.010889, k = 0.113929
         6        20        37     1      112.493546      265.775375    ;  uncertainty theta = 0.006435, k = 0.172590
         6        23        24     1      125.898621      417.809007    ;  uncertainty theta = 0.008673, k = 0.151128
         7         6        20     1      112.572487      532.892725    ;  uncertainty theta = 0.006618, k = 0.274850
         7         6        23     1      109.418724      482.975529    ;  uncertainty theta = 0.008208, k = 0.137213
         7         8         9     1      120.327286      515.387068    ;  uncertainty theta = 0.004364, k = 0.037328
         7         8        30     1      118.569664      271.156092    ;  uncertainty theta = 0.003481, k = 0.042646
         7        19        11     1      122.373756      516.701464    ;  uncertainty theta = 0.002901, k = 0.179130
         7        19        36     1      118.203896      271.918183    ;  uncertainty theta = 0.003337, k = 0.070604
         8         7        19     1      123.165138      435.334168    ;  uncertainty theta = 0.006601, k = 0.143023
         8         9        10     1      120.327454      510.960594    ;  uncertainty theta = 0.002446, k = 0.080636
         8         9        31     1      119.840698      282.071674    ;  uncertainty theta = 0.001962, k = 0.039638
         9         8        30     1      120.276512      299.592748    ;  uncertainty theta = 0.003027, k = 0.031167
         9        10        11     1      119.796066      532.591834    ;  uncertainty theta = 0.002415, k = 0.084902
         9        10        32     1      120.250809      294.370346    ;  uncertainty theta = 0.001086, k = 0.018858
        10         9        31     1      120.348373      284.404042    ;  uncertainty theta = 0.000706, k = 0.050356
        10        11        12     1      120.989464      410.497446    ;  uncertainty theta = 0.002463, k = 0.146434
        10        11        19     1      120.386620      405.308912    ;  uncertainty theta = 0.004085, k = 0.235865
        11        10        32     1      118.808083      279.313283    ;  uncertainty theta = 0.000899, k = 0.083619
        11        12        13     1      121.080444      396.537776    ;  uncertainty theta = 0.003512, k = 0.077335
        11        12        18     1      121.578331      408.188572    ;  uncertainty theta = 0.003064, k = 0.079049
        11        19        36     1      118.664330      282.791310    ;  uncertainty theta = 0.001833, k = 0.053303
        12        11        19     1      120.053909      417.617064    ;  uncertainty theta = 0.002426, k = 0.143619
        12        13        14     1      124.538353      711.800829    ;  uncertainty theta = 0.002214, k = 0.095126
        12        13        33     1      119.193726      263.758598    ;  uncertainty theta = 0.002862, k = 0.075143
        12        18        16     1      118.335327      526.457214    ;  uncertainty theta = 0.002428, k = 0.170691
        12        18        35     1      120.422379      271.668079    ;  uncertainty theta = 0.001408, k = 0.064764
        13        12        18     1      118.304947      396.693457    ;  uncertainty theta = 0.002712, k = 0.140503
        13        14        15     1      118.494705      392.711424    ;  uncertainty theta = 0.002631, k = 0.080999
        14        13        33     1      116.386581      344.571898    ;  uncertainty theta = 0.001559, k = 0.077090
        14        15        16     1      121.982666      671.674178    ;  uncertainty theta = 0.001124, k = 0.137343
        14        15        34     1      117.315758      333.683098    ;  uncertainty theta = 0.001632, k = 0.094262
        15        16        17     1      120.282921      414.589799    ;  uncertainty theta = 0.001473, k = 0.185272
        15        16        18     1      120.073196      333.308277    ;  uncertainty theta = 0.001954, k = 0.163779
        16        15        34     1      120.932335      274.929774    ;  uncertainty theta = 0.002059, k = 0.050315
        16        18        35     1      121.180496      287.034620    ;  uncertainty theta = 0.001917, k = 0.109793
        17        16        18     1      121.153748      432.219343    ;  uncertainty theta = 0.000745, k = 0.113766
        20         6        23     1      107.883629      486.446341    ;  uncertainty theta = 0.005882, k = 0.311861
        20        21        22     1       59.234901      167.360000    ;  uncertainty theta = 0.035765, k = 0.000000
        20        21        38     1      109.220169      219.322304    ;  uncertainty theta = 0.004633, k = 0.103843
        20        21        39     1      109.220169      219.322304    ;  uncertainty theta = 0.004633, k = 0.103843
        20        22        21     1       59.234901      167.360000    ;  uncertainty theta = 0.035765, k = 0.000000
        20        22        40     1      109.220169      219.322304    ;  uncertainty theta = 0.004633, k = 0.103843
        20        22        41     1      109.220169      219.322320    ;  uncertainty theta = 0.004633, k = 0.103843
        21        20        22     1       60.483154      167.360000    ;  uncertainty theta = 0.027862, k = 0.000000
        21        20        37     1      109.113136      190.376293    ;  uncertainty theta = 0.005107, k = 0.517014
        21        22        40     1      109.860123      223.014140    ;  uncertainty theta = 0.003076, k = 0.167687
        21        22        41     1      109.860123      223.014140    ;  uncertainty theta = 0.003076, k = 0.167687
        22        20        37     1      109.113136      190.376293    ;  uncertainty theta = 0.005107, k = 0.517014
        22        21        38     1      109.860123      223.014140    ;  uncertainty theta = 0.003076, k = 0.167687
        22        21        39     1      109.860123      223.014140    ;  uncertainty theta = 0.003076, k = 0.167687
        25         1        26     1      107.626610      325.638365    ;  uncertainty theta = 0.003338, k = 0.102136
        25         1        27     1      107.626610      325.638365    ;  uncertainty theta = 0.003338, k = 0.102136
        26         1        27     1      107.626610      325.638365    ;  uncertainty theta = 0.003338, k = 0.102136
        28         4        42     1      112.405212      264.736094    ;  uncertainty theta = 0.015790, k = 0.355763
        38        21        39     1      113.833054      202.191516    ;  uncertainty theta = 0.004153, k = 0.109118
        40        22        41     1      113.833054      202.191500    ;  uncertainty theta = 0.004153, k = 0.109118

[ dihedrals ] ; propers for gromacs 4.5 or higher, use funct 9
;       ai        aj        ak        al funct           phase               k        pn
         1         2         3         4     9        0.000000        0.040730         1    ;  uncertainty k = 0.688649
         1         2         3         4     9      180.000000        6.849008         2    ;  uncertainty k = 0.670728
         1         2         3         4     9        0.000000        0.944278         3    ;  uncertainty k = 0.712078
         1         2         3         4     9      180.000000       -0.000087         4    ;  uncertainty k = 0.304515
         1         2         3         5     9        0.000000       -0.354626         1    ;  uncertainty k = 2.503219
         1         2         3         5     9      180.000000        8.005338         2    ;  uncertainty k = 0.438807
         1         2         3         5     9        0.000000        0.243129         3    ;  uncertainty k = 0.218200
         1         2         3         5     9      180.000000       -0.112594         4    ;  uncertainty k = 0.236888
         1         2        23         6     9        0.000000        4.631724         1    ;  uncertainty k = 2.736873
         1         2        23         6     9      180.000000        4.943812         2    ;  uncertainty k = 1.192431
         1         2        23         6     9        0.000000        1.375168         3    ;  uncertainty k = 0.809668
         1         2        23         6     9      180.000000        0.130252         4    ;  uncertainty k = 0.431012
         1         2        23        24     9        0.000000       -0.538000         1    ;  uncertainty k = 3.055171
         1         2        23        24     9      180.000000        8.216315         2    ;  uncertainty k = 0.440596
         1         2        23        24     9        0.000000        0.583622         3    ;  uncertainty k = 0.511355
         1         2        23        24     9      180.000000        0.214039         4    ;  uncertainty k = 0.224806
         2         3         4        28     9        0.000000        7.494610         1    ;  uncertainty k = 1.970887
         2         3         4        28     9      180.000000        9.421077         2    ;  uncertainty k = 0.641277
         2         3         4        28     9        0.000000        0.993965         3    ;  uncertainty k = 0.510398
         2         3         4        28     9      180.000000       -0.952354         4    ;  uncertainty k = 0.236678
         2         3         4        42     9        0.000000        7.494611         1    ;  uncertainty k = 1.970888
         2         3         4        42     9      180.000000        9.421076         2    ;  uncertainty k = 0.641278
         2         3         4        42     9        0.000000        0.993966         3    ;  uncertainty k = 0.510398
         2         3         4        42     9      180.000000       -0.952354         4    ;  uncertainty k = 0.236677
         2         3         5         6     9        0.000000        1.156212         1    ;  uncertainty k = 1.563052
         2         3         5         6     9      180.000000       15.550317         2    ;  uncertainty k = 0.323938
         2         3         5         6     9        0.000000       -0.236119         3    ;  uncertainty k = 1.036179
         2         3         5         6     9      180.000000       -0.543250         4    ;  uncertainty k = 0.194759
         2         3         5        29     9        0.000000        4.329567         1    ;  uncertainty k = 3.158575
         2         3         5        29     9      180.000000       10.930589         2    ;  uncertainty k = 0.637835
         2         3         5        29     9        0.000000        1.064632         3    ;  uncertainty k = 0.709812
         2         3         5        29     9      180.000000       -0.447108         4    ;  uncertainty k = 0.165905
         2        23         6         5     9        0.000000       -0.033182         1    ;  uncertainty k = 2.595996
         2        23         6         5     9      180.000000        6.806056         2    ;  uncertainty k = 0.896168
         2        23         6         5     9        0.000000        0.460426         3    ;  uncertainty k = 0.494179
         2        23         6         5     9      180.000000        0.257600         4    ;  uncertainty k = 0.622849
         2        23         6         7     9        0.000000       -2.355933         1    ;  uncertainty k = 3.263348
         2        23         6         7     9      180.000000        1.763973         2    ;  uncertainty k = 1.188759
         2        23         6         7     9        0.000000        1.153714         3    ;  uncertainty k = 0.534681
         2        23         6         7     9      180.000000        0.793154         4    ;  uncertainty k = 0.307447
         2        23         6        20     9        0.000000       -4.710268         1    ;  uncertainty k = 2.423675
         2        23         6        20     9      180.000000        2.533546         2    ;  uncertainty k = 1.083367
         2        23         6        20     9        0.000000        0.891935         3    ;  uncertainty k = 0.220453
         2        23         6        20     9      180.000000        0.485228         4    ;  uncertainty k = 0.244815
         3         2         1        25     9        0.000000       -0.383531         1    ;  uncertainty k = 0.528522
         3         2         1        25     9      180.000000       -1.086035         2    ;  uncertainty k = 0.435212
         3         2         1        25     9        0.000000        0.451587         3    ;  uncertainty k = 0.207353
         3         2         1        25     9      180.000000        0.189958         4    ;  uncertainty k = 0.051650
         3         2         1        26     9        0.000000       -0.383531         1    ;  uncertainty k = 0.528522
         3         2         1        26     9      180.000000       -1.086035         2    ;  uncertainty k = 0.435212
         3         2         1        26     9        0.000000        0.451587         3    ;  uncertainty k = 0.207353
         3         2         1        26     9      180.000000        0.189958         4    ;  uncertainty k = 0.051650
         3         2         1        27     9        0.000000       -0.383531         1    ;  uncertainty k = 0.528522
         3         2         1        27     9      180.000000       -1.086035         2    ;  uncertainty k = 0.435212
         3         2         1        27     9        0.000000        0.451587         3    ;  uncertainty k = 0.207353
         3         2         1        27     9      180.000000        0.189958         4    ;  uncertainty k = 0.051650
         3         2        23         6     9        0.000000        2.808969         1    ;  uncertainty k = 1.846766
         3         2        23         6     9      180.000000        3.300356         2    ;  uncertainty k = 1.050342
         3         2        23         6     9        0.000000       -0.308802         3    ;  uncertainty k = 0.814077
         3         2        23         6     9      180.000000        0.768890         4    ;  uncertainty k = 0.231649
         3         2        23        24     9        0.000000        0.409972         1    ;  uncertainty k = 2.537848
         3         2        23        24     9      180.000000        7.689628         2    ;  uncertainty k = 0.719308
         3         2        23        24     9        0.000000        0.468453         3    ;  uncertainty k = 0.500936
         3         2        23        24     9      180.000000        0.049724         4    ;  uncertainty k = 0.270589
         3         5         6         7     9        0.000000       -0.314553         1    ;  uncertainty k = 0.899073
         3         5         6         7     9      180.000000        1.056101         2    ;  uncertainty k = 0.497724
         3         5         6         7     9        0.000000        0.714234         3    ;  uncertainty k = 0.291353
         3         5         6         7     9      180.000000        0.470012         4    ;  uncertainty k = 0.235436
         3         5         6        20     9        0.000000       -1.509216         1    ;  uncertainty k = 1.634998
         3         5         6        20     9      180.000000        1.373881         2    ;  uncertainty k = 0.587006
         3         5         6        20     9        0.000000        0.711480         3    ;  uncertainty k = 0.293320
         3         5         6        20     9      180.000000        0.343775         4    ;  uncertainty k = 0.070193
         3         5         6        23     9        0.000000        1.477251         1    ;  uncertainty k = 0.971542
         3         5         6        23     9      180.000000        2.266688         2    ;  uncertainty k = 1.057271
         3         5         6        23     9        0.000000        0.080075         3    ;  uncertainty k = 0.653200
         3         5         6        23     9      180.000000        0.483153         4    ;  uncertainty k = 0.366092
         4         3         2        23     9        0.000000       -0.587142         1    ;  uncertainty k = 0.741509
         4         3         2        23     9      180.000000        6.753547         2    ;  uncertainty k = 1.232536
         4         3         2        23     9        0.000000        0.172561         3    ;  uncertainty k = 0.701804
         4         3         2        23     9      180.000000       -0.071451         4    ;  uncertainty k = 0.465546
         4         3         5         6     9        0.000000        2.305647         1    ;  uncertainty k = 1.493470
         4         3         5         6     9      180.000000       10.718593         2    ;  uncertainty k = 0.864635
         4         3         5         6     9        0.000000        0.411368         3    ;  uncertainty k = 0.519112
         4         3         5         6     9      180.000000       -0.407368         4    ;  uncertainty k = 0.569375
         4         3         5        29     9        0.000000        2.437604         1    ;  uncertainty k = 2.546327
         4         3         5        29     9      180.000000        7.841870         2    ;  uncertainty k = 1.085212
         4         3         5        29     9        0.000000        0.964729         3    ;  uncertainty k = 0.183571
         4         3         5        29     9      180.000000       -0.274989         4    ;  uncertainty k = 0.266490
         5         3         2        23     9        0.000000       -0.138602         1    ;  uncertainty k = 1.579124
         5         3         2        23     9      180.000000        8.478539         2    ;  uncertainty k = 0.785688
         5         3         2        23     9        0.000000       -1.181184         3    ;  uncertainty k = 1.175418
         5         3         2        23     9      180.000000        0.015101         4    ;  uncertainty k = 0.452114
         5         3         4        28     9        0.000000        5.946409         1    ;  uncertainty k = 1.199837
         5         3         4        28     9      180.000000       10.275180         2    ;  uncertainty k = 0.360751
         5         3         4        28     9        0.000000        1.447706         3    ;  uncertainty k = 0.437250
         5         3         4        28     9      180.000000       -0.754945         4    ;  uncertainty k = 0.301542
         5         3         4        42     9        0.000000        5.946409         1    ;  uncertainty k = 1.199837
         5         3         4        42     9      180.000000       10.275183         2    ;  uncertainty k = 0.360751
         5         3         4        42     9        0.000000        1.447707         3    ;  uncertainty k = 0.437249
         5         3         4        42     9      180.000000       -0.754945         4    ;  uncertainty k = 0.301542
         5         6         7         8     9        0.000000       -0.699230         1    ;  uncertainty k = 1.279314
         5         6         7         8     9      180.000000        2.708192         2    ;  uncertainty k = 0.421288
         5         6         7         8     9        0.000000        0.567686         3    ;  uncertainty k = 0.157429
         5         6         7         8     9      180.000000        0.364861         4    ;  uncertainty k = 0.105795
         5         6         7        19     9        0.000000       -0.462483         1    ;  uncertainty k = 1.285334
         5         6         7        19     9      180.000000        2.716522         2    ;  uncertainty k = 0.503961
         5         6         7        19     9        0.000000        0.511918         3    ;  uncertainty k = 0.127510
         5         6         7        19     9      180.000000        0.366708         4    ;  uncertainty k = 0.116715
         5         6        20        21     9        0.000000       -0.552905         1    ;  uncertainty k = 0.547483
         5         6        20        21     9      180.000000       -0.565669         2    ;  uncertainty k = 0.361203
         5         6        20        21     9        0.000000        1.437082         3    ;  uncertainty k = 0.356688
         5         6        20        21     9      180.000000        0.070806         4    ;  uncertainty k = 0.152706
         5         6        20        22     9        0.000000       -0.552905         1    ;  uncertainty k = 0.547483
         5         6        20        22     9      180.000000       -0.565669         2    ;  uncertainty k = 0.361203
         5         6        20        22     9        0.000000        1.437082         3    ;  uncertainty k = 0.356688
         5         6        20        22     9      180.000000        0.070806         4    ;  uncertainty k = 0.152706
         5         6        20        37     9        0.000000       -0.897307         1    ;  uncertainty k = 1.542189
         5         6        20        37     9      180.000000       -0.401230         2    ;  uncertainty k = 0.868617
         5         6        20        37     9        0.000000        1.105592         3    ;  uncertainty k = 0.163286
         5         6        20        37     9      180.000000       -0.134804         4    ;  uncertainty k = 0.174724
         5         6        23        24     9        0.000000       -0.743216         1    ;  uncertainty k = 2.633387
         5         6        23        24     9      180.000000        2.412786         2    ;  uncertainty k = 1.265515
         5         6        23        24     9        0.000000        0.325438         3    ;  uncertainty k = 0.532331
         5         6        23        24     9      180.000000        0.468369         4    ;  uncertainty k = 0.080497
         6         7         8         9     9        0.000000        0.053176         1    ;  uncertainty k = 0.363887
         6         7         8         9     9      180.000000        8.749176         2    ;  uncertainty k = 0.377211
         6         7         8         9     9        0.000000        1.391988         3    ;  uncertainty k = 0.437491
         6         7         8         9     9      180.000000        1.885878         4    ;  uncertainty k = 0.185664
         6         7         8        30     9        0.000000       -0.463183         1    ;  uncertainty k = 0.271774
         6         7         8        30     9      180.000000        7.054817         2    ;  uncertainty k = 0.400628
         6         7         8        30     9        0.000000        0.651904         3    ;  uncertainty k = 0.322985
         6         7         8        30     9      180.000000        1.061026         4    ;  uncertainty k = 0.224002
         6         7        19        11     9        0.000000        0.087570         1    ;  uncertainty k = 0.210010
         6         7        19        11     9      180.000000        8.471432         2    ;  uncertainty k = 0.282807
         6         7        19        11     9        0.000000        1.346685         3    ;  uncertainty k = 0.266727
         6         7        19        11     9      180.000000        1.873750         4    ;  uncertainty k = 0.127277
         6         7        19        36     9        0.000000       -0.394453         1    ;  uncertainty k = 0.247379
         6         7        19        36     9      180.000000        7.158007         2    ;  uncertainty k = 0.418519
         6         7        19        36     9        0.000000        0.595502         3    ;  uncertainty k = 0.398704
         6         7        19        36     9      180.000000        1.113652         4    ;  uncertainty k = 0.239198
         6        20        21        22     9        0.000000       55.691284         1    ;  uncertainty k = 0.394240
         6        20        21        22     9      180.000000       -5.882495         2    ;  uncertainty k = 1.567146
         6        20        21        22     9        0.000000       -9.247568         3    ;  uncertainty k = 0.879306
         6        20        21        22     9      180.000000        6.395578         4    ;  uncertainty k = 0.338963
         6        20        21        38     9        0.000000        0.527764         1    ;  uncertainty k = 2.763918
         6        20        21        38     9      180.000000       -2.372611         2    ;  uncertainty k = 0.936023
         6        20        21        38     9        0.000000        0.376113         3    ;  uncertainty k = 0.345732
         6        20        21        38     9      180.000000       -0.938628         4    ;  uncertainty k = 0.210435
         6        20        21        39     9        0.000000        0.527764         1    ;  uncertainty k = 2.763918
         6        20        21        39     9      180.000000       -2.372611         2    ;  uncertainty k = 0.936023
         6        20        21        39     9        0.000000        0.376113         3    ;  uncertainty k = 0.345732
         6        20        21        39     9      180.000000       -0.938628         4    ;  uncertainty k = 0.210435
         6        20        22        21     9        0.000000       55.691284         1    ;  uncertainty k = 0.394240
         6        20        22        21     9      180.000000       -5.882495         2    ;  uncertainty k = 1.567146
         6        20        22        21     9        0.000000       -9.247568         3    ;  uncertainty k = 0.879306
         6        20        22        21     9      180.000000        6.395578         4    ;  uncertainty k = 0.338963
         6        20        22        40     9        0.000000        0.527764         1    ;  uncertainty k = 2.763918
         6        20        22        40     9      180.000000       -2.372611         2    ;  uncertainty k = 0.936023
         6        20        22        40     9        0.000000        0.376113         3    ;  uncertainty k = 0.345732
         6        20        22        40     9      180.000000       -0.938628         4    ;  uncertainty k = 0.210435
         6        20        22        41     9        0.000000        0.527764         1    ;  uncertainty k = 2.763918
         6        20        22        41     9      180.000000       -2.372611         2    ;  uncertainty k = 0.936023
         6        20        22        41     9        0.000000        0.376113         3    ;  uncertainty k = 0.345732
         6        20        22        41     9      180.000000       -0.938628         4    ;  uncertainty k = 0.210435
         7         6         5        29     9        0.000000        2.855322         1    ;  uncertainty k = 1.115834
         7         6         5        29     9      180.000000        0.428240         2    ;  uncertainty k = 0.917922
         7         6         5        29     9        0.000000        0.644842         3    ;  uncertainty k = 0.382449
         7         6         5        29     9      180.000000        0.075470         4    ;  uncertainty k = 0.107682
         7         6        20        21     9        0.000000        0.124130         1    ;  uncertainty k = 0.346668
         7         6        20        21     9      180.000000        0.919913         2    ;  uncertainty k = 0.325644
         7         6        20        21     9        0.000000        0.930500         3    ;  uncertainty k = 0.096209
         7         6        20        21     9      180.000000        0.154807         4    ;  uncertainty k = 0.118047
         7         6        20        22     9        0.000000        0.124130         1    ;  uncertainty k = 0.346668
         7         6        20        22     9      180.000000        0.919913         2    ;  uncertainty k = 0.325644
         7         6        20        22     9        0.000000        0.930500         3    ;  uncertainty k = 0.096209
         7         6        20        22     9      180.000000        0.154807         4    ;  uncertainty k = 0.118047
         7         6        20        37     9        0.000000       -0.184079         1    ;  uncertainty k = 0.869604
         7         6        20        37     9      180.000000        0.980166         2    ;  uncertainty k = 0.351883
         7         6        20        37     9        0.000000        1.262444         3    ;  uncertainty k = 0.214708
         7         6        20        37     9      180.000000        0.093459         4    ;  uncertainty k = 0.104839
         7         6        23        24     9        0.000000       -0.220821         1    ;  uncertainty k = 1.403176
         7         6        23        24     9      180.000000        3.458790         2    ;  uncertainty k = 0.428271
         7         6        23        24     9        0.000000        0.458758         3    ;  uncertainty k = 0.238474
         7         6        23        24     9      180.000000        0.076056         4    ;  uncertainty k = 0.219098
         7         8         9        10     9        0.000000       -0.023666         1    ;  uncertainty k = 0.193559
         7         8         9        10     9      180.000000       13.182194         2    ;  uncertainty k = 0.274288
         7         8         9        10     9        0.000000       -0.877258         3    ;  uncertainty k = 0.549226
         7         8         9        10     9      180.000000        0.785750         4    ;  uncertainty k = 0.209022
         7         8         9        31     9        0.000000        0.117965         1    ;  uncertainty k = 0.337797
         7         8         9        31     9      180.000000        7.343878         2    ;  uncertainty k = 0.284805
         7         8         9        31     9        0.000000        1.465143         3    ;  uncertainty k = 0.153606
         7         8         9        31     9      180.000000        1.829819         4    ;  uncertainty k = 0.156327
         7        19        11        10     9        0.000000        0.107535         1    ;  uncertainty k = 0.267062
         7        19        11        10     9      180.000000       10.094690         2    ;  uncertainty k = 0.314295
         7        19        11        10     9        0.000000       -0.145428         3    ;  uncertainty k = 0.292094
         7        19        11        10     9      180.000000        1.084349         4    ;  uncertainty k = 0.283340
         7        19        11        12     9        0.000000        0.263118         1    ;  uncertainty k = 0.089615
         7        19        11        12     9      180.000000        8.524856         2    ;  uncertainty k = 0.382504
         7        19        11        12     9        0.000000        1.249938         3    ;  uncertainty k = 0.373556
         7        19        11        12     9      180.000000        1.704704         4    ;  uncertainty k = 0.061686
         8         7         6        20     9        0.000000       -0.343216         1    ;  uncertainty k = 0.834007
         8         7         6        20     9      180.000000        2.474860         2    ;  uncertainty k = 0.084668
         8         7         6        20     9        0.000000        0.269819         3    ;  uncertainty k = 0.246953
         8         7         6        20     9      180.000000        0.270689         4    ;  uncertainty k = 0.042204
         8         7         6        23     9        0.000000        0.361939         1    ;  uncertainty k = 1.306954
         8         7         6        23     9      180.000000        1.033462         2    ;  uncertainty k = 0.267264
         8         7         6        23     9        0.000000        0.431794         3    ;  uncertainty k = 0.174944
         8         7         6        23     9      180.000000        0.282854         4    ;  uncertainty k = 0.174149
         8         7        19        11     9        0.000000       -0.305817         1    ;  uncertainty k = 0.378943
         8         7        19        11     9      180.000000       11.514670         2    ;  uncertainty k = 0.145422
         8         7        19        11     9        0.000000       -0.219645         3    ;  uncertainty k = 0.288673
         8         7        19        11     9      180.000000        0.951701         4    ;  uncertainty k = 0.255983
         8         7        19        36     9        0.000000        0.212920         1    ;  uncertainty k = 0.067098
         8         7        19        36     9      180.000000        7.776097         2    ;  uncertainty k = 0.484697
         8         7        19        36     9        0.000000        1.354101         3    ;  uncertainty k = 0.380604
         8         7        19        36     9      180.000000        1.681009         4    ;  uncertainty k = 0.204533
         8         9        10        11     9        0.000000       -0.081895         1    ;  uncertainty k = 0.255106
         8         9        10        11     9      180.000000       13.988809         2    ;  uncertainty k = 0.222872
         8         9        10        11     9        0.000000       -0.833720         3    ;  uncertainty k = 0.501392
         8         9        10        11     9      180.000000        0.699317         4    ;  uncertainty k = 0.250330
         8         9        10        32     9        0.000000        0.070628         1    ;  uncertainty k = 0.076364
         8         9        10        32     9      180.000000        7.708402         2    ;  uncertainty k = 0.246029
         8         9        10        32     9        0.000000        1.456289         3    ;  uncertainty k = 0.228039
         8         9        10        32     9      180.000000        1.826304         4    ;  uncertainty k = 0.220310
         9         8         7        19     9        0.000000       -0.254154         1    ;  uncertainty k = 0.241610
         9         8         7        19     9      180.000000       11.999556         2    ;  uncertainty k = 0.363799
         9         8         7        19     9        0.000000       -0.565308         3    ;  uncertainty k = 0.162798
         9         8         7        19     9      180.000000        0.833724         4    ;  uncertainty k = 0.272521
         9        10        11        12     9        0.000000       -0.057284         1    ;  uncertainty k = 0.183992
         9        10        11        12     9      180.000000        8.921068         2    ;  uncertainty k = 0.542929
         9        10        11        12     9        0.000000        1.166959         3    ;  uncertainty k = 0.412876
         9        10        11        12     9      180.000000        1.722916         4    ;  uncertainty k = 0.200994
         9        10        11        19     9        0.000000        0.069378         1    ;  uncertainty k = 0.096438
         9        10        11        19     9      180.000000       11.264045         2    ;  uncertainty k = 0.252088
         9        10        11        19     9        0.000000       -0.484698         3    ;  uncertainty k = 0.326323
         9        10        11        19     9      180.000000        0.895908         4    ;  uncertainty k = 0.267751
        10         9         8        30     9        0.000000        0.043717         1    ;  uncertainty k = 0.124640
        10         9         8        30     9      180.000000        7.717292         2    ;  uncertainty k = 0.341608
        10         9         8        30     9        0.000000        1.388023         3    ;  uncertainty k = 0.233633
        10         9         8        30     9      180.000000        1.825533         4    ;  uncertainty k = 0.105979
        10        11        12        13     9        0.000000       -0.230810         1    ;  uncertainty k = 0.771877
        10        11        12        13     9      180.000000        3.322044         2    ;  uncertainty k = 0.051406
        10        11        12        13     9        0.000000        0.343235         3    ;  uncertainty k = 0.234979
        10        11        12        13     9      180.000000       -0.176378         4    ;  uncertainty k = 0.070540
        10        11        12        18     9        0.000000       -0.442950         1    ;  uncertainty k = 0.409349
        10        11        12        18     9      180.000000        3.654597         2    ;  uncertainty k = 0.122071
        10        11        12        18     9        0.000000        0.305411         3    ;  uncertainty k = 0.160204
        10        11        12        18     9      180.000000       -0.118824         4    ;  uncertainty k = 0.063186
        10        11        19        36     9        0.000000        0.063647         1    ;  uncertainty k = 0.167443
        10        11        19        36     9      180.000000        7.220891         2    ;  uncertainty k = 0.671853
        10        11        19        36     9        0.000000        1.421521         3    ;  uncertainty k = 0.158087
        10        11        19        36     9      180.000000        1.635596         4    ;  uncertainty k = 0.237093
        11        10         9        31     9        0.000000        0.016038         1    ;  uncertainty k = 0.215604
        11        10         9        31     9      180.000000        7.680837         2    ;  uncertainty k = 0.312280
        11        10         9        31     9        0.000000        1.364853         3    ;  uncertainty k = 0.241062
        11        10         9        31     9      180.000000        1.832200         4    ;  uncertainty k = 0.177285
        11        12        13        14     9        0.000000        0.098105         1    ;  uncertainty k = 0.227412
        11        12        13        14     9      180.000000        9.485230         2    ;  uncertainty k = 0.222639
        11        12        13        14     9        0.000000        1.036859         3    ;  uncertainty k = 0.281161
        11        12        13        14     9      180.000000        1.729395         4    ;  uncertainty k = 0.173986
        11        12        13        33     9        0.000000       -0.469481         1    ;  uncertainty k = 0.726538
        11        12        13        33     9      180.000000        6.089163         2    ;  uncertainty k = 0.818880
        11        12        13        33     9        0.000000        0.822472         3    ;  uncertainty k = 0.181385
        11        12        13        33     9      180.000000        1.123445         4    ;  uncertainty k = 0.218277
        11        12        18        16     9        0.000000        0.159527         1    ;  uncertainty k = 0.239133
        11        12        18        16     9      180.000000        9.054810         2    ;  uncertainty k = 0.350437
        11        12        18        16     9        0.000000        1.337781         3    ;  uncertainty k = 0.292693
        11        12        18        16     9      180.000000        1.777876         4    ;  uncertainty k = 0.105775
        11        12        18        35     9        0.000000       -0.179992         1    ;  uncertainty k = 0.381157
        11        12        18        35     9      180.000000        7.128329         2    ;  uncertainty k = 0.368226
        11        12        18        35     9        0.000000        0.870202         3    ;  uncertainty k = 0.214432
        11        12        18        35     9      180.000000        1.182362         4    ;  uncertainty k = 0.196907
        12        11        10        32     9        0.000000       -0.175209         1    ;  uncertainty k = 0.262327
        12        11        10        32     9      180.000000        7.146665         2    ;  uncertainty k = 0.394966
        12        11        10        32     9        0.000000        0.896228         3    ;  uncertainty k = 0.127512
        12        11        10        32     9      180.000000        1.208172         4    ;  uncertainty k = 0.193156
        12        11        19        36     9        0.000000       -0.148296         1    ;  uncertainty k = 0.219921
        12        11        19        36     9      180.000000        7.336548         2    ;  uncertainty k = 0.251318
        12        11        19        36     9        0.000000        0.865993         3    ;  uncertainty k = 0.172323
        12        11        19        36     9      180.000000        1.273284         4    ;  uncertainty k = 0.195440
        12        13        14        15     9        0.000000       -0.498061         1    ;  uncertainty k = 0.544916
        12        13        14        15     9      180.000000       14.456141         2    ;  uncertainty k = 0.402621
        12        13        14        15     9        0.000000        0.854061         3    ;  uncertainty k = 0.722614
        12        13        14        15     9      180.000000        1.439720         4    ;  uncertainty k = 0.130973
        12        18        16        15     9        0.000000        0.035469         1    ;  uncertainty k = 0.297318
        12        18        16        15     9      180.000000        9.357357         2    ;  uncertainty k = 0.412144
        12        18        16        15     9        0.000000       -0.177894         3    ;  uncertainty k = 0.344676
        12        18        16        15     9      180.000000        1.167317         4    ;  uncertainty k = 0.344013
        12        18        16        17     9        0.000000        0.107931         1    ;  uncertainty k = 0.155262
        12        18        16        17     9      180.000000        9.678915         2    ;  uncertainty k = 0.657029
        12        18        16        17     9        0.000000        1.461880         3    ;  uncertainty k = 0.466704
        12        18        16        17     9      180.000000        1.715216         4    ;  uncertainty k = 0.164373
        13        12        11        19     9        0.000000       -0.160220         1    ;  uncertainty k = 0.660900
        13        12        11        19     9      180.000000        3.492552         2    ;  uncertainty k = 0.086652
        13        12        11        19     9        0.000000        0.366681         3    ;  uncertainty k = 0.248941
        13        12        11        19     9      180.000000       -0.133620         4    ;  uncertainty k = 0.043070
        13        12        18        16     9        0.000000        0.051305         1    ;  uncertainty k = 0.211426
        13        12        18        16     9      180.000000       10.851770         2    ;  uncertainty k = 0.279730
        13        12        18        16     9        0.000000       -0.466285         3    ;  uncertainty k = 0.355211
        13        12        18        16     9      180.000000        0.995876         4    ;  uncertainty k = 0.312900
        13        12        18        35     9        0.000000        0.027265         1    ;  uncertainty k = 0.174758
        13        12        18        35     9      180.000000        6.747257         2    ;  uncertainty k = 0.628661
        13        12        18        35     9        0.000000        1.263032         3    ;  uncertainty k = 0.191630
        13        12        18        35     9      180.000000        1.491022         4    ;  uncertainty k = 0.249731
        13        14        15        16     9        0.000000       -0.195558         1    ;  uncertainty k = 0.115637
        13        14        15        16     9      180.000000       15.650274         2    ;  uncertainty k = 0.343985
        13        14        15        16     9        0.000000        0.762373         3    ;  uncertainty k = 0.867802
        13        14        15        16     9      180.000000        1.423264         4    ;  uncertainty k = 0.208956
        13        14        15        34     9        0.000000        0.413457         1    ;  uncertainty k = 0.273538
        13        14        15        34     9      180.000000       14.729759         2    ;  uncertainty k = 0.417032
        13        14        15        34     9        0.000000        2.167356         3    ;  uncertainty k = 0.507140
        13        14        15        34     9      180.000000        1.599587         4    ;  uncertainty k = 0.348353
        14        13        12        18     9        0.000000       -0.257986         1    ;  uncertainty k = 0.314865
        14        13        12        18     9      180.000000       12.328882         2    ;  uncertainty k = 0.475362
        14        13        12        18     9        0.000000       -0.346797         3    ;  uncertainty k = 0.447560
        14        13        12        18     9      180.000000        1.092048         4    ;  uncertainty k = 0.209003
        14        15        16        17     9        0.000000       -0.028608         1    ;  uncertainty k = 0.553653
        14        15        16        17     9      180.000000        9.670962         2    ;  uncertainty k = 0.524179
        14        15        16        17     9        0.000000        1.274322         3    ;  uncertainty k = 0.095361
        14        15        16        17     9      180.000000        1.640263         4    ;  uncertainty k = 0.090350
        14        15        16        18     9        0.000000       -0.246182         1    ;  uncertainty k = 0.230884
        14        15        16        18     9      180.000000       10.604008         2    ;  uncertainty k = 0.530621
        14        15        16        18     9        0.000000       -0.390799         3    ;  uncertainty k = 0.482255
        14        15        16        18     9      180.000000        1.178532         4    ;  uncertainty k = 0.264538
        15        14        13        33     9        0.000000        0.289036         1    ;  uncertainty k = 0.220510
        15        14        13        33     9      180.000000       15.268513         2    ;  uncertainty k = 0.409055
        15        14        13        33     9        0.000000        2.246151         3    ;  uncertainty k = 0.443199
        15        14        13        33     9      180.000000        1.613693         4    ;  uncertainty k = 0.373364
        15        16        18        35     9        0.000000       -0.249462         1    ;  uncertainty k = 0.305697
        15        16        18        35     9      180.000000        5.855266         2    ;  uncertainty k = 0.592141
        15        16        18        35     9        0.000000        1.310179         3    ;  uncertainty k = 0.206789
        15        16        18        35     9      180.000000        1.497610         4    ;  uncertainty k = 0.138689
        17        16        15        34     9        0.000000        0.088007         1    ;  uncertainty k = 0.371438
        17        16        15        34     9      180.000000        6.041007         2    ;  uncertainty k = 0.299418
        17        16        15        34     9        0.000000        0.536070         3    ;  uncertainty k = 0.253176
        17        16        15        34     9      180.000000        0.855615         4    ;  uncertainty k = 0.210633
        17        16        18        35     9        0.000000       -0.261261         1    ;  uncertainty k = 0.295851
        17        16        18        35     9      180.000000        7.762845         2    ;  uncertainty k = 0.342277
        17        16        18        35     9        0.000000        0.573723         3    ;  uncertainty k = 0.295229
        17        16        18        35     9      180.000000        0.951498         4    ;  uncertainty k = 0.120023
        18        12        11        19     9        0.000000       -0.195154         1    ;  uncertainty k = 0.367979
        18        12        11        19     9      180.000000        3.907302         2    ;  uncertainty k = 0.181184
        18        12        11        19     9        0.000000        0.268484         3    ;  uncertainty k = 0.207733
        18        12        11        19     9      180.000000       -0.049641         4    ;  uncertainty k = 0.056274
        18        12        13        33     9        0.000000       -0.092109         1    ;  uncertainty k = 0.572883
        18        12        13        33     9      180.000000        5.437799         2    ;  uncertainty k = 0.669602
        18        12        13        33     9        0.000000        1.074320         3    ;  uncertainty k = 0.271566
        18        12        13        33     9      180.000000        1.402479         4    ;  uncertainty k = 0.189319
        18        16        15        34     9        0.000000       -0.431072         1    ;  uncertainty k = 0.293523
        18        16        15        34     9      180.000000        4.711220         2    ;  uncertainty k = 0.521050
        18        16        15        34     9        0.000000        1.017365         3    ;  uncertainty k = 0.193912
        18        16        15        34     9      180.000000        1.234184         4    ;  uncertainty k = 0.212590
        19         7         6        20     9        0.000000       -0.345534         1    ;  uncertainty k = 0.729809
        19         7         6        20     9      180.000000        2.470867         2    ;  uncertainty k = 0.101610
        19         7         6        20     9        0.000000        0.222580         3    ;  uncertainty k = 0.286922
        19         7         6        20     9      180.000000        0.266081         4    ;  uncertainty k = 0.064694
        19         7         6        23     9        0.000000        0.366840         1    ;  uncertainty k = 1.327337
        19         7         6        23     9      180.000000        1.027756         2    ;  uncertainty k = 0.209863
        19         7         6        23     9        0.000000        0.376879         3    ;  uncertainty k = 0.176139
        19         7         6        23     9      180.000000        0.297842         4    ;  uncertainty k = 0.170799
        19         7         8        30     9        0.000000        0.224687         1    ;  uncertainty k = 0.113060
        19         7         8        30     9      180.000000        7.595615         2    ;  uncertainty k = 0.534211
        19         7         8        30     9        0.000000        1.342578         3    ;  uncertainty k = 0.376080
        19         7         8        30     9      180.000000        1.664295         4    ;  uncertainty k = 0.223058
        19        11        10        32     9        0.000000        0.178144         1    ;  uncertainty k = 0.197998
        19        11        10        32     9      180.000000        6.970115         2    ;  uncertainty k = 0.461177
        19        11        10        32     9        0.000000        1.427127         3    ;  uncertainty k = 0.274420
        19        11        10        32     9      180.000000        1.616946         4    ;  uncertainty k = 0.250212
        20         6         5        29     9        0.000000        1.374579         1    ;  uncertainty k = 0.505482
        20         6         5        29     9      180.000000        0.095266         2    ;  uncertainty k = 1.462891
        20         6         5        29     9        0.000000        0.636442         3    ;  uncertainty k = 0.171229
        20         6         5        29     9      180.000000        0.200691         4    ;  uncertainty k = 0.082495
        20         6        23        24     9        0.000000       -1.254500         1    ;  uncertainty k = 1.170686
        20         6        23        24     9      180.000000        3.913986         2    ;  uncertainty k = 0.980993
        20         6        23        24     9        0.000000        0.126175         3    ;  uncertainty k = 0.285228
        20         6        23        24     9      180.000000        0.109298         4    ;  uncertainty k = 0.165375
        20        21        22        40     9        0.000000       41.997787         1    ;  uncertainty k = 0.538440
        20        21        22        40     9      180.000000       -5.283550         2    ;  uncertainty k = 0.594254
        20        21        22        40     9        0.000000       -9.661772         3    ;  uncertainty k = 1.020600
        20        21        22        40     9      180.000000        4.456144         4    ;  uncertainty k = 0.290762
        20        21        22        41     9        0.000000       41.997787         1    ;  uncertainty k = 0.538440
        20        21        22        41     9      180.000000       -5.283550         2    ;  uncertainty k = 0.594254
        20        21        22        41     9        0.000000       -9.661772         3    ;  uncertainty k = 1.020600
        20        21        22        41     9      180.000000        4.456144         4    ;  uncertainty k = 0.290762
        20        22        21        38     9        0.000000       41.997787         1    ;  uncertainty k = 0.538440
        20        22        21        38     9      180.000000       -5.283550         2    ;  uncertainty k = 0.594254
        20        22        21        38     9        0.000000       -9.661772         3    ;  uncertainty k = 1.020600
        20        22        21        38     9      180.000000        4.456144         4    ;  uncertainty k = 0.290762
        20        22        21        39     9        0.000000       41.997787         1    ;  uncertainty k = 0.538440
        20        22        21        39     9      180.000000       -5.283550         2    ;  uncertainty k = 0.594254
        20        22        21        39     9        0.000000       -9.661772         3    ;  uncertainty k = 1.020600
        20        22        21        39     9      180.000000        4.456144         4    ;  uncertainty k = 0.290762
        21        20         6        23     9        0.000000       -0.233084         1    ;  uncertainty k = 0.557740
        21        20         6        23     9      180.000000        0.228841         2    ;  uncertainty k = 0.476467
        21        20         6        23     9        0.000000        0.500882         3    ;  uncertainty k = 0.312867
        21        20         6        23     9      180.000000       -0.034480         4    ;  uncertainty k = 0.127418
        21        20        22        40     9        0.000000       43.224175         1    ;  uncertainty k = 0.407746
        21        20        22        40     9      180.000000       -4.588784         2    ;  uncertainty k = 1.542575
        21        20        22        40     9        0.000000      -10.120759         3    ;  uncertainty k = 0.969736
        21        20        22        40     9      180.000000        4.930650         4    ;  uncertainty k = 0.129617
        21        20        22        41     9        0.000000       43.224175         1    ;  uncertainty k = 0.407746
        21        20        22        41     9      180.000000       -4.588784         2    ;  uncertainty k = 1.542575
        21        20        22        41     9        0.000000      -10.120759         3    ;  uncertainty k = 0.969736
        21        20        22        41     9      180.000000        4.930650         4    ;  uncertainty k = 0.129617
        21        22        20        37     9        0.000000       44.612967         1    ;  uncertainty k = 0.353264
        21        22        20        37     9      180.000000       -1.996070         2    ;  uncertainty k = 1.950392
        21        22        20        37     9        0.000000      -10.253674         3    ;  uncertainty k = 1.215937
        21        22        20        37     9      180.000000        5.302241         4    ;  uncertainty k = 0.482222
        22        20         6        23     9        0.000000       -0.233084         1    ;  uncertainty k = 0.557740
        22        20         6        23     9      180.000000        0.228841         2    ;  uncertainty k = 0.476467
        22        20         6        23     9        0.000000        0.500882         3    ;  uncertainty k = 0.312867
        22        20         6        23     9      180.000000       -0.034480         4    ;  uncertainty k = 0.127418
        22        20        21        38     9        0.000000       43.224175         1    ;  uncertainty k = 0.407746
        22        20        21        38     9      180.000000       -4.588784         2    ;  uncertainty k = 1.542575
        22        20        21        38     9        0.000000      -10.120759         3    ;  uncertainty k = 0.969736
        22        20        21        38     9      180.000000        4.930650         4    ;  uncertainty k = 0.129617
        22        20        21        39     9        0.000000       43.224175         1    ;  uncertainty k = 0.407746
        22        20        21        39     9      180.000000       -4.588784         2    ;  uncertainty k = 1.542575
        22        20        21        39     9        0.000000      -10.120759         3    ;  uncertainty k = 0.969736
        22        20        21        39     9      180.000000        4.930650         4    ;  uncertainty k = 0.129617
        22        21        20        37     9        0.000000       44.612967         1    ;  uncertainty k = 0.353264
        22        21        20        37     9      180.000000       -1.996070         2    ;  uncertainty k = 1.950392
        22        21        20        37     9        0.000000      -10.253674         3    ;  uncertainty k = 1.215937
        22        21        20        37     9      180.000000        5.302241         4    ;  uncertainty k = 0.482222
        23         2         1        25     9        0.000000        0.266640         1    ;  uncertainty k = 0.441704
        23         2         1        25     9      180.000000        0.068445         2    ;  uncertainty k = 0.239612
        23         2         1        25     9        0.000000        0.368367         3    ;  uncertainty k = 0.211351
        23         2         1        25     9      180.000000        0.305973         4    ;  uncertainty k = 0.064879
        23         2         1        26     9        0.000000        0.266640         1    ;  uncertainty k = 0.441704
        23         2         1        26     9      180.000000        0.068445         2    ;  uncertainty k = 0.239612
        23         2         1        26     9        0.000000        0.368367         3    ;  uncertainty k = 0.211351
        23         2         1        26     9      180.000000        0.305973         4    ;  uncertainty k = 0.064879
        23         2         1        27     9        0.000000        0.266640         1    ;  uncertainty k = 0.441704
        23         2         1        27     9      180.000000        0.068445         2    ;  uncertainty k = 0.239612
        23         2         1        27     9        0.000000        0.368367         3    ;  uncertainty k = 0.211351
        23         2         1        27     9      180.000000        0.305973         4    ;  uncertainty k = 0.064879
        23         6         5        29     9        0.000000        0.152252         1    ;  uncertainty k = 2.647374
        23         6         5        29     9      180.000000       -0.088867         2    ;  uncertainty k = 1.682948
        23         6         5        29     9        0.000000        0.340119         3    ;  uncertainty k = 0.403308
        23         6         5        29     9      180.000000        0.010664         4    ;  uncertainty k = 0.098531
        23         6        20        37     9        0.000000        0.743880         1    ;  uncertainty k = 1.366606
        23         6        20        37     9      180.000000       -0.499522         2    ;  uncertainty k = 0.309601
        23         6        20        37     9        0.000000        0.507012         3    ;  uncertainty k = 0.234143
        23         6        20        37     9      180.000000        0.046601         4    ;  uncertainty k = 0.093966
        30         8         9        31     9        0.000000       -0.102801         1    ;  uncertainty k = 0.340793
        30         8         9        31     9      180.000000        7.837232         2    ;  uncertainty k = 0.295465
        30         8         9        31     9        0.000000       -0.503661         3    ;  uncertainty k = 0.314921
        30         8         9        31     9      180.000000        0.124006         4    ;  uncertainty k = 0.179406
        31         9        10        32     9        0.000000       -0.095533         1    ;  uncertainty k = 0.212367
        31         9        10        32     9      180.000000        7.973047         2    ;  uncertainty k = 0.297953
        31         9        10        32     9        0.000000       -0.492866         3    ;  uncertainty k = 0.271198
        31         9        10        32     9      180.000000        0.115954         4    ;  uncertainty k = 0.147408
        37        20        21        38     9        0.000000        1.112909         1    ;  uncertainty k = 1.312835
        37        20        21        38     9      180.000000       -1.597059         2    ;  uncertainty k = 0.788589
        37        20        21        38     9        0.000000        0.801310         3    ;  uncertainty k = 0.273126
        37        20        21        38     9      180.000000       -0.760755         4    ;  uncertainty k = 0.075359
        37        20        21        39     9        0.000000        1.112909         1    ;  uncertainty k = 1.312835
        37        20        21        39     9      180.000000       -1.597059         2    ;  uncertainty k = 0.788589
        37        20        21        39     9        0.000000        0.801310         3    ;  uncertainty k = 0.273126
        37        20        21        39     9      180.000000       -0.760755         4    ;  uncertainty k = 0.075359
        37        20        22        40     9        0.000000        1.112909         1    ;  uncertainty k = 1.312835
        37        20        22        40     9      180.000000       -1.597059         2    ;  uncertainty k = 0.788589
        37        20        22        40     9        0.000000        0.801310         3    ;  uncertainty k = 0.273126
        37        20        22        40     9      180.000000       -0.760755         4    ;  uncertainty k = 0.075359
        37        20        22        41     9        0.000000        1.112909         1    ;  uncertainty k = 1.312835
        37        20        22        41     9      180.000000       -1.597059         2    ;  uncertainty k = 0.788589
        37        20        22        41     9        0.000000        0.801310         3    ;  uncertainty k = 0.273126
        37        20        22        41     9      180.000000       -0.760755         4    ;  uncertainty k = 0.075359
        38        21        22        40     9        0.000000        0.219095         1    ;  uncertainty k = 0.548231
        38        21        22        40     9      180.000000       -1.119393         2    ;  uncertainty k = 0.862492
        38        21        22        40     9        0.000000        0.928974         3    ;  uncertainty k = 0.329710
        38        21        22        40     9      180.000000       -0.633440         4    ;  uncertainty k = 0.121162
        38        21        22        41     9        0.000000        0.219095         1    ;  uncertainty k = 0.548231
        38        21        22        41     9      180.000000       -1.119393         2    ;  uncertainty k = 0.862492
        38        21        22        41     9        0.000000        0.928974         3    ;  uncertainty k = 0.329710
        38        21        22        41     9      180.000000       -0.633440         4    ;  uncertainty k = 0.121162
        39        21        22        40     9        0.000000        0.219095         1    ;  uncertainty k = 0.548231
        39        21        22        40     9      180.000000       -1.119393         2    ;  uncertainty k = 0.862492
        39        21        22        40     9        0.000000        0.928974         3    ;  uncertainty k = 0.329710
        39        21        22        40     9      180.000000       -0.633440         4    ;  uncertainty k = 0.121162
        39        21        22        41     9        0.000000        0.219095         1    ;  uncertainty k = 0.548231
        39        21        22        41     9      180.000000       -1.119393         2    ;  uncertainty k = 0.862492
        39        21        22        41     9        0.000000        0.928974         3    ;  uncertainty k = 0.329710
        39        21        22        41     9      180.000000       -0.633440         4    ;  uncertainty k = 0.121162

[ dihedrals ] ; impropers
;       ai        aj        ak        al funct           phase               k        pn
         2         1         3        23     4      180.000000        1.740991         2    ;  uncertainty k = 0.618485
         2         3        23         1     4      180.000000        1.740991         2    ;  uncertainty k = 0.618485
         2        23         1         3     4      180.000000        1.740991         2    ;  uncertainty k = 0.618485
         3         2         4         5     4      180.000000       30.611205         2    ;  uncertainty k = 0.136445
         3         4         5         2     4      180.000000       30.611205         2    ;  uncertainty k = 0.136445
         3         5         2         4     4      180.000000       30.611205         2    ;  uncertainty k = 0.136445
         4         3        28        42     4      180.000000        0.046825         2    ;  uncertainty k = 0.104703
         4        28        42         3     4      180.000000        0.046825         2    ;  uncertainty k = 0.104703
         4        42         3        28     4      180.000000        0.046825         2    ;  uncertainty k = 0.104703
         7         6         8        19     4      180.000000       11.038873         2    ;  uncertainty k = 0.200619
         7         8        19         6     4      180.000000       11.038873         2    ;  uncertainty k = 0.200619
         7        19         6         8     4      180.000000       11.038873         2    ;  uncertainty k = 0.200619
         8         7         9        30     4      180.000000        3.735097         2    ;  uncertainty k = 0.215510
         8         9        30         7     4      180.000000        3.735097         2    ;  uncertainty k = 0.215510
         8        30         7         9     4      180.000000        3.735097         2    ;  uncertainty k = 0.215510
         9         8        10        31     4      180.000000        4.013204         2    ;  uncertainty k = 0.092194
         9        10        31         8     4      180.000000        4.013204         2    ;  uncertainty k = 0.092194
         9        31         8        10     4      180.000000        4.013204         2    ;  uncertainty k = 0.092194
        10         9        11        32     4      180.000000        4.418558         2    ;  uncertainty k = 0.150047
        10        11        32         9     4      180.000000        4.418558         2    ;  uncertainty k = 0.150047
        10        32         9        11     4      180.000000        4.418558         2    ;  uncertainty k = 0.150047
        11        10        12        19     4      180.000000       14.977045         2    ;  uncertainty k = 0.051506
        11        12        19        10     4      180.000000       14.977045         2    ;  uncertainty k = 0.051506
        11        19        10        12     4      180.000000       14.977045         2    ;  uncertainty k = 0.051506
        12        11        13        18     4      180.000000       13.648627         2    ;  uncertainty k = 0.100163
        12        13        18        11     4      180.000000       13.648627         2    ;  uncertainty k = 0.100163
        12        18        11        13     4      180.000000       13.648627         2    ;  uncertainty k = 0.100163
        13        12        14        33     4      180.000000       13.241892         2    ;  uncertainty k = 0.043861
        13        14        33        12     4      180.000000       13.241892         2    ;  uncertainty k = 0.043861
        13        33        12        14     4      180.000000       13.241892         2    ;  uncertainty k = 0.043861
        15        14        16        34     4      180.000000       12.474047         2    ;  uncertainty k = 0.045507
        15        16        34        14     4      180.000000       12.474047         2    ;  uncertainty k = 0.045507
        15        34        14        16     4      180.000000       12.474047         2    ;  uncertainty k = 0.045507
        16        15        17        18     4      180.000000       12.695314         2    ;  uncertainty k = 0.056339
        16        17        18        15     4      180.000000       12.695314         2    ;  uncertainty k = 0.056339
        16        18        15        17     4      180.000000       12.695314         2    ;  uncertainty k = 0.056339
        18        12        16        35     4      180.000000        5.524365         2    ;  uncertainty k = 0.140465
        18        16        35        12     4      180.000000        5.524365         2    ;  uncertainty k = 0.140465
        18        35        12        16     4      180.000000        5.524365         2    ;  uncertainty k = 0.140465
        19         7        11        36     4      180.000000        4.230365         2    ;  uncertainty k = 0.239814
        19        11        36         7     4      180.000000        4.230365         2    ;  uncertainty k = 0.239814
        19        36         7        11     4      180.000000        4.230365         2    ;  uncertainty k = 0.239814
        23         2         6        24     4      180.000000       50.502762         2    ;  uncertainty k = 0.034923
        23         6        24         2     4      180.000000       50.502762         2    ;  uncertainty k = 0.034923
        23        24         2         6     4      180.000000       50.502762         2    ;  uncertainty k = 0.034923

[ pairs ]
;       ai        aj funct
         1         4     1
         1         5     1
         1         6     1
         1        24     1
         2         7     1
         2        20     1
         2        28     1
         2        29     1
         2        42     1
         3         7     1
         3        20     1
         3        24     1
         3        25     1
         3        26     1
         3        27     1
         4         6     1
         4        23     1
         4        29     1
         5         8     1
         5        19     1
         5        21     1
         5        22     1
         5        24     1
         5        28     1
         5        37     1
         5        42     1
         6         9     1
         6        11     1
         6        30     1
         6        36     1
         6        38     1
         6        39     1
         6        40     1
         6        41     1
         7        10     1
         7        12     1
         7        21     1
         7        22     1
         7        24     1
         7        29     1
         7        31     1
         7        37     1
         8        11     1
         8        20     1
         8        23     1
         8        32     1
         8        36     1
         9        12     1
         9        19     1
        10        13     1
        10        18     1
        10        30     1
        10        36     1
        11        14     1
        11        16     1
        11        31     1
        11        33     1
        11        35     1
        12        15     1
        12        17     1
        12        32     1
        12        36     1
        13        16     1
        13        19     1
        13        34     1
        13        35     1
        14        17     1
        14        18     1
        15        33     1
        15        35     1
        17        34     1
        17        35     1
        18        19     1
        18        33     1
        18        34     1
        19        20     1
        19        23     1
        19        30     1
        19        32     1
        20        24     1
        20        29     1
        21        23     1
        22        23     1
        23        25     1
        23        26     1
        23        27     1
        23        29     1
        23        37     1
        30        31     1
        31        32     1
        37        38     1
        37        39     1
        37        40     1
        37        41     1
        38        40     1
        38        41     1
        39        40     1
        39        41     1
