; ITP file created by ByteFF-joint-25, 2026-02-18 03:16:02.751544

[ atomtypes ]
;name           bonded.type        at.num        mass        charge   ptype           sigma         epsilon
 c0bf                                   6      0.0000       0.00000       A     3.39732e-01     4.51256e-01    ;  uncertainty sigma = 0.000013, epsilon = 0.001265
 n1bf                                   7      0.0000       0.00000       A     3.18088e-01     6.83324e-01    ;  uncertainty sigma = 0.000069, epsilon = 0.006840
 c2bf                                   6      0.0000       0.00000       A     3.31506e-01     4.12343e-01    ;  uncertainty sigma = 0.000057, epsilon = 0.001364
 n3bf                                   7      0.0000       0.00000       A     3.36544e-01     4.71564e-01    ;  uncertainty sigma = 0.000086, epsilon = 0.005524
 n4bf                                   7      0.0000       0.00000       A     3.27349e-01     6.55963e-01    ;  uncertainty sigma = 0.000147, epsilon = 0.012862
 c5bf                                   6      0.0000       0.00000       A     3.39780e-01     4.52267e-01    ;  uncertainty sigma = 0.000064, epsilon = 0.002905
 c6bf                                   6      0.0000       0.00000       A     3.31518e-01     4.14024e-01    ;  uncertainty sigma = 0.000031, epsilon = 0.001124
 c7bf                                   6      0.0000       0.00000       A     3.31504e-01     4.13077e-01    ;  uncertainty sigma = 0.000002, epsilon = 0.000685
 c8bf                                   6      0.0000       0.00000       A     3.31522e-01     4.13312e-01    ;  uncertainty sigma = 0.000003, epsilon = 0.000635
 c9bf                                   6      0.0000       0.00000       A     3.31513e-01     4.13269e-01    ;  uncertainty sigma = 0.000005, epsilon = 0.000649
 c10bf                                  6      0.0000       0.00000       A     3.31498e-01     4.13558e-01    ;  uncertainty sigma = 0.000008, epsilon = 0.000546
 c11bf                                  6      0.0000       0.00000       A     3.31513e-01     4.13167e-01    ;  uncertainty sigma = 0.000009, epsilon = 0.000575
 c12bf                                  6      0.0000       0.00000       A     3.31511e-01     4.13320e-01    ;  uncertainty sigma = 0.000005, epsilon = 0.000665
 c13bf                                  6      0.0000       0.00000       A     3.31521e-01     4.13375e-01    ;  uncertainty sigma = 0.000003, epsilon = 0.000656
 c14bf                                  6      0.0000       0.00000       A     3.31522e-01     4.13446e-01    ;  uncertainty sigma = 0.000004, epsilon = 0.000552
 c15bf                                  6      0.0000       0.00000       A     3.31526e-01     4.13122e-01    ;  uncertainty sigma = 0.000006, epsilon = 0.000502
 cl16bf                                17      0.0000       0.00000       A     3.46610e-01     1.10414e+00    ;  uncertainty sigma = 0.000013, epsilon = 0.001445
 c17bf                                  6      0.0000       0.00000       A     3.31523e-01     4.13401e-01    ;  uncertainty sigma = 0.000007, epsilon = 0.000655
 c18bf                                  6      0.0000       0.00000       A     3.31514e-01     4.13120e-01    ;  uncertainty sigma = 0.000018, epsilon = 0.001031
 c19bf                                  6      0.0000       0.00000       A     3.39744e-01     4.50961e-01    ;  uncertainty sigma = 0.000024, epsilon = 0.000965
 c20bf                                  6      0.0000       0.00000       A     3.39771e-01     4.50789e-01    ;  uncertainty sigma = 0.000003, epsilon = 0.000791
 c21bf                                  6      0.0000       0.00000       A     3.39769e-01     4.50886e-01    ;  uncertainty sigma = 0.000004, epsilon = 0.000517
 c22bf                                  6      0.0000       0.00000       A     3.39770e-01     4.50850e-01    ;  uncertainty sigma = 0.000004, epsilon = 0.000562
 c23bf                                  6      0.0000       0.00000       A     3.39769e-01     4.50886e-01    ;  uncertainty sigma = 0.000004, epsilon = 0.000517
 c24bf                                  6      0.0000       0.00000       A     3.39771e-01     4.50789e-01    ;  uncertainty sigma = 0.000003, epsilon = 0.000791
 c25bf                                  6      0.0000       0.00000       A     3.31562e-01     4.14178e-01    ;  uncertainty sigma = 0.000018, epsilon = 0.001130
 o26bf                                  8      0.0000       0.00000       A     3.04824e-01     6.12276e-01    ;  uncertainty sigma = 0.000059, epsilon = 0.001890
 h27bf                                  1      0.0000       0.00000       A     2.42208e-01     8.66970e-02    ;  uncertainty sigma = 0.000028, epsilon = 0.000664
 h28bf                                  1      0.0000       0.00000       A     2.42208e-01     8.66970e-02    ;  uncertainty sigma = 0.000028, epsilon = 0.000664
 h29bf                                  1      0.0000       0.00000       A     2.42208e-01     8.66970e-02    ;  uncertainty sigma = 0.000028, epsilon = 0.000664
 h30bf                                  1      0.0000       0.00000       A     1.10696e-01     4.12787e-02    ;  uncertainty sigma = 0.000128, epsilon = 0.001559
 h31bf                                  1      0.0000       0.00000       A     1.10550e-01     4.05171e-02    ;  uncertainty sigma = 0.000088, epsilon = 0.001736
 h32bf                                  1      0.0000       0.00000       A     2.62558e-01     6.70852e-02    ;  uncertainty sigma = 0.000008, epsilon = 0.000421
 h33bf                                  1      0.0000       0.00000       A     2.62564e-01     6.70136e-02    ;  uncertainty sigma = 0.000010, epsilon = 0.000418
 h34bf                                  1      0.0000       0.00000       A     2.62562e-01     6.70409e-02    ;  uncertainty sigma = 0.000012, epsilon = 0.000506
 h35bf                                  1      0.0000       0.00000       A     2.62562e-01     6.70409e-02    ;  uncertainty sigma = 0.000012, epsilon = 0.000506
 h36bf                                  1      0.0000       0.00000       A     2.62568e-01     6.69665e-02    ;  uncertainty sigma = 0.000007, epsilon = 0.000468
 h37bf                                  1      0.0000       0.00000       A     2.62560e-01     6.70938e-02    ;  uncertainty sigma = 0.000009, epsilon = 0.000590
 h38bf                                  1      0.0000       0.00000       A     2.62559e-01     6.71673e-02    ;  uncertainty sigma = 0.000013, epsilon = 0.000620
 h39bf                                  1      0.0000       0.00000       A     2.62550e-01     6.72376e-02    ;  uncertainty sigma = 0.000014, epsilon = 0.000655
 h40bf                                  1      0.0000       0.00000       A     2.59952e-01     8.68719e-02    ;  uncertainty sigma = 0.000083, epsilon = 0.001659
 h41bf                                  1      0.0000       0.00000       A     2.60005e-01     8.66897e-02    ;  uncertainty sigma = 0.000009, epsilon = 0.000820
 h42bf                                  1      0.0000       0.00000       A     2.60005e-01     8.66897e-02    ;  uncertainty sigma = 0.000009, epsilon = 0.000820
 h43bf                                  1      0.0000       0.00000       A     2.60035e-01     8.67408e-02    ;  uncertainty sigma = 0.000011, epsilon = 0.000553
 h44bf                                  1      0.0000       0.00000       A     2.60035e-01     8.67408e-02    ;  uncertainty sigma = 0.000011, epsilon = 0.000553
 h45bf                                  1      0.0000       0.00000       A     2.60038e-01     8.68001e-02    ;  uncertainty sigma = 0.000010, epsilon = 0.000496
 h46bf                                  1      0.0000       0.00000       A     2.60038e-01     8.68001e-02    ;  uncertainty sigma = 0.000010, epsilon = 0.000496
 h47bf                                  1      0.0000       0.00000       A     2.60035e-01     8.67408e-02    ;  uncertainty sigma = 0.000011, epsilon = 0.000553
 h48bf                                  1      0.0000       0.00000       A     2.60035e-01     8.67408e-02    ;  uncertainty sigma = 0.000011, epsilon = 0.000553
 h49bf                                  1      0.0000       0.00000       A     2.60005e-01     8.66897e-02    ;  uncertainty sigma = 0.000009, epsilon = 0.000820
 h50bf                                  1      0.0000       0.00000       A     2.60005e-01     8.66897e-02    ;  uncertainty sigma = 0.000009, epsilon = 0.000820
 h51bf                                  1      0.0000       0.00000       A     1.10696e-01     4.12787e-02    ;  uncertainty sigma = 0.000128, epsilon = 0.001559

[ moleculetype ]
;name             nrexcl
 MOL                   3

[ atoms ]
;       nr            type      resi   res      atom      cgnr      charge          mass ; qtot
         1            c0bf         1   UNL        c0         1     0.07476       12.0110 ; qtot    0.075
         2            n1bf         1   UNL        n1         2    -0.42007       14.0070 ; qtot   -0.345
         3            c2bf         1   UNL        c2         3     0.45947       12.0110 ; qtot    0.114
         4            n3bf         1   UNL        n3         4    -0.47970       14.0070 ; qtot   -0.366
         5            n4bf         1   UNL        n4         5    -0.37713       14.0070 ; qtot   -0.743
         6            c5bf         1   UNL        c5         6     0.04706       12.0110 ; qtot   -0.696
         7            c6bf         1   UNL        c6         7    -0.13721       12.0110 ; qtot   -0.833
         8            c7bf         1   UNL        c7         8    -0.09756       12.0110 ; qtot   -0.930
         9            c8bf         1   UNL        c8         9    -0.11154       12.0110 ; qtot   -1.042
        10            c9bf         1   UNL        c9        10    -0.09155       12.0110 ; qtot   -1.133
        11           c10bf         1   UNL       c10        11    -0.01722       12.0110 ; qtot   -1.151
        12           c11bf         1   UNL       c11        12    -0.03571       12.0110 ; qtot   -1.186
        13           c12bf         1   UNL       c12        13    -0.11891       12.0110 ; qtot   -1.305
        14           c13bf         1   UNL       c13        14    -0.12274       12.0110 ; qtot   -1.428
        15           c14bf         1   UNL       c14        15    -0.11373       12.0110 ; qtot   -1.542
        16           c15bf         1   UNL       c15        16     0.03067       12.0110 ; qtot   -1.511
        17          cl16bf         1   UNL      cl16        17    -0.11712       35.4530 ; qtot   -1.628
        18           c17bf         1   UNL       c17        18    -0.11226       12.0110 ; qtot   -1.740
        19           c18bf         1   UNL       c18        19    -0.08274       12.0110 ; qtot   -1.823
        20           c19bf         1   UNL       c19        20    -0.06107       12.0110 ; qtot   -1.884
        21           c20bf         1   UNL       c20        21    -0.07121       12.0110 ; qtot   -1.956
        22           c21bf         1   UNL       c21        22    -0.07484       12.0110 ; qtot   -2.030
        23           c22bf         1   UNL       c22        23    -0.07859       12.0110 ; qtot   -2.109
        24           c23bf         1   UNL       c23        24    -0.07484       12.0110 ; qtot   -2.184
        25           c24bf         1   UNL       c24        25    -0.07121       12.0110 ; qtot   -2.255
        26           c25bf         1   UNL       c25        26     0.71140       12.0110 ; qtot   -1.544
        27           o26bf         1   UNL       o26        27    -0.45208       15.9990 ; qtot   -1.996
        28           h27bf         1   UNL       h27        28     0.09057        1.0080 ; qtot   -1.905
        29           h28bf         1   UNL       h28        29     0.09057        1.0080 ; qtot   -1.815
        30           h29bf         1   UNL       h29        30     0.09057        1.0080 ; qtot   -1.724
        31           h30bf         1   UNL       h30        31     0.33582        1.0080 ; qtot   -1.388
        32           h31bf         1   UNL       h31        32     0.35185        1.0080 ; qtot   -1.036
        33           h32bf         1   UNL       h32        33     0.14495        1.0080 ; qtot   -0.891
        34           h33bf         1   UNL       h33        34     0.14845        1.0080 ; qtot   -0.743
        35           h34bf         1   UNL       h34        35     0.13653        1.0080 ; qtot   -0.606
        36           h35bf         1   UNL       h35        36     0.13932        1.0080 ; qtot   -0.467
        37           h36bf         1   UNL       h36        37     0.13920        1.0080 ; qtot   -0.328
        38           h37bf         1   UNL       h37        38     0.15171        1.0080 ; qtot   -0.176
        39           h38bf         1   UNL       h38        39     0.15143        1.0080 ; qtot   -0.025
        40           h39bf         1   UNL       h39        40     0.14687        1.0080 ; qtot    0.122
        41           h40bf         1   UNL       h40        41     0.07784        1.0080 ; qtot    0.200
        42           h41bf         1   UNL       h41        42     0.05210        1.0080 ; qtot    0.252
        43           h42bf         1   UNL       h42        43     0.05210        1.0080 ; qtot    0.304
        44           h43bf         1   UNL       h43        44     0.04446        1.0080 ; qtot    0.349
        45           h44bf         1   UNL       h44        45     0.04446        1.0080 ; qtot    0.393
        46           h45bf         1   UNL       h45        46     0.03897        1.0080 ; qtot    0.432
        47           h46bf         1   UNL       h46        47     0.03897        1.0080 ; qtot    0.471
        48           h47bf         1   UNL       h47        48     0.04446        1.0080 ; qtot    0.516
        49           h48bf         1   UNL       h48        49     0.04446        1.0080 ; qtot    0.560
        50           h49bf         1   UNL       h49        50     0.05210        1.0080 ; qtot    0.612
        51           h50bf         1   UNL       h50        51     0.05210        1.0080 ; qtot    0.664
        52           h51bf         1   UNL       h51        52     0.33581        1.0080 ; qtot    1.000

[ bonds ]
;       ai        aj funct               r               k
         1         2     1        0.146660   260968.623828    ;  uncertainty r = 0.000129, k = 11.831858
         1        28     1        0.109174   309405.420996    ;  uncertainty r = 0.000045, k = 3.044469
         1        29     1        0.109174   309405.420996    ;  uncertainty r = 0.000045, k = 3.044469
         1        30     1        0.109174   309405.420996    ;  uncertainty r = 0.000045, k = 3.044469
         2         3     1        0.135484   283751.326123    ;  uncertainty r = 0.000189, k = 46.432921
         2        26     1        0.142660   295575.441895    ;  uncertainty r = 0.000333, k = 74.617632
         3         4     1        0.133070   311157.113477    ;  uncertainty r = 0.000245, k = 42.429309
         3         5     1        0.133539   522682.829102    ;  uncertainty r = 0.000203, k = 47.247674
         4        31     1        0.101396   420869.489551    ;  uncertainty r = 0.000073, k = 12.258235
         4        52     1        0.101396   420869.489551    ;  uncertainty r = 0.000073, k = 12.258266
         5         6     1        0.149819   219559.077344    ;  uncertainty r = 0.000364, k = 67.995852
         5        32     1        0.101497   426997.553076    ;  uncertainty r = 0.000039, k = 3.821002
         6         7     1        0.150964   206426.938062    ;  uncertainty r = 0.000132, k = 11.486339
         6        20     1        0.153714   197126.833569    ;  uncertainty r = 0.000221, k = 8.289132
         6        26     1        0.153120   173545.419873    ;  uncertainty r = 0.000387, k = 15.015485
         7         8     1        0.139759   351757.950781    ;  uncertainty r = 0.000052, k = 7.701654
         7        19     1        0.139543   345021.669922    ;  uncertainty r = 0.000059, k = 9.601163
         8         9     1        0.139490   369246.937988    ;  uncertainty r = 0.000029, k = 1.251119
         8        33     1        0.108790   332994.968262    ;  uncertainty r = 0.000022, k = 2.690996
         9        10     1        0.139322   371310.183203    ;  uncertainty r = 0.000027, k = 2.710963
         9        34     1        0.108768   333105.365186    ;  uncertainty r = 0.000026, k = 1.115178
        10        11     1        0.140091   347280.120801    ;  uncertainty r = 0.000012, k = 0.960266
        10        35     1        0.108820   334865.306152    ;  uncertainty r = 0.000023, k = 0.943338
        11        12     1        0.147934   271374.663916    ;  uncertainty r = 0.000042, k = 4.511247
        11        19     1        0.139805   338642.780908    ;  uncertainty r = 0.000081, k = 3.395321
        12        13     1        0.140235   345940.929248    ;  uncertainty r = 0.000017, k = 2.209476
        12        18     1        0.140145   349973.877246    ;  uncertainty r = 0.000025, k = 1.038770
        13        14     1        0.139452   367068.213965    ;  uncertainty r = 0.000025, k = 1.779925
        13        36     1        0.108805   334917.401855    ;  uncertainty r = 0.000025, k = 0.881878
        14        15     1        0.139500   374338.220410    ;  uncertainty r = 0.000020, k = 1.415152
        14        37     1        0.108776   333408.771582    ;  uncertainty r = 0.000008, k = 1.051657
        15        16     1        0.139473   361470.709424    ;  uncertainty r = 0.000016, k = 2.291888
        15        38     1        0.108715   335671.742529    ;  uncertainty r = 0.000009, k = 0.604899
        16        17     1        0.175805   197124.279858    ;  uncertainty r = 0.000030, k = 2.861100
        16        18     1        0.139310   357391.896777    ;  uncertainty r = 0.000022, k = 1.821603
        18        39     1        0.108730   336354.375000    ;  uncertainty r = 0.000018, k = 1.108088
        19        40     1        0.108832   333340.025684    ;  uncertainty r = 0.000012, k = 1.665945
        20        21     1        0.153780   201503.523828    ;  uncertainty r = 0.000210, k = 2.998470
        20        25     1        0.153780   201503.523828    ;  uncertainty r = 0.000210, k = 2.998470
        20        41     1        0.109688   303374.475098    ;  uncertainty r = 0.000064, k = 5.435098
        21        22     1        0.153651   211708.599634    ;  uncertainty r = 0.000042, k = 3.268559
        21        42     1        0.109653   308188.322363    ;  uncertainty r = 0.000027, k = 2.524798
        21        43     1        0.109653   308188.322363    ;  uncertainty r = 0.000027, k = 2.524780
        22        23     1        0.153485   212577.716846    ;  uncertainty r = 0.000037, k = 0.875396
        22        44     1        0.109740   307070.180029    ;  uncertainty r = 0.000013, k = 1.091081
        22        45     1        0.109740   307070.180029    ;  uncertainty r = 0.000013, k = 1.091081
        23        24     1        0.153485   212577.716846    ;  uncertainty r = 0.000037, k = 0.875396
        23        46     1        0.109784   306517.633594    ;  uncertainty r = 0.000013, k = 1.091306
        23        47     1        0.109784   306517.633594    ;  uncertainty r = 0.000013, k = 1.091306
        24        25     1        0.153651   211708.586865    ;  uncertainty r = 0.000042, k = 3.268633
        24        48     1        0.109740   307070.180029    ;  uncertainty r = 0.000013, k = 1.091081
        24        49     1        0.109740   307070.180029    ;  uncertainty r = 0.000013, k = 1.091081
        25        50     1        0.109653   308188.322363    ;  uncertainty r = 0.000027, k = 2.524780
        25        51     1        0.109653   308188.322363    ;  uncertainty r = 0.000027, k = 2.524780
        26        27     1        0.120204   626638.885352    ;  uncertainty r = 0.000235, k = 14.455726

[ angles ]
;       ai        aj        ak funct           theta             cth
         1         2         3     1      118.623375      372.973058    ;  uncertainty theta = 0.007344, k = 0.438985
         1         2        26     1      119.200699      399.695536    ;  uncertainty theta = 0.007871, k = 0.297605
         2         1        28     1      107.387741      470.918534    ;  uncertainty theta = 0.002387, k = 0.219388
         2         1        29     1      107.387741      470.918534    ;  uncertainty theta = 0.002387, k = 0.219388
         2         1        30     1      107.387741      470.918534    ;  uncertainty theta = 0.002387, k = 0.219388
         2         3         4     1      125.911766      535.957019    ;  uncertainty theta = 0.011146, k = 0.302342
         2         3         5     1      113.233139      707.604891    ;  uncertainty theta = 0.010392, k = 0.285093
         2        26         6     1      110.183754      483.193105    ;  uncertainty theta = 0.003142, k = 0.554485
         2        26        27     1      125.171570      651.636421    ;  uncertainty theta = 0.010955, k = 0.118559
         3         2        26     1      110.304703      716.564458    ;  uncertainty theta = 0.010284, k = 0.270426
         3         4        31     1      114.820274      367.916742    ;  uncertainty theta = 0.004308, k = 0.182196
         3         4        52     1      114.820274      367.916774    ;  uncertainty theta = 0.004308, k = 0.182196
         3         5         6     1      111.904587      608.025423    ;  uncertainty theta = 0.016425, k = 0.486075
         3         5        32     1      119.231789      353.996591    ;  uncertainty theta = 0.008570, k = 0.130268
         4         3         5     1      128.555756      644.419953    ;  uncertainty theta = 0.008498, k = 0.302113
         5         6         7     1      110.146072      630.378054    ;  uncertainty theta = 0.008662, k = 0.222978
         5         6        20     1      109.496750      587.927909    ;  uncertainty theta = 0.006828, k = 0.088823
         5         6        26     1      102.670265      938.204414    ;  uncertainty theta = 0.008703, k = 0.504446
         6         5        32     1      117.304344      294.732973    ;  uncertainty theta = 0.009592, k = 0.385285
         6         7         8     1      116.995529      374.398986    ;  uncertainty theta = 0.007502, k = 0.241121
         6         7        19     1      116.427795      374.064258    ;  uncertainty theta = 0.007031, k = 0.144319
         6        20        21     1      107.451828      516.807443    ;  uncertainty theta = 0.003987, k = 0.101877
         6        20        25     1      107.451828      516.807443    ;  uncertainty theta = 0.003987, k = 0.101877
         6        20        41     1      103.296181      377.070646    ;  uncertainty theta = 0.004259, k = 0.129139
         6        26        27     1      125.808266      416.709699    ;  uncertainty theta = 0.008386, k = 0.204616
         7         6        20     1      112.504356      495.177128    ;  uncertainty theta = 0.009033, k = 0.189320
         7         6        26     1      108.956398      487.771398    ;  uncertainty theta = 0.008156, k = 0.136103
         7         8         9     1      120.513878      514.524744    ;  uncertainty theta = 0.003586, k = 0.046963
         7         8        33     1      118.536545      272.220798    ;  uncertainty theta = 0.003958, k = 0.075274
         7        19        11     1      122.580116      511.495851    ;  uncertainty theta = 0.002050, k = 0.200392
         7        19        40     1      118.180161      271.990453    ;  uncertainty theta = 0.003298, k = 0.098166
         8         7        19     1      123.395874      437.373817    ;  uncertainty theta = 0.006677, k = 0.160664
         8         9        10     1      120.390724      509.225219    ;  uncertainty theta = 0.002708, k = 0.070657
         8         9        34     1      119.787376      281.908204    ;  uncertainty theta = 0.002453, k = 0.056430
         9         8        33     1      120.201637      300.982254    ;  uncertainty theta = 0.003080, k = 0.027107
         9        10        11     1      119.832321      534.552031    ;  uncertainty theta = 0.002361, k = 0.068297
         9        10        35     1      120.219772      294.473835    ;  uncertainty theta = 0.001120, k = 0.016578
        10         9        34     1      120.395386      284.232879    ;  uncertainty theta = 0.000987, k = 0.052322
        10        11        12     1      121.149208      406.404837    ;  uncertainty theta = 0.001695, k = 0.140468
        10        11        19     1      120.140884      404.917268    ;  uncertainty theta = 0.004775, k = 0.227524
        11        10        35     1      118.934425      278.372624    ;  uncertainty theta = 0.000588, k = 0.103231
        11        12        13     1      120.541405      411.758851    ;  uncertainty theta = 0.002471, k = 0.047662
        11        12        18     1      119.765121      410.682781    ;  uncertainty theta = 0.001914, k = 0.050844
        11        19        40     1      118.761307      283.066504    ;  uncertainty theta = 0.002262, k = 0.090750
        12        11        19     1      120.006149      413.538373    ;  uncertainty theta = 0.002597, k = 0.152477
        12        13        14     1      120.504349      532.913346    ;  uncertainty theta = 0.001618, k = 0.068709
        12        13        36     1      119.203636      278.269901    ;  uncertainty theta = 0.001744, k = 0.040876
        12        18        16     1      119.741173      510.605660    ;  uncertainty theta = 0.001091, k = 0.073584
        12        18        39     1      120.095413      273.299613    ;  uncertainty theta = 0.001008, k = 0.066604
        13        12        18     1      120.374191      415.451390    ;  uncertainty theta = 0.002120, k = 0.132953
        13        14        15     1      120.717369      509.837057    ;  uncertainty theta = 0.001401, k = 0.048240
        13        14        37     1      120.238693      282.499708    ;  uncertainty theta = 0.001326, k = 0.011496
        14        13        36     1      120.338760      294.190309    ;  uncertainty theta = 0.001360, k = 0.032086
        14        15        16     1      117.430496      514.054606    ;  uncertainty theta = 0.001033, k = 0.048095
        14        15        38     1      121.325417      283.555061    ;  uncertainty theta = 0.001286, k = 0.023037
        15        14        37     1      119.863365      284.707455    ;  uncertainty theta = 0.000778, k = 0.019642
        15        16        17     1      120.461792      447.827848    ;  uncertainty theta = 0.001141, k = 0.053761
        15        16        18     1      121.555298      359.688909    ;  uncertainty theta = 0.001133, k = 0.149052
        16        15        38     1      121.035461      285.494859    ;  uncertainty theta = 0.001567, k = 0.028924
        16        18        39     1      120.760788      292.340624    ;  uncertainty theta = 0.001328, k = 0.049697
        17        16        18     1      120.006104      442.243297    ;  uncertainty theta = 0.000762, k = 0.110065
        20         6        26     1      108.076706      471.370190    ;  uncertainty theta = 0.011948, k = 0.149079
        20        21        22     1      109.838516      555.290015    ;  uncertainty theta = 0.003451, k = 0.099486
        20        21        42     1      107.805832      386.864607    ;  uncertainty theta = 0.001345, k = 0.054083
        20        21        43     1      107.805832      386.864607    ;  uncertainty theta = 0.001345, k = 0.054083
        20        25        24     1      109.838516      555.290015    ;  uncertainty theta = 0.003451, k = 0.099486
        20        25        50     1      107.805832      386.864607    ;  uncertainty theta = 0.001345, k = 0.054083
        20        25        51     1      107.805832      386.864607    ;  uncertainty theta = 0.001345, k = 0.054083
        21        20        25     1      110.085022      604.273702    ;  uncertainty theta = 0.004417, k = 0.090369
        21        20        41     1      108.431442      411.179670    ;  uncertainty theta = 0.002623, k = 0.079468
        21        22        23     1      109.396385      615.877637    ;  uncertainty theta = 0.001412, k = 0.033716
        21        22        44     1      108.245888      396.112967    ;  uncertainty theta = 0.001580, k = 0.018268
        21        22        45     1      108.245888      396.112967    ;  uncertainty theta = 0.001580, k = 0.018268
        22        21        42     1      108.715530      409.660371    ;  uncertainty theta = 0.001402, k = 0.026779
        22        21        43     1      108.715530      409.660371    ;  uncertainty theta = 0.001402, k = 0.026779
        22        23        24     1      108.548218      620.508026    ;  uncertainty theta = 0.002208, k = 0.071253
        22        23        46     1      108.726028      402.789835    ;  uncertainty theta = 0.001450, k = 0.019663
        22        23        47     1      108.726028      402.789835    ;  uncertainty theta = 0.001450, k = 0.019663
        23        22        44     1      108.898254      402.578835    ;  uncertainty theta = 0.000911, k = 0.010285
        23        22        45     1      108.898254      402.578835    ;  uncertainty theta = 0.000911, k = 0.010285
        23        24        25     1      109.396385      615.877637    ;  uncertainty theta = 0.001412, k = 0.033716
        23        24        48     1      108.898254      402.578835    ;  uncertainty theta = 0.000911, k = 0.010285
        23        24        49     1      108.898254      402.578835    ;  uncertainty theta = 0.000911, k = 0.010285
        24        23        46     1      108.726028      402.789835    ;  uncertainty theta = 0.001450, k = 0.019663
        24        23        47     1      108.726028      402.789835    ;  uncertainty theta = 0.001450, k = 0.019663
        24        25        50     1      108.715530      409.660371    ;  uncertainty theta = 0.001402, k = 0.026779
        24        25        51     1      108.715530      409.660371    ;  uncertainty theta = 0.001402, k = 0.026779
        25        20        41     1      108.431442      411.179670    ;  uncertainty theta = 0.002623, k = 0.079468
        25        24        48     1      108.245888      396.112967    ;  uncertainty theta = 0.001580, k = 0.018268
        25        24        49     1      108.245888      396.112967    ;  uncertainty theta = 0.001580, k = 0.018268
        28         1        29     1      107.627037      325.730906    ;  uncertainty theta = 0.003369, k = 0.100967
        28         1        30     1      107.627037      325.730906    ;  uncertainty theta = 0.003369, k = 0.100967
        29         1        30     1      107.627037      325.730906    ;  uncertainty theta = 0.003369, k = 0.100967
        31         4        52     1      112.418320      264.652971    ;  uncertainty theta = 0.015777, k = 0.354183
        42        21        43     1      104.487259      320.354163    ;  uncertainty theta = 0.000991, k = 0.037492
        44        22        45     1      104.174149      312.268029    ;  uncertainty theta = 0.001691, k = 0.039533
        46        23        47     1      103.950661      313.919641    ;  uncertainty theta = 0.001862, k = 0.047238
        48        24        49     1      104.174149      312.267965    ;  uncertainty theta = 0.001691, k = 0.039533
        50        25        51     1      104.487267      320.354131    ;  uncertainty theta = 0.000991, k = 0.037492

[ dihedrals ] ; propers for gromacs 4.5 or higher, use funct 9
;       ai        aj        ak        al funct           phase               k        pn
         1         2         3         4     9        0.000000       -0.052932         1    ;  uncertainty k = 0.767947
         1         2         3         4     9      180.000000        6.849904         2    ;  uncertainty k = 0.670181
         1         2         3         4     9        0.000000        0.923014         3    ;  uncertainty k = 0.725879
         1         2         3         4     9      180.000000        0.003910         4    ;  uncertainty k = 0.303669
         1         2         3         5     9        0.000000       -0.294227         1    ;  uncertainty k = 2.453667
         1         2         3         5     9      180.000000        8.152508         2    ;  uncertainty k = 0.434837
         1         2         3         5     9        0.000000        0.218912         3    ;  uncertainty k = 0.219154
         1         2         3         5     9      180.000000       -0.125626         4    ;  uncertainty k = 0.252712
         1         2        26         6     9        0.000000        5.008392         1    ;  uncertainty k = 2.716735
         1         2        26         6     9      180.000000        4.736513         2    ;  uncertainty k = 1.211429
         1         2        26         6     9        0.000000        1.274900         3    ;  uncertainty k = 0.866522
         1         2        26         6     9      180.000000        0.127034         4    ;  uncertainty k = 0.461156
         1         2        26        27     9        0.000000       -0.656974         1    ;  uncertainty k = 3.187478
         1         2        26        27     9      180.000000        8.310483         2    ;  uncertainty k = 0.490648
         1         2        26        27     9        0.000000        0.578183         3    ;  uncertainty k = 0.539036
         1         2        26        27     9      180.000000        0.232668         4    ;  uncertainty k = 0.253382
         2         3         4        31     9        0.000000        7.463538         1    ;  uncertainty k = 2.012421
         2         3         4        31     9      180.000000        9.423807         2    ;  uncertainty k = 0.647211
         2         3         4        31     9        0.000000        1.002433         3    ;  uncertainty k = 0.510656
         2         3         4        31     9      180.000000       -0.952424         4    ;  uncertainty k = 0.245732
         2         3         4        52     9        0.000000        7.463533         1    ;  uncertainty k = 2.012422
         2         3         4        52     9      180.000000        9.423810         2    ;  uncertainty k = 0.647210
         2         3         4        52     9        0.000000        1.002433         3    ;  uncertainty k = 0.510656
         2         3         4        52     9      180.000000       -0.952425         4    ;  uncertainty k = 0.245732
         2         3         5         6     9        0.000000        1.449052         1    ;  uncertainty k = 1.824949
         2         3         5         6     9      180.000000       14.992989         2    ;  uncertainty k = 0.354789
         2         3         5         6     9        0.000000       -0.172590         3    ;  uncertainty k = 0.991271
         2         3         5         6     9      180.000000       -0.541437         4    ;  uncertainty k = 0.204434
         2         3         5        32     9        0.000000        4.228573         1    ;  uncertainty k = 3.460551
         2         3         5        32     9      180.000000       10.711913         2    ;  uncertainty k = 0.647292
         2         3         5        32     9        0.000000        0.973610         3    ;  uncertainty k = 0.819616
         2         3         5        32     9      180.000000       -0.440129         4    ;  uncertainty k = 0.160790
         2        26         6         5     9        0.000000        0.536201         1    ;  uncertainty k = 2.861212
         2        26         6         5     9      180.000000        7.064997         2    ;  uncertainty k = 0.790053
         2        26         6         5     9        0.000000        0.331836         3    ;  uncertainty k = 0.500927
         2        26         6         5     9      180.000000        0.241626         4    ;  uncertainty k = 0.635143
         2        26         6         7     9        0.000000       -2.092900         1    ;  uncertainty k = 3.390029
         2        26         6         7     9      180.000000        1.951100         2    ;  uncertainty k = 1.091036
         2        26         6         7     9        0.000000        1.106757         3    ;  uncertainty k = 0.556296
         2        26         6         7     9      180.000000        0.805110         4    ;  uncertainty k = 0.241336
         2        26         6        20     9        0.000000       -5.879448         1    ;  uncertainty k = 2.477073
         2        26         6        20     9      180.000000        2.720125         2    ;  uncertainty k = 0.572800
         2        26         6        20     9        0.000000        0.962364         3    ;  uncertainty k = 0.162912
         2        26         6        20     9      180.000000        0.384931         4    ;  uncertainty k = 0.339573
         3         2         1        28     9        0.000000       -0.391328         1    ;  uncertainty k = 0.520426
         3         2         1        28     9      180.000000       -1.103130         2    ;  uncertainty k = 0.437175
         3         2         1        28     9        0.000000        0.448144         3    ;  uncertainty k = 0.212100
         3         2         1        28     9      180.000000        0.190125         4    ;  uncertainty k = 0.054272
         3         2         1        29     9        0.000000       -0.391328         1    ;  uncertainty k = 0.520426
         3         2         1        29     9      180.000000       -1.103130         2    ;  uncertainty k = 0.437175
         3         2         1        29     9        0.000000        0.448144         3    ;  uncertainty k = 0.212100
         3         2         1        29     9      180.000000        0.190125         4    ;  uncertainty k = 0.054272
         3         2         1        30     9        0.000000       -0.391328         1    ;  uncertainty k = 0.520426
         3         2         1        30     9      180.000000       -1.103130         2    ;  uncertainty k = 0.437175
         3         2         1        30     9        0.000000        0.448144         3    ;  uncertainty k = 0.212100
         3         2         1        30     9      180.000000        0.190125         4    ;  uncertainty k = 0.054272
         3         2        26         6     9        0.000000        2.674016         1    ;  uncertainty k = 2.031156
         3         2        26         6     9      180.000000        3.229786         2    ;  uncertainty k = 1.216441
         3         2        26         6     9        0.000000       -0.153473         3    ;  uncertainty k = 0.842786
         3         2        26         6     9      180.000000        0.744920         4    ;  uncertainty k = 0.221097
         3         2        26        27     9        0.000000        0.374287         1    ;  uncertainty k = 2.579472
         3         2        26        27     9      180.000000        7.789352         2    ;  uncertainty k = 0.652131
         3         2        26        27     9        0.000000        0.475850         3    ;  uncertainty k = 0.517700
         3         2        26        27     9      180.000000        0.044815         4    ;  uncertainty k = 0.236852
         3         5         6         7     9        0.000000        0.043935         1    ;  uncertainty k = 0.439372
         3         5         6         7     9      180.000000        1.136725         2    ;  uncertainty k = 0.513267
         3         5         6         7     9        0.000000        0.759669         3    ;  uncertainty k = 0.290785
         3         5         6         7     9      180.000000        0.511120         4    ;  uncertainty k = 0.253411
         3         5         6        20     9        0.000000       -1.615699         1    ;  uncertainty k = 1.181948
         3         5         6        20     9      180.000000        1.129340         2    ;  uncertainty k = 0.521459
         3         5         6        20     9        0.000000        0.579117         3    ;  uncertainty k = 0.384479
         3         5         6        20     9      180.000000        0.353724         4    ;  uncertainty k = 0.179737
         3         5         6        26     9        0.000000        1.364258         1    ;  uncertainty k = 1.068306
         3         5         6        26     9      180.000000        2.703446         2    ;  uncertainty k = 1.428347
         3         5         6        26     9        0.000000        0.161066         3    ;  uncertainty k = 0.776008
         3         5         6        26     9      180.000000        0.483241         4    ;  uncertainty k = 0.506366
         4         3         2        26     9        0.000000       -0.681158         1    ;  uncertainty k = 0.766407
         4         3         2        26     9      180.000000        6.682847         2    ;  uncertainty k = 1.266037
         4         3         2        26     9        0.000000        0.191283         3    ;  uncertainty k = 0.708340
         4         3         2        26     9      180.000000       -0.074371         4    ;  uncertainty k = 0.467794
         4         3         5         6     9        0.000000        2.510704         1    ;  uncertainty k = 1.721027
         4         3         5         6     9      180.000000       10.546784         2    ;  uncertainty k = 0.802167
         4         3         5         6     9        0.000000        0.495212         3    ;  uncertainty k = 0.576715
         4         3         5         6     9      180.000000       -0.433650         4    ;  uncertainty k = 0.535332
         4         3         5        32     9        0.000000        2.505379         1    ;  uncertainty k = 2.879735
         4         3         5        32     9      180.000000        7.656918         2    ;  uncertainty k = 1.183313
         4         3         5        32     9        0.000000        0.952462         3    ;  uncertainty k = 0.142406
         4         3         5        32     9      180.000000       -0.270209         4    ;  uncertainty k = 0.293329
         5         3         2        26     9        0.000000       -0.216818         1    ;  uncertainty k = 1.586408
         5         3         2        26     9      180.000000        8.493984         2    ;  uncertainty k = 0.765116
         5         3         2        26     9        0.000000       -1.151420         3    ;  uncertainty k = 1.180507
         5         3         2        26     9      180.000000        0.015402         4    ;  uncertainty k = 0.455956
         5         3         4        31     9        0.000000        5.740455         1    ;  uncertainty k = 1.325741
         5         3         4        31     9      180.000000       10.275225         2    ;  uncertainty k = 0.322894
         5         3         4        31     9        0.000000        1.429503         3    ;  uncertainty k = 0.466009
         5         3         4        31     9      180.000000       -0.775790         4    ;  uncertainty k = 0.308096
         5         3         4        52     9        0.000000        5.740456         1    ;  uncertainty k = 1.325740
         5         3         4        52     9      180.000000       10.275225         2    ;  uncertainty k = 0.322894
         5         3         4        52     9        0.000000        1.429503         3    ;  uncertainty k = 0.466009
         5         3         4        52     9      180.000000       -0.775790         4    ;  uncertainty k = 0.308096
         5         6         7         8     9        0.000000       -1.121881         1    ;  uncertainty k = 1.254483
         5         6         7         8     9      180.000000        2.787083         2    ;  uncertainty k = 0.332941
         5         6         7         8     9        0.000000        0.682263         3    ;  uncertainty k = 0.197821
         5         6         7         8     9      180.000000        0.342363         4    ;  uncertainty k = 0.115773
         5         6         7        19     9        0.000000       -0.958432         1    ;  uncertainty k = 1.153986
         5         6         7        19     9      180.000000        2.766242         2    ;  uncertainty k = 0.420952
         5         6         7        19     9        0.000000        0.632340         3    ;  uncertainty k = 0.171649
         5         6         7        19     9      180.000000        0.349717         4    ;  uncertainty k = 0.129256
         5         6        20        21     9        0.000000       -2.498942         1    ;  uncertainty k = 0.647509
         5         6        20        21     9      180.000000        0.011731         2    ;  uncertainty k = 0.247038
         5         6        20        21     9        0.000000        1.179036         3    ;  uncertainty k = 0.477113
         5         6        20        21     9      180.000000       -0.317453         4    ;  uncertainty k = 0.141369
         5         6        20        25     9        0.000000       -2.498942         1    ;  uncertainty k = 0.647509
         5         6        20        25     9      180.000000        0.011731         2    ;  uncertainty k = 0.247038
         5         6        20        25     9        0.000000        1.179036         3    ;  uncertainty k = 0.477113
         5         6        20        25     9      180.000000       -0.317453         4    ;  uncertainty k = 0.141369
         5         6        20        41     9        0.000000       -0.674327         1    ;  uncertainty k = 0.820308
         5         6        20        41     9      180.000000       -0.276989         2    ;  uncertainty k = 0.520003
         5         6        20        41     9        0.000000        0.297371         3    ;  uncertainty k = 0.224905
         5         6        20        41     9      180.000000       -0.244005         4    ;  uncertainty k = 0.206187
         5         6        26        27     9        0.000000       -0.967742         1    ;  uncertainty k = 2.763384
         5         6        26        27     9      180.000000        2.695228         2    ;  uncertainty k = 1.295140
         5         6        26        27     9        0.000000        0.241273         3    ;  uncertainty k = 0.584972
         5         6        26        27     9      180.000000        0.422334         4    ;  uncertainty k = 0.160615
         6         7         8         9     9        0.000000        0.068434         1    ;  uncertainty k = 0.367135
         6         7         8         9     9      180.000000        8.796278         2    ;  uncertainty k = 0.344510
         6         7         8         9     9        0.000000        1.372564         3    ;  uncertainty k = 0.402637
         6         7         8         9     9      180.000000        1.856375         4    ;  uncertainty k = 0.152849
         6         7         8        33     9        0.000000       -0.457350         1    ;  uncertainty k = 0.295387
         6         7         8        33     9      180.000000        6.984797         2    ;  uncertainty k = 0.448680
         6         7         8        33     9        0.000000        0.635068         3    ;  uncertainty k = 0.309491
         6         7         8        33     9      180.000000        1.043737         4    ;  uncertainty k = 0.265784
         6         7        19        11     9        0.000000        0.090269         1    ;  uncertainty k = 0.204721
         6         7        19        11     9      180.000000        8.438623         2    ;  uncertainty k = 0.333922
         6         7        19        11     9        0.000000        1.353090         3    ;  uncertainty k = 0.378728
         6         7        19        11     9      180.000000        1.844004         4    ;  uncertainty k = 0.132363
         6         7        19        40     9        0.000000       -0.385867         1    ;  uncertainty k = 0.282633
         6         7        19        40     9      180.000000        7.074000         2    ;  uncertainty k = 0.504737
         6         7        19        40     9        0.000000        0.592490         3    ;  uncertainty k = 0.377864
         6         7        19        40     9      180.000000        1.088130         4    ;  uncertainty k = 0.279727
         6        20        21        22     9        0.000000       -4.276214         1    ;  uncertainty k = 1.349450
         6        20        21        22     9      180.000000       -0.580880         2    ;  uncertainty k = 0.476139
         6        20        21        22     9        0.000000        0.843155         3    ;  uncertainty k = 0.213688
         6        20        21        22     9      180.000000       -0.275534         4    ;  uncertainty k = 0.164646
         6        20        21        42     9        0.000000        1.835356         1    ;  uncertainty k = 0.991406
         6        20        21        42     9      180.000000       -2.044964         2    ;  uncertainty k = 0.386775
         6        20        21        42     9        0.000000        0.568788         3    ;  uncertainty k = 0.177282
         6        20        21        42     9      180.000000       -0.201822         4    ;  uncertainty k = 0.139403
         6        20        21        43     9        0.000000        1.835356         1    ;  uncertainty k = 0.991406
         6        20        21        43     9      180.000000       -2.044964         2    ;  uncertainty k = 0.386775
         6        20        21        43     9        0.000000        0.568788         3    ;  uncertainty k = 0.177282
         6        20        21        43     9      180.000000       -0.201822         4    ;  uncertainty k = 0.139403
         6        20        25        24     9        0.000000       -4.276214         1    ;  uncertainty k = 1.349450
         6        20        25        24     9      180.000000       -0.580880         2    ;  uncertainty k = 0.476139
         6        20        25        24     9        0.000000        0.843155         3    ;  uncertainty k = 0.213688
         6        20        25        24     9      180.000000       -0.275534         4    ;  uncertainty k = 0.164646
         6        20        25        50     9        0.000000        1.835356         1    ;  uncertainty k = 0.991406
         6        20        25        50     9      180.000000       -2.044964         2    ;  uncertainty k = 0.386775
         6        20        25        50     9        0.000000        0.568788         3    ;  uncertainty k = 0.177282
         6        20        25        50     9      180.000000       -0.201822         4    ;  uncertainty k = 0.139403
         6        20        25        51     9        0.000000        1.835356         1    ;  uncertainty k = 0.991406
         6        20        25        51     9      180.000000       -2.044964         2    ;  uncertainty k = 0.386775
         6        20        25        51     9        0.000000        0.568788         3    ;  uncertainty k = 0.177282
         6        20        25        51     9      180.000000       -0.201822         4    ;  uncertainty k = 0.139403
         7         6         5        32     9        0.000000        2.922256         1    ;  uncertainty k = 1.083637
         7         6         5        32     9      180.000000        0.451401         2    ;  uncertainty k = 0.975359
         7         6         5        32     9        0.000000        0.659852         3    ;  uncertainty k = 0.422087
         7         6         5        32     9      180.000000        0.048800         4    ;  uncertainty k = 0.120435
         7         6        20        21     9        0.000000       -0.970015         1    ;  uncertainty k = 0.567404
         7         6        20        21     9      180.000000        0.720279         2    ;  uncertainty k = 0.306035
         7         6        20        21     9        0.000000        0.932152         3    ;  uncertainty k = 0.160673
         7         6        20        21     9      180.000000       -0.056668         4    ;  uncertainty k = 0.085334
         7         6        20        25     9        0.000000       -0.970015         1    ;  uncertainty k = 0.567404
         7         6        20        25     9      180.000000        0.720279         2    ;  uncertainty k = 0.306035
         7         6        20        25     9        0.000000        0.932152         3    ;  uncertainty k = 0.160673
         7         6        20        25     9      180.000000       -0.056668         4    ;  uncertainty k = 0.085334
         7         6        20        41     9        0.000000        0.050784         1    ;  uncertainty k = 0.451427
         7         6        20        41     9      180.000000        0.039191         2    ;  uncertainty k = 0.416757
         7         6        20        41     9        0.000000        0.480594         3    ;  uncertainty k = 0.214336
         7         6        20        41     9      180.000000       -0.070734         4    ;  uncertainty k = 0.045928
         7         6        26        27     9        0.000000       -0.266423         1    ;  uncertainty k = 1.254741
         7         6        26        27     9      180.000000        3.579488         2    ;  uncertainty k = 0.489964
         7         6        26        27     9        0.000000        0.478950         3    ;  uncertainty k = 0.211398
         7         6        26        27     9      180.000000        0.030128         4    ;  uncertainty k = 0.197715
         7         8         9        10     9        0.000000       -0.034383         1    ;  uncertainty k = 0.214440
         7         8         9        10     9      180.000000       13.038285         2    ;  uncertainty k = 0.270413
         7         8         9        10     9        0.000000       -0.882517         3    ;  uncertainty k = 0.523537
         7         8         9        10     9      180.000000        0.797898         4    ;  uncertainty k = 0.197089
         7         8         9        34     9        0.000000        0.114233         1    ;  uncertainty k = 0.333398
         7         8         9        34     9      180.000000        7.307801         2    ;  uncertainty k = 0.270042
         7         8         9        34     9        0.000000        1.436541         3    ;  uncertainty k = 0.137170
         7         8         9        34     9      180.000000        1.808532         4    ;  uncertainty k = 0.135222
         7        19        11        10     9        0.000000        0.175029         1    ;  uncertainty k = 0.352446
         7        19        11        10     9      180.000000        9.866145         2    ;  uncertainty k = 0.495970
         7        19        11        10     9        0.000000       -0.105221         3    ;  uncertainty k = 0.285329
         7        19        11        10     9      180.000000        1.122843         4    ;  uncertainty k = 0.276424
         7        19        11        12     9        0.000000        0.318731         1    ;  uncertainty k = 0.111799
         7        19        11        12     9      180.000000        8.404186         2    ;  uncertainty k = 0.435313
         7        19        11        12     9        0.000000        1.267615         3    ;  uncertainty k = 0.400015
         7        19        11        12     9      180.000000        1.741431         4    ;  uncertainty k = 0.092624
         8         7         6        20     9        0.000000       -0.225196         1    ;  uncertainty k = 0.594969
         8         7         6        20     9      180.000000        2.118891         2    ;  uncertainty k = 0.278994
         8         7         6        20     9        0.000000        0.390764         3    ;  uncertainty k = 0.286498
         8         7         6        20     9      180.000000        0.206442         4    ;  uncertainty k = 0.057403
         8         7         6        26     9        0.000000        0.274240         1    ;  uncertainty k = 1.325594
         8         7         6        26     9      180.000000        1.022071         2    ;  uncertainty k = 0.228492
         8         7         6        26     9        0.000000        0.494218         3    ;  uncertainty k = 0.218686
         8         7         6        26     9      180.000000        0.266412         4    ;  uncertainty k = 0.180131
         8         7        19        11     9        0.000000       -0.323238         1    ;  uncertainty k = 0.406475
         8         7        19        11     9      180.000000       11.529078         2    ;  uncertainty k = 0.127579
         8         7        19        11     9        0.000000       -0.196287         3    ;  uncertainty k = 0.284121
         8         7        19        11     9      180.000000        0.968134         4    ;  uncertainty k = 0.218170
         8         7        19        40     9        0.000000        0.234007         1    ;  uncertainty k = 0.072619
         8         7        19        40     9      180.000000        7.779025         2    ;  uncertainty k = 0.502789
         8         7        19        40     9        0.000000        1.344506         3    ;  uncertainty k = 0.348274
         8         7        19        40     9      180.000000        1.661164         4    ;  uncertainty k = 0.188302
         8         9        10        11     9        0.000000       -0.070652         1    ;  uncertainty k = 0.254101
         8         9        10        11     9      180.000000       13.939841         2    ;  uncertainty k = 0.232406
         8         9        10        11     9        0.000000       -0.827410         3    ;  uncertainty k = 0.472724
         8         9        10        11     9      180.000000        0.716759         4    ;  uncertainty k = 0.230148
         8         9        10        35     9        0.000000        0.060518         1    ;  uncertainty k = 0.100016
         8         9        10        35     9      180.000000        7.675077         2    ;  uncertainty k = 0.237706
         8         9        10        35     9        0.000000        1.439550         3    ;  uncertainty k = 0.216333
         8         9        10        35     9      180.000000        1.817355         4    ;  uncertainty k = 0.221901
         9         8         7        19     9        0.000000       -0.262043         1    ;  uncertainty k = 0.271379
         9         8         7        19     9      180.000000       11.879317         2    ;  uncertainty k = 0.386846
         9         8         7        19     9        0.000000       -0.574067         3    ;  uncertainty k = 0.148044
         9         8         7        19     9      180.000000        0.846720         4    ;  uncertainty k = 0.263022
         9        10        11        12     9        0.000000        0.049063         1    ;  uncertainty k = 0.223194
         9        10        11        12     9      180.000000        8.981274         2    ;  uncertainty k = 0.562006
         9        10        11        12     9        0.000000        1.186843         3    ;  uncertainty k = 0.433239
         9        10        11        12     9      180.000000        1.736601         4    ;  uncertainty k = 0.174677
         9        10        11        19     9        0.000000        0.114713         1    ;  uncertainty k = 0.195355
         9        10        11        19     9      180.000000       11.115345         2    ;  uncertainty k = 0.236091
         9        10        11        19     9        0.000000       -0.439398         3    ;  uncertainty k = 0.365667
         9        10        11        19     9      180.000000        0.939844         4    ;  uncertainty k = 0.301343
        10         9         8        33     9        0.000000        0.037307         1    ;  uncertainty k = 0.102634
        10         9         8        33     9      180.000000        7.769488         2    ;  uncertainty k = 0.368241
        10         9         8        33     9        0.000000        1.363725         3    ;  uncertainty k = 0.222198
        10         9         8        33     9      180.000000        1.815663         4    ;  uncertainty k = 0.103774
        10        11        12        13     9        0.000000       -0.408717         1    ;  uncertainty k = 0.427326
        10        11        12        13     9      180.000000        3.910175         2    ;  uncertainty k = 0.069113
        10        11        12        13     9        0.000000        0.295018         3    ;  uncertainty k = 0.129989
        10        11        12        13     9      180.000000       -0.084564         4    ;  uncertainty k = 0.059893
        10        11        12        18     9        0.000000       -0.384458         1    ;  uncertainty k = 0.345316
        10        11        12        18     9      180.000000        3.939023         2    ;  uncertainty k = 0.071369
        10        11        12        18     9        0.000000        0.277955         3    ;  uncertainty k = 0.120919
        10        11        12        18     9      180.000000       -0.060721         4    ;  uncertainty k = 0.040687
        10        11        19        40     9        0.000000        0.106720         1    ;  uncertainty k = 0.145706
        10        11        19        40     9      180.000000        7.239728         2    ;  uncertainty k = 0.672655
        10        11        19        40     9        0.000000        1.415881         3    ;  uncertainty k = 0.119713
        10        11        19        40     9      180.000000        1.635979         4    ;  uncertainty k = 0.238344
        11        10         9        34     9        0.000000        0.004847         1    ;  uncertainty k = 0.185506
        11        10         9        34     9      180.000000        7.682976         2    ;  uncertainty k = 0.355739
        11        10         9        34     9        0.000000        1.346210         3    ;  uncertainty k = 0.215124
        11        10         9        34     9      180.000000        1.832713         4    ;  uncertainty k = 0.197660
        11        12        13        14     9        0.000000       -0.012184         1    ;  uncertainty k = 0.227422
        11        12        13        14     9      180.000000        8.758916         2    ;  uncertainty k = 0.613456
        11        12        13        14     9        0.000000        1.208763         3    ;  uncertainty k = 0.406041
        11        12        13        14     9      180.000000        1.774600         4    ;  uncertainty k = 0.160441
        11        12        13        36     9        0.000000       -0.232931         1    ;  uncertainty k = 0.316357
        11        12        13        36     9      180.000000        7.089907         2    ;  uncertainty k = 0.463207
        11        12        13        36     9        0.000000        0.824541         3    ;  uncertainty k = 0.159656
        11        12        13        36     9      180.000000        1.171341         4    ;  uncertainty k = 0.211972
        11        12        18        16     9        0.000000        0.081828         1    ;  uncertainty k = 0.177881
        11        12        18        16     9      180.000000        8.977720         2    ;  uncertainty k = 0.389832
        11        12        18        16     9        0.000000        1.285568         3    ;  uncertainty k = 0.282771
        11        12        18        16     9      180.000000        1.701574         4    ;  uncertainty k = 0.067432
        11        12        18        39     9        0.000000       -0.199323         1    ;  uncertainty k = 0.276022
        11        12        18        39     9      180.000000        7.103118         2    ;  uncertainty k = 0.424012
        11        12        18        39     9        0.000000        0.828276         3    ;  uncertainty k = 0.177369
        11        12        18        39     9      180.000000        1.171127         4    ;  uncertainty k = 0.201356
        12        11        10        35     9        0.000000       -0.135990         1    ;  uncertainty k = 0.280066
        12        11        10        35     9      180.000000        7.186357         2    ;  uncertainty k = 0.470276
        12        11        10        35     9        0.000000        0.826873         3    ;  uncertainty k = 0.116547
        12        11        10        35     9      180.000000        1.194064         4    ;  uncertainty k = 0.174598
        12        11        19        40     9        0.000000       -0.082784         1    ;  uncertainty k = 0.193595
        12        11        19        40     9      180.000000        7.397295         2    ;  uncertainty k = 0.300609
        12        11        19        40     9        0.000000        0.844557         3    ;  uncertainty k = 0.162415
        12        11        19        40     9      180.000000        1.285067         4    ;  uncertainty k = 0.181194
        12        13        14        15     9        0.000000       -0.042208         1    ;  uncertainty k = 0.231516
        12        13        14        15     9      180.000000       14.171992         2    ;  uncertainty k = 0.189515
        12        13        14        15     9        0.000000       -0.870742         3    ;  uncertainty k = 0.485056
        12        13        14        15     9      180.000000        0.699208         4    ;  uncertainty k = 0.253427
        12        13        14        37     9        0.000000        0.022682         1    ;  uncertainty k = 0.242894
        12        13        14        37     9      180.000000        7.703945         2    ;  uncertainty k = 0.339132
        12        13        14        37     9        0.000000        1.372428         3    ;  uncertainty k = 0.261098
        12        13        14        37     9      180.000000        1.835688         4    ;  uncertainty k = 0.149482
        12        18        16        15     9        0.000000       -0.010279         1    ;  uncertainty k = 0.315076
        12        18        16        15     9      180.000000        9.861218         2    ;  uncertainty k = 0.417908
        12        18        16        15     9        0.000000       -0.044172         3    ;  uncertainty k = 0.331365
        12        18        16        15     9      180.000000        1.160540         4    ;  uncertainty k = 0.311928
        12        18        16        17     9        0.000000        0.036466         1    ;  uncertainty k = 0.115484
        12        18        16        17     9      180.000000        9.485434         2    ;  uncertainty k = 0.578648
        12        18        16        17     9        0.000000        1.367643         3    ;  uncertainty k = 0.425703
        12        18        16        17     9      180.000000        1.685065         4    ;  uncertainty k = 0.101287
        13        12        11        19     9        0.000000       -0.185893         1    ;  uncertainty k = 0.455742
        13        12        11        19     9      180.000000        4.198174         2    ;  uncertainty k = 0.148441
        13        12        11        19     9        0.000000        0.275924         3    ;  uncertainty k = 0.160893
        13        12        11        19     9      180.000000        0.004175         4    ;  uncertainty k = 0.053081
        13        12        18        16     9        0.000000        0.112971         1    ;  uncertainty k = 0.107592
        13        12        18        16     9      180.000000       11.459687         2    ;  uncertainty k = 0.265370
        13        12        18        16     9        0.000000       -0.359029         3    ;  uncertainty k = 0.399359
        13        12        18        16     9      180.000000        0.945001         4    ;  uncertainty k = 0.278886
        13        12        18        39     9        0.000000        0.189437         1    ;  uncertainty k = 0.134814
        13        12        18        39     9      180.000000        6.927558         2    ;  uncertainty k = 0.531254
        13        12        18        39     9        0.000000        1.476130         3    ;  uncertainty k = 0.227215
        13        12        18        39     9      180.000000        1.643457         4    ;  uncertainty k = 0.236171
        13        14        15        16     9        0.000000        0.034101         1    ;  uncertainty k = 0.181604
        13        14        15        16     9      180.000000       14.637857         2    ;  uncertainty k = 0.207905
        13        14        15        16     9        0.000000       -1.037223         3    ;  uncertainty k = 0.574419
        13        14        15        16     9      180.000000        0.689985         4    ;  uncertainty k = 0.252256
        13        14        15        38     9        0.000000        0.080158         1    ;  uncertainty k = 0.044172
        13        14        15        38     9      180.000000        7.631926         2    ;  uncertainty k = 0.319813
        13        14        15        38     9        0.000000        1.497160         3    ;  uncertainty k = 0.267180
        13        14        15        38     9      180.000000        1.800300         4    ;  uncertainty k = 0.165698
        14        13        12        18     9        0.000000       -0.014258         1    ;  uncertainty k = 0.046197
        14        13        12        18     9      180.000000       11.353969         2    ;  uncertainty k = 0.284679
        14        13        12        18     9        0.000000       -0.419125         3    ;  uncertainty k = 0.329524
        14        13        12        18     9      180.000000        0.851477         4    ;  uncertainty k = 0.284931
        14        15        16        17     9        0.000000        0.039415         1    ;  uncertainty k = 0.185710
        14        15        16        17     9      180.000000        9.400893         2    ;  uncertainty k = 0.673917
        14        15        16        17     9        0.000000        1.522713         3    ;  uncertainty k = 0.432767
        14        15        16        17     9      180.000000        1.637619         4    ;  uncertainty k = 0.162550
        14        15        16        18     9        0.000000       -0.035280         1    ;  uncertainty k = 0.114525
        14        15        16        18     9      180.000000       10.458549         2    ;  uncertainty k = 0.352853
        14        15        16        18     9        0.000000       -0.351603         3    ;  uncertainty k = 0.544621
        14        15        16        18     9      180.000000        0.999885         4    ;  uncertainty k = 0.326950
        15        14        13        36     9        0.000000        0.052492         1    ;  uncertainty k = 0.058933
        15        14        13        36     9      180.000000        7.952025         2    ;  uncertainty k = 0.267693
        15        14        13        36     9        0.000000        1.470677         3    ;  uncertainty k = 0.256858
        15        14        13        36     9      180.000000        1.851650         4    ;  uncertainty k = 0.164394
        15        16        18        39     9        0.000000       -0.045894         1    ;  uncertainty k = 0.245308
        15        16        18        39     9      180.000000        6.349827         2    ;  uncertainty k = 0.564331
        15        16        18        39     9        0.000000        1.416183         3    ;  uncertainty k = 0.310677
        15        16        18        39     9      180.000000        1.600596         4    ;  uncertainty k = 0.148712
        16        15        14        37     9        0.000000        0.013468         1    ;  uncertainty k = 0.140073
        16        15        14        37     9      180.000000        7.595964         2    ;  uncertainty k = 0.326738
        16        15        14        37     9        0.000000        1.451185         3    ;  uncertainty k = 0.275083
        16        15        14        37     9      180.000000        1.856285         4    ;  uncertainty k = 0.184737
        17        16        15        38     9        0.000000       -0.148143         1    ;  uncertainty k = 0.212406
        17        16        15        38     9      180.000000        7.328406         2    ;  uncertainty k = 0.291145
        17        16        15        38     9        0.000000        0.580550         3    ;  uncertainty k = 0.353024
        17        16        15        38     9      180.000000        0.942602         4    ;  uncertainty k = 0.155636
        17        16        18        39     9        0.000000       -0.243273         1    ;  uncertainty k = 0.262027
        17        16        18        39     9      180.000000        7.505922         2    ;  uncertainty k = 0.286011
        17        16        18        39     9        0.000000        0.606748         3    ;  uncertainty k = 0.290520
        17        16        18        39     9      180.000000        1.026417         4    ;  uncertainty k = 0.149534
        18        12        11        19     9        0.000000       -0.141167         1    ;  uncertainty k = 0.360880
        18        12        11        19     9      180.000000        4.208986         2    ;  uncertainty k = 0.137035
        18        12        11        19     9        0.000000        0.238850         3    ;  uncertainty k = 0.164831
        18        12        11        19     9      180.000000        0.026659         4    ;  uncertainty k = 0.047553
        18        12        13        36     9        0.000000        0.134271         1    ;  uncertainty k = 0.144927
        18        12        13        36     9      180.000000        6.905300         2    ;  uncertainty k = 0.558345
        18        12        13        36     9        0.000000        1.477109         3    ;  uncertainty k = 0.223699
        18        12        13        36     9      180.000000        1.638260         4    ;  uncertainty k = 0.236471
        18        16        15        38     9        0.000000        0.008766         1    ;  uncertainty k = 0.120183
        18        16        15        38     9      180.000000        6.217605         2    ;  uncertainty k = 0.626406
        18        16        15        38     9        0.000000        1.411019         3    ;  uncertainty k = 0.350781
        18        16        15        38     9      180.000000        1.518245         4    ;  uncertainty k = 0.154069
        19         7         6        20     9        0.000000       -0.230309         1    ;  uncertainty k = 0.541962
        19         7         6        20     9      180.000000        2.171694         2    ;  uncertainty k = 0.291222
        19         7         6        20     9        0.000000        0.337463         3    ;  uncertainty k = 0.311913
        19         7         6        20     9      180.000000        0.204150         4    ;  uncertainty k = 0.068916
        19         7         6        26     9        0.000000        0.263957         1    ;  uncertainty k = 1.348240
        19         7         6        26     9      180.000000        1.037394         2    ;  uncertainty k = 0.225761
        19         7         6        26     9        0.000000        0.441424         3    ;  uncertainty k = 0.199339
        19         7         6        26     9      180.000000        0.278294         4    ;  uncertainty k = 0.181971
        19         7         8        33     9        0.000000        0.247461         1    ;  uncertainty k = 0.173203
        19         7         8        33     9      180.000000        7.580634         2    ;  uncertainty k = 0.535691
        19         7         8        33     9        0.000000        1.318094         3    ;  uncertainty k = 0.337831
        19         7         8        33     9      180.000000        1.655168         4    ;  uncertainty k = 0.210943
        19        11        10        35     9        0.000000        0.189700         1    ;  uncertainty k = 0.183167
        19        11        10        35     9      180.000000        7.059533         2    ;  uncertainty k = 0.454516
        19        11        10        35     9        0.000000        1.396096         3    ;  uncertainty k = 0.227750
        19        11        10        35     9      180.000000        1.599819         4    ;  uncertainty k = 0.258659
        20         6         5        32     9        0.000000        1.811067         1    ;  uncertainty k = 1.639430
        20         6         5        32     9      180.000000       -0.233166         2    ;  uncertainty k = 1.487300
        20         6         5        32     9        0.000000        0.608633         3    ;  uncertainty k = 0.189756
        20         6         5        32     9      180.000000        0.062988         4    ;  uncertainty k = 0.106555
        20         6        26        27     9        0.000000       -0.989716         1    ;  uncertainty k = 1.172303
        20         6        26        27     9      180.000000        4.340493         2    ;  uncertainty k = 0.622109
        20         6        26        27     9        0.000000        0.353866         3    ;  uncertainty k = 0.297401
        20         6        26        27     9      180.000000       -0.016603         4    ;  uncertainty k = 0.280509
        20        21        22        23     9        0.000000       -6.461159         1    ;  uncertainty k = 1.328548
        20        21        22        23     9      180.000000       -0.100490         2    ;  uncertainty k = 0.483215
        20        21        22        23     9        0.000000        1.784215         3    ;  uncertainty k = 0.214873
        20        21        22        23     9      180.000000       -1.161062         4    ;  uncertainty k = 0.137319
        20        21        22        44     9        0.000000       -1.060916         1    ;  uncertainty k = 0.287467
        20        21        22        44     9      180.000000       -0.743423         2    ;  uncertainty k = 0.096885
        20        21        22        44     9        0.000000        0.481063         3    ;  uncertainty k = 0.163943
        20        21        22        44     9      180.000000       -0.055450         4    ;  uncertainty k = 0.083522
        20        21        22        45     9        0.000000       -1.060916         1    ;  uncertainty k = 0.287467
        20        21        22        45     9      180.000000       -0.743423         2    ;  uncertainty k = 0.096885
        20        21        22        45     9        0.000000        0.481063         3    ;  uncertainty k = 0.163943
        20        21        22        45     9      180.000000       -0.055450         4    ;  uncertainty k = 0.083522
        20        25        24        23     9        0.000000       -6.461159         1    ;  uncertainty k = 1.328548
        20        25        24        23     9      180.000000       -0.100490         2    ;  uncertainty k = 0.483215
        20        25        24        23     9        0.000000        1.784215         3    ;  uncertainty k = 0.214873
        20        25        24        23     9      180.000000       -1.161062         4    ;  uncertainty k = 0.137319
        20        25        24        48     9        0.000000       -1.060916         1    ;  uncertainty k = 0.287467
        20        25        24        48     9      180.000000       -0.743423         2    ;  uncertainty k = 0.096885
        20        25        24        48     9        0.000000        0.481063         3    ;  uncertainty k = 0.163943
        20        25        24        48     9      180.000000       -0.055450         4    ;  uncertainty k = 0.083522
        20        25        24        49     9        0.000000       -1.060916         1    ;  uncertainty k = 0.287467
        20        25        24        49     9      180.000000       -0.743423         2    ;  uncertainty k = 0.096885
        20        25        24        49     9        0.000000        0.481063         3    ;  uncertainty k = 0.163943
        20        25        24        49     9      180.000000       -0.055450         4    ;  uncertainty k = 0.083522
        21        20         6        26     9        0.000000       -1.515743         1    ;  uncertainty k = 0.724172
        21        20         6        26     9      180.000000       -0.328517         2    ;  uncertainty k = 0.212031
        21        20         6        26     9        0.000000        0.507739         3    ;  uncertainty k = 0.128054
        21        20         6        26     9      180.000000       -0.153289         4    ;  uncertainty k = 0.131065
        21        20        25        24     9        0.000000       -5.816089         1    ;  uncertainty k = 1.247110
        21        20        25        24     9      180.000000        0.619014         2    ;  uncertainty k = 0.758555
        21        20        25        24     9        0.000000        1.471325         3    ;  uncertainty k = 0.244671
        21        20        25        24     9      180.000000       -1.314350         4    ;  uncertainty k = 0.211233
        21        20        25        50     9        0.000000       -1.230223         1    ;  uncertainty k = 0.232207
        21        20        25        50     9      180.000000       -0.412526         2    ;  uncertainty k = 0.270949
        21        20        25        50     9        0.000000        0.338964         3    ;  uncertainty k = 0.182311
        21        20        25        50     9      180.000000       -0.057571         4    ;  uncertainty k = 0.050456
        21        20        25        51     9        0.000000       -1.230223         1    ;  uncertainty k = 0.232207
        21        20        25        51     9      180.000000       -0.412526         2    ;  uncertainty k = 0.270949
        21        20        25        51     9        0.000000        0.338964         3    ;  uncertainty k = 0.182311
        21        20        25        51     9      180.000000       -0.057571         4    ;  uncertainty k = 0.050456
        21        22        23        24     9        0.000000       -9.605420         1    ;  uncertainty k = 1.971372
        21        22        23        24     9      180.000000        1.414514         2    ;  uncertainty k = 0.586135
        21        22        23        24     9        0.000000        2.001706         3    ;  uncertainty k = 0.130425
        21        22        23        24     9      180.000000       -1.380144         4    ;  uncertainty k = 0.228234
        21        22        23        46     9        0.000000       -2.121592         1    ;  uncertainty k = 0.252183
        21        22        23        46     9      180.000000       -0.161833         2    ;  uncertainty k = 0.188496
        21        22        23        46     9        0.000000        0.539797         3    ;  uncertainty k = 0.168552
        21        22        23        46     9      180.000000       -0.100943         4    ;  uncertainty k = 0.034190
        21        22        23        47     9        0.000000       -2.121592         1    ;  uncertainty k = 0.252183
        21        22        23        47     9      180.000000       -0.161833         2    ;  uncertainty k = 0.188496
        21        22        23        47     9        0.000000        0.539797         3    ;  uncertainty k = 0.168552
        21        22        23        47     9      180.000000       -0.100943         4    ;  uncertainty k = 0.034190
        22        21        20        25     9        0.000000       -5.816089         1    ;  uncertainty k = 1.247110
        22        21        20        25     9      180.000000        0.619014         2    ;  uncertainty k = 0.758555
        22        21        20        25     9        0.000000        1.471325         3    ;  uncertainty k = 0.244671
        22        21        20        25     9      180.000000       -1.314350         4    ;  uncertainty k = 0.211233
        22        21        20        41     9        0.000000       -2.588506         1    ;  uncertainty k = 0.341593
        22        21        20        41     9      180.000000        0.486952         2    ;  uncertainty k = 0.226305
        22        21        20        41     9        0.000000        0.101139         3    ;  uncertainty k = 0.191611
        22        21        20        41     9      180.000000       -0.227075         4    ;  uncertainty k = 0.104750
        22        23        24        25     9        0.000000       -9.605420         1    ;  uncertainty k = 1.971372
        22        23        24        25     9      180.000000        1.414514         2    ;  uncertainty k = 0.586135
        22        23        24        25     9        0.000000        2.001706         3    ;  uncertainty k = 0.130425
        22        23        24        25     9      180.000000       -1.380144         4    ;  uncertainty k = 0.228234
        22        23        24        48     9        0.000000       -1.875877         1    ;  uncertainty k = 0.407281
        22        23        24        48     9      180.000000       -0.283307         2    ;  uncertainty k = 0.126679
        22        23        24        48     9        0.000000        0.533264         3    ;  uncertainty k = 0.116382
        22        23        24        48     9      180.000000       -0.033410         4    ;  uncertainty k = 0.027462
        22        23        24        49     9        0.000000       -1.875877         1    ;  uncertainty k = 0.407281
        22        23        24        49     9      180.000000       -0.283307         2    ;  uncertainty k = 0.126679
        22        23        24        49     9        0.000000        0.533264         3    ;  uncertainty k = 0.116382
        22        23        24        49     9      180.000000       -0.033410         4    ;  uncertainty k = 0.027462
        23        22        21        42     9        0.000000       -1.902448         1    ;  uncertainty k = 0.409684
        23        22        21        42     9      180.000000       -0.191558         2    ;  uncertainty k = 0.078835
        23        22        21        42     9        0.000000        0.587992         3    ;  uncertainty k = 0.114894
        23        22        21        42     9      180.000000       -0.037086         4    ;  uncertainty k = 0.059216
        23        22        21        43     9        0.000000       -1.902448         1    ;  uncertainty k = 0.409684
        23        22        21        43     9      180.000000       -0.191558         2    ;  uncertainty k = 0.078835
        23        22        21        43     9        0.000000        0.587992         3    ;  uncertainty k = 0.114894
        23        22        21        43     9      180.000000       -0.037086         4    ;  uncertainty k = 0.059216
        23        24        25        50     9        0.000000       -1.902448         1    ;  uncertainty k = 0.409684
        23        24        25        50     9      180.000000       -0.191558         2    ;  uncertainty k = 0.078835
        23        24        25        50     9        0.000000        0.587992         3    ;  uncertainty k = 0.114894
        23        24        25        50     9      180.000000       -0.037086         4    ;  uncertainty k = 0.059216
        23        24        25        51     9        0.000000       -1.902448         1    ;  uncertainty k = 0.409684
        23        24        25        51     9      180.000000       -0.191558         2    ;  uncertainty k = 0.078835
        23        24        25        51     9        0.000000        0.587992         3    ;  uncertainty k = 0.114894
        23        24        25        51     9      180.000000       -0.037086         4    ;  uncertainty k = 0.059216
        24        23        22        44     9        0.000000       -1.875877         1    ;  uncertainty k = 0.407281
        24        23        22        44     9      180.000000       -0.283307         2    ;  uncertainty k = 0.126679
        24        23        22        44     9        0.000000        0.533264         3    ;  uncertainty k = 0.116382
        24        23        22        44     9      180.000000       -0.033410         4    ;  uncertainty k = 0.027462
        24        23        22        45     9        0.000000       -1.875877         1    ;  uncertainty k = 0.407281
        24        23        22        45     9      180.000000       -0.283307         2    ;  uncertainty k = 0.126679
        24        23        22        45     9        0.000000        0.533264         3    ;  uncertainty k = 0.116382
        24        23        22        45     9      180.000000       -0.033410         4    ;  uncertainty k = 0.027462
        24        25        20        41     9        0.000000       -2.588506         1    ;  uncertainty k = 0.341593
        24        25        20        41     9      180.000000        0.486952         2    ;  uncertainty k = 0.226305
        24        25        20        41     9        0.000000        0.101139         3    ;  uncertainty k = 0.191611
        24        25        20        41     9      180.000000       -0.227075         4    ;  uncertainty k = 0.104750
        25        20         6        26     9        0.000000       -1.515743         1    ;  uncertainty k = 0.724172
        25        20         6        26     9      180.000000       -0.328517         2    ;  uncertainty k = 0.212031
        25        20         6        26     9        0.000000        0.507739         3    ;  uncertainty k = 0.128054
        25        20         6        26     9      180.000000       -0.153289         4    ;  uncertainty k = 0.131065
        25        20        21        42     9        0.000000       -1.230223         1    ;  uncertainty k = 0.232207
        25        20        21        42     9      180.000000       -0.412526         2    ;  uncertainty k = 0.270949
        25        20        21        42     9        0.000000        0.338964         3    ;  uncertainty k = 0.182311
        25        20        21        42     9      180.000000       -0.057571         4    ;  uncertainty k = 0.050456
        25        20        21        43     9        0.000000       -1.230223         1    ;  uncertainty k = 0.232207
        25        20        21        43     9      180.000000       -0.412526         2    ;  uncertainty k = 0.270949
        25        20        21        43     9        0.000000        0.338964         3    ;  uncertainty k = 0.182311
        25        20        21        43     9      180.000000       -0.057571         4    ;  uncertainty k = 0.050456
        25        24        23        46     9        0.000000       -2.121592         1    ;  uncertainty k = 0.252183
        25        24        23        46     9      180.000000       -0.161833         2    ;  uncertainty k = 0.188496
        25        24        23        46     9        0.000000        0.539797         3    ;  uncertainty k = 0.168552
        25        24        23        46     9      180.000000       -0.100943         4    ;  uncertainty k = 0.034190
        25        24        23        47     9        0.000000       -2.121592         1    ;  uncertainty k = 0.252183
        25        24        23        47     9      180.000000       -0.161833         2    ;  uncertainty k = 0.188496
        25        24        23        47     9        0.000000        0.539797         3    ;  uncertainty k = 0.168552
        25        24        23        47     9      180.000000       -0.100943         4    ;  uncertainty k = 0.034190
        26         2         1        28     9        0.000000        0.280163         1    ;  uncertainty k = 0.439264
        26         2         1        28     9      180.000000        0.067504         2    ;  uncertainty k = 0.247645
        26         2         1        28     9        0.000000        0.340708         3    ;  uncertainty k = 0.210561
        26         2         1        28     9      180.000000        0.311439         4    ;  uncertainty k = 0.056168
        26         2         1        29     9        0.000000        0.280163         1    ;  uncertainty k = 0.439264
        26         2         1        29     9      180.000000        0.067504         2    ;  uncertainty k = 0.247645
        26         2         1        29     9        0.000000        0.340708         3    ;  uncertainty k = 0.210561
        26         2         1        29     9      180.000000        0.311439         4    ;  uncertainty k = 0.056168
        26         2         1        30     9        0.000000        0.280163         1    ;  uncertainty k = 0.439264
        26         2         1        30     9      180.000000        0.067504         2    ;  uncertainty k = 0.247645
        26         2         1        30     9        0.000000        0.340708         3    ;  uncertainty k = 0.210561
        26         2         1        30     9      180.000000        0.311439         4    ;  uncertainty k = 0.056168
        26         6         5        32     9        0.000000       -0.057074         1    ;  uncertainty k = 2.585359
        26         6         5        32     9      180.000000        0.239604         2    ;  uncertainty k = 2.071543
        26         6         5        32     9        0.000000        0.348734         3    ;  uncertainty k = 0.416192
        26         6         5        32     9      180.000000       -0.010479         4    ;  uncertainty k = 0.191206
        26         6        20        41     9        0.000000        1.080108         1    ;  uncertainty k = 0.349460
        26         6        20        41     9      180.000000       -1.231059         2    ;  uncertainty k = 0.381619
        26         6        20        41     9        0.000000        0.057656         3    ;  uncertainty k = 0.210467
        26         6        20        41     9      180.000000       -0.144906         4    ;  uncertainty k = 0.065701
        33         8         9        34     9        0.000000       -0.128120         1    ;  uncertainty k = 0.371508
        33         8         9        34     9      180.000000        7.826352         2    ;  uncertainty k = 0.321928
        33         8         9        34     9        0.000000       -0.498915         3    ;  uncertainty k = 0.317478
        33         8         9        34     9      180.000000        0.143577         4    ;  uncertainty k = 0.179324
        34         9        10        35     9        0.000000       -0.091342         1    ;  uncertainty k = 0.201671
        34         9        10        35     9      180.000000        7.955099         2    ;  uncertainty k = 0.286442
        34         9        10        35     9        0.000000       -0.501359         3    ;  uncertainty k = 0.277132
        34         9        10        35     9      180.000000        0.117607         4    ;  uncertainty k = 0.149001
        36        13        14        37     9        0.000000       -0.071839         1    ;  uncertainty k = 0.139578
        36        13        14        37     9      180.000000        7.837294         2    ;  uncertainty k = 0.341150
        36        13        14        37     9        0.000000       -0.474130         3    ;  uncertainty k = 0.274221
        36        13        14        37     9      180.000000        0.116282         4    ;  uncertainty k = 0.133077
        37        14        15        38     9        0.000000       -0.080243         1    ;  uncertainty k = 0.065184
        37        14        15        38     9      180.000000        7.728194         2    ;  uncertainty k = 0.460598
        37        14        15        38     9        0.000000       -0.435760         3    ;  uncertainty k = 0.241595
        37        14        15        38     9      180.000000        0.035510         4    ;  uncertainty k = 0.167623
        41        20        21        42     9        0.000000        1.536854         1    ;  uncertainty k = 0.229591
        41        20        21        42     9      180.000000       -0.312690         2    ;  uncertainty k = 0.139279
        41        20        21        42     9        0.000000       -0.200086         3    ;  uncertainty k = 0.022083
        41        20        21        42     9      180.000000        0.055347         4    ;  uncertainty k = 0.063798
        41        20        21        43     9        0.000000        1.536854         1    ;  uncertainty k = 0.229591
        41        20        21        43     9      180.000000       -0.312690         2    ;  uncertainty k = 0.139279
        41        20        21        43     9        0.000000       -0.200086         3    ;  uncertainty k = 0.022083
        41        20        21        43     9      180.000000        0.055347         4    ;  uncertainty k = 0.063798
        41        20        25        50     9        0.000000        1.536854         1    ;  uncertainty k = 0.229591
        41        20        25        50     9      180.000000       -0.312690         2    ;  uncertainty k = 0.139279
        41        20        25        50     9        0.000000       -0.200086         3    ;  uncertainty k = 0.022083
        41        20        25        50     9      180.000000        0.055347         4    ;  uncertainty k = 0.063798
        41        20        25        51     9        0.000000        1.536854         1    ;  uncertainty k = 0.229591
        41        20        25        51     9      180.000000       -0.312690         2    ;  uncertainty k = 0.139279
        41        20        25        51     9        0.000000       -0.200086         3    ;  uncertainty k = 0.022083
        41        20        25        51     9      180.000000        0.055347         4    ;  uncertainty k = 0.063798
        42        21        22        44     9        0.000000        2.475954         1    ;  uncertainty k = 0.524713
        42        21        22        44     9      180.000000       -0.207293         2    ;  uncertainty k = 0.096009
        42        21        22        44     9        0.000000        0.296993         3    ;  uncertainty k = 0.090442
        42        21        22        44     9      180.000000        0.129252         4    ;  uncertainty k = 0.032452
        42        21        22        45     9        0.000000        2.475954         1    ;  uncertainty k = 0.524713
        42        21        22        45     9      180.000000       -0.207293         2    ;  uncertainty k = 0.096009
        42        21        22        45     9        0.000000        0.296993         3    ;  uncertainty k = 0.090442
        42        21        22        45     9      180.000000        0.129252         4    ;  uncertainty k = 0.032452
        43        21        22        44     9        0.000000        2.475954         1    ;  uncertainty k = 0.524713
        43        21        22        44     9      180.000000       -0.207293         2    ;  uncertainty k = 0.096009
        43        21        22        44     9        0.000000        0.296993         3    ;  uncertainty k = 0.090442
        43        21        22        44     9      180.000000        0.129252         4    ;  uncertainty k = 0.032452
        43        21        22        45     9        0.000000        2.475954         1    ;  uncertainty k = 0.524713
        43        21        22        45     9      180.000000       -0.207293         2    ;  uncertainty k = 0.096009
        43        21        22        45     9        0.000000        0.296993         3    ;  uncertainty k = 0.090442
        43        21        22        45     9      180.000000        0.129252         4    ;  uncertainty k = 0.032452
        44        22        23        46     9        0.000000        2.689943         1    ;  uncertainty k = 0.514782
        44        22        23        46     9      180.000000       -0.218162         2    ;  uncertainty k = 0.087341
        44        22        23        46     9        0.000000        0.245013         3    ;  uncertainty k = 0.073048
        44        22        23        46     9      180.000000        0.106437         4    ;  uncertainty k = 0.045767
        44        22        23        47     9        0.000000        2.689943         1    ;  uncertainty k = 0.514782
        44        22        23        47     9      180.000000       -0.218162         2    ;  uncertainty k = 0.087341
        44        22        23        47     9        0.000000        0.245013         3    ;  uncertainty k = 0.073048
        44        22        23        47     9      180.000000        0.106437         4    ;  uncertainty k = 0.045767
        45        22        23        46     9        0.000000        2.689943         1    ;  uncertainty k = 0.514782
        45        22        23        46     9      180.000000       -0.218162         2    ;  uncertainty k = 0.087341
        45        22        23        46     9        0.000000        0.245013         3    ;  uncertainty k = 0.073048
        45        22        23        46     9      180.000000        0.106437         4    ;  uncertainty k = 0.045767
        45        22        23        47     9        0.000000        2.689943         1    ;  uncertainty k = 0.514782
        45        22        23        47     9      180.000000       -0.218162         2    ;  uncertainty k = 0.087341
        45        22        23        47     9        0.000000        0.245013         3    ;  uncertainty k = 0.073048
        45        22        23        47     9      180.000000        0.106437         4    ;  uncertainty k = 0.045767
        46        23        24        48     9        0.000000        2.689943         1    ;  uncertainty k = 0.514782
        46        23        24        48     9      180.000000       -0.218162         2    ;  uncertainty k = 0.087341
        46        23        24        48     9        0.000000        0.245013         3    ;  uncertainty k = 0.073048
        46        23        24        48     9      180.000000        0.106437         4    ;  uncertainty k = 0.045767
        46        23        24        49     9        0.000000        2.689943         1    ;  uncertainty k = 0.514782
        46        23        24        49     9      180.000000       -0.218162         2    ;  uncertainty k = 0.087341
        46        23        24        49     9        0.000000        0.245013         3    ;  uncertainty k = 0.073048
        46        23        24        49     9      180.000000        0.106437         4    ;  uncertainty k = 0.045767
        47        23        24        48     9        0.000000        2.689943         1    ;  uncertainty k = 0.514782
        47        23        24        48     9      180.000000       -0.218162         2    ;  uncertainty k = 0.087341
        47        23        24        48     9        0.000000        0.245013         3    ;  uncertainty k = 0.073048
        47        23        24        48     9      180.000000        0.106437         4    ;  uncertainty k = 0.045767
        47        23        24        49     9        0.000000        2.689943         1    ;  uncertainty k = 0.514782
        47        23        24        49     9      180.000000       -0.218162         2    ;  uncertainty k = 0.087341
        47        23        24        49     9        0.000000        0.245013         3    ;  uncertainty k = 0.073048
        47        23        24        49     9      180.000000        0.106437         4    ;  uncertainty k = 0.045767
        48        24        25        50     9        0.000000        2.475954         1    ;  uncertainty k = 0.524713
        48        24        25        50     9      180.000000       -0.207293         2    ;  uncertainty k = 0.096009
        48        24        25        50     9        0.000000        0.296993         3    ;  uncertainty k = 0.090442
        48        24        25        50     9      180.000000        0.129252         4    ;  uncertainty k = 0.032452
        48        24        25        51     9        0.000000        2.475954         1    ;  uncertainty k = 0.524713
        48        24        25        51     9      180.000000       -0.207293         2    ;  uncertainty k = 0.096009
        48        24        25        51     9        0.000000        0.296993         3    ;  uncertainty k = 0.090442
        48        24        25        51     9      180.000000        0.129252         4    ;  uncertainty k = 0.032452
        49        24        25        50     9        0.000000        2.475954         1    ;  uncertainty k = 0.524713
        49        24        25        50     9      180.000000       -0.207293         2    ;  uncertainty k = 0.096009
        49        24        25        50     9        0.000000        0.296993         3    ;  uncertainty k = 0.090442
        49        24        25        50     9      180.000000        0.129252         4    ;  uncertainty k = 0.032452
        49        24        25        51     9        0.000000        2.475954         1    ;  uncertainty k = 0.524713
        49        24        25        51     9      180.000000       -0.207293         2    ;  uncertainty k = 0.096009
        49        24        25        51     9        0.000000        0.296993         3    ;  uncertainty k = 0.090442
        49        24        25        51     9      180.000000        0.129252         4    ;  uncertainty k = 0.032452

[ dihedrals ] ; impropers
;       ai        aj        ak        al funct           phase               k        pn
         2         1         3        26     4      180.000000        1.824331         2    ;  uncertainty k = 0.607581
         2         3        26         1     4      180.000000        1.824331         2    ;  uncertainty k = 0.607581
         2        26         1         3     4      180.000000        1.824331         2    ;  uncertainty k = 0.607581
         3         2         4         5     4      180.000000       30.536270         2    ;  uncertainty k = 0.128905
         3         4         5         2     4      180.000000       30.536270         2    ;  uncertainty k = 0.128905
         3         5         2         4     4      180.000000       30.536270         2    ;  uncertainty k = 0.128905
         4         3        31        52     4      180.000000        0.177755         2    ;  uncertainty k = 0.397473
         4        31        52         3     4      180.000000        0.177755         2    ;  uncertainty k = 0.397473
         4        52         3        31     4      180.000000        0.177755         2    ;  uncertainty k = 0.397473
         7         6         8        19     4      180.000000       10.539108         2    ;  uncertainty k = 0.255266
         7         8        19         6     4      180.000000       10.539108         2    ;  uncertainty k = 0.255266
         7        19         6         8     4      180.000000       10.539108         2    ;  uncertainty k = 0.255266
         8         7         9        33     4      180.000000        3.798791         2    ;  uncertainty k = 0.227087
         8         9        33         7     4      180.000000        3.798791         2    ;  uncertainty k = 0.227087
         8        33         7         9     4      180.000000        3.798791         2    ;  uncertainty k = 0.227087
         9         8        10        34     4      180.000000        4.027897         2    ;  uncertainty k = 0.166766
         9        10        34         8     4      180.000000        4.027897         2    ;  uncertainty k = 0.166766
         9        34         8        10     4      180.000000        4.027897         2    ;  uncertainty k = 0.166766
        10         9        11        35     4      180.000000        4.561358         2    ;  uncertainty k = 0.119601
        10        11        35         9     4      180.000000        4.561358         2    ;  uncertainty k = 0.119601
        10        35         9        11     4      180.000000        4.561358         2    ;  uncertainty k = 0.119601
        11        10        12        19     4      180.000000       15.108741         2    ;  uncertainty k = 0.050334
        11        12        19        10     4      180.000000       15.108741         2    ;  uncertainty k = 0.050334
        11        19        10        12     4      180.000000       15.108741         2    ;  uncertainty k = 0.050334
        12        11        13        18     4      180.000000       14.796454         2    ;  uncertainty k = 0.057403
        12        13        18        11     4      180.000000       14.796454         2    ;  uncertainty k = 0.057403
        12        18        11        13     4      180.000000       14.796454         2    ;  uncertainty k = 0.057403
        13        12        14        36     4      180.000000        3.700190         2    ;  uncertainty k = 0.086941
        13        14        36        12     4      180.000000        3.700190         2    ;  uncertainty k = 0.086941
        13        36        12        14     4      180.000000        3.700190         2    ;  uncertainty k = 0.086941
        14        13        15        37     4      180.000000        4.249201         2    ;  uncertainty k = 0.103732
        14        15        37        13     4      180.000000        4.249201         2    ;  uncertainty k = 0.103732
        14        37        13        15     4      180.000000        4.249201         2    ;  uncertainty k = 0.103732
        15        14        16        38     4      180.000000        3.525376         2    ;  uncertainty k = 0.172938
        15        16        38        14     4      180.000000        3.525376         2    ;  uncertainty k = 0.172938
        15        38        14        16     4      180.000000        3.525376         2    ;  uncertainty k = 0.172938
        16        15        17        18     4      180.000000       13.371882         2    ;  uncertainty k = 0.047246
        16        17        18        15     4      180.000000       13.371882         2    ;  uncertainty k = 0.047246
        16        18        15        17     4      180.000000       13.371882         2    ;  uncertainty k = 0.047246
        18        12        16        39     4      180.000000        3.443518         2    ;  uncertainty k = 0.143382
        18        16        39        12     4      180.000000        3.443518         2    ;  uncertainty k = 0.143382
        18        39        12        16     4      180.000000        3.443518         2    ;  uncertainty k = 0.143382
        19         7        11        40     4      180.000000        4.286267         2    ;  uncertainty k = 0.298062
        19        11        40         7     4      180.000000        4.286267         2    ;  uncertainty k = 0.298062
        19        40         7        11     4      180.000000        4.286267         2    ;  uncertainty k = 0.298062
        26         2         6        27     4      180.000000       50.666460         2    ;  uncertainty k = 0.036491
        26         6        27         2     4      180.000000       50.666460         2    ;  uncertainty k = 0.036491
        26        27         2         6     4      180.000000       50.666460         2    ;  uncertainty k = 0.036491

[ pairs ]
;       ai        aj funct
         1         4     1
         1         5     1
         1         6     1
         1        27     1
         2         7     1
         2        20     1
         2        31     1
         2        32     1
         2        52     1
         3         7     1
         3        20     1
         3        27     1
         3        28     1
         3        29     1
         3        30     1
         4         6     1
         4        26     1
         4        32     1
         5         8     1
         5        19     1
         5        21     1
         5        25     1
         5        27     1
         5        31     1
         5        41     1
         5        52     1
         6         9     1
         6        11     1
         6        22     1
         6        24     1
         6        33     1
         6        40     1
         6        42     1
         6        43     1
         6        50     1
         6        51     1
         7        10     1
         7        12     1
         7        21     1
         7        25     1
         7        27     1
         7        32     1
         7        34     1
         7        41     1
         8        11     1
         8        20     1
         8        26     1
         8        35     1
         8        40     1
         9        12     1
         9        19     1
        10        13     1
        10        18     1
        10        33     1
        10        40     1
        11        14     1
        11        16     1
        11        34     1
        11        36     1
        11        39     1
        12        15     1
        12        17     1
        12        35     1
        12        37     1
        12        40     1
        13        16     1
        13        19     1
        13        38     1
        13        39     1
        14        17     1
        14        18     1
        15        36     1
        15        39     1
        16        37     1
        17        38     1
        17        39     1
        18        19     1
        18        36     1
        18        38     1
        19        20     1
        19        26     1
        19        33     1
        19        35     1
        20        23     1
        20        27     1
        20        32     1
        20        44     1
        20        45     1
        20        48     1
        20        49     1
        21        24     1
        21        26     1
        21        46     1
        21        47     1
        21        50     1
        21        51     1
        22        25     1
        22        41     1
        22        48     1
        22        49     1
        23        42     1
        23        43     1
        23        50     1
        23        51     1
        24        41     1
        24        44     1
        24        45     1
        25        26     1
        25        42     1
        25        43     1
        25        46     1
        25        47     1
        26        28     1
        26        29     1
        26        30     1
        26        32     1
        26        41     1
        33        34     1
        34        35     1
        36        37     1
        37        38     1
        41        42     1
        41        43     1
        41        50     1
        41        51     1
        42        44     1
        42        45     1
        43        44     1
        43        45     1
        44        46     1
        44        47     1
        45        46     1
        45        47     1
        46        48     1
        46        49     1
        47        48     1
        47        49     1
        48        50     1
        48        51     1
        49        50     1
        49        51     1
