; ITP file created by ByteFF-joint-25, 2026-02-18 03:15:56.156542

[ atomtypes ]
;name           bonded.type        at.num        mass        charge   ptype           sigma         epsilon
 c0bf                                   6      0.0000       0.00000       A     3.39732e-01     4.51256e-01    ;  uncertainty sigma = 0.000013, epsilon = 0.001265
 n1bf                                   7      0.0000       0.00000       A     3.18098e-01     6.83124e-01    ;  uncertainty sigma = 0.000073, epsilon = 0.006424
 c2bf                                   6      0.0000       0.00000       A     3.31512e-01     4.12381e-01    ;  uncertainty sigma = 0.000058, epsilon = 0.001500
 n3bf                                   7      0.0000       0.00000       A     3.36544e-01     4.71564e-01    ;  uncertainty sigma = 0.000086, epsilon = 0.005524
 n4bf                                   7      0.0000       0.00000       A     3.27488e-01     6.57271e-01    ;  uncertainty sigma = 0.000130, epsilon = 0.010556
 c5bf                                   6      0.0000       0.00000       A     3.39797e-01     4.51347e-01    ;  uncertainty sigma = 0.000040, epsilon = 0.003032
 c6bf                                   6      0.0000       0.00000       A     3.31581e-01     4.13815e-01    ;  uncertainty sigma = 0.000032, epsilon = 0.001364
 c7bf                                   6      0.0000       0.00000       A     3.31512e-01     4.13187e-01    ;  uncertainty sigma = 0.000002, epsilon = 0.000604
 c8bf                                   6      0.0000       0.00000       A     3.31520e-01     4.13286e-01    ;  uncertainty sigma = 0.000002, epsilon = 0.000576
 c9bf                                   6      0.0000       0.00000       A     3.31518e-01     4.13337e-01    ;  uncertainty sigma = 0.000003, epsilon = 0.000580
 c10bf                                  6      0.0000       0.00000       A     3.31520e-01     4.13286e-01    ;  uncertainty sigma = 0.000002, epsilon = 0.000576
 c11bf                                  6      0.0000       0.00000       A     3.31512e-01     4.13187e-01    ;  uncertainty sigma = 0.000002, epsilon = 0.000604
 c12bf                                  6      0.0000       0.00000       A     3.31582e-01     4.13992e-01    ;  uncertainty sigma = 0.000025, epsilon = 0.001348
 c13bf                                  6      0.0000       0.00000       A     3.31510e-01     4.13156e-01    ;  uncertainty sigma = 0.000002, epsilon = 0.000626
 c14bf                                  6      0.0000       0.00000       A     3.31522e-01     4.13312e-01    ;  uncertainty sigma = 0.000003, epsilon = 0.000635
 c15bf                                  6      0.0000       0.00000       A     3.31511e-01     4.13225e-01    ;  uncertainty sigma = 0.000005, epsilon = 0.000664
 c16bf                                  6      0.0000       0.00000       A     3.31510e-01     4.13604e-01    ;  uncertainty sigma = 0.000009, epsilon = 0.000894
 c17bf                                  6      0.0000       0.00000       A     3.31498e-01     4.12922e-01    ;  uncertainty sigma = 0.000009, epsilon = 0.000799
 c18bf                                  6      0.0000       0.00000       A     3.31517e-01     4.13379e-01    ;  uncertainty sigma = 0.000004, epsilon = 0.000678
 n19bf                                  7      0.0000       0.00000       A     3.38403e-01     3.93688e-01    ;  uncertainty sigma = 0.000007, epsilon = 0.001040
 c20bf                                  6      0.0000       0.00000       A     3.31508e-01     4.13275e-01    ;  uncertainty sigma = 0.000004, epsilon = 0.000430
 c21bf                                  6      0.0000       0.00000       A     3.31517e-01     4.13257e-01    ;  uncertainty sigma = 0.000009, epsilon = 0.000645
 cl22bf                                17      0.0000       0.00000       A     3.46610e-01     1.10387e+00    ;  uncertainty sigma = 0.000023, epsilon = 0.001116
 c23bf                                  6      0.0000       0.00000       A     3.31513e-01     4.13285e-01    ;  uncertainty sigma = 0.000005, epsilon = 0.000694
 c24bf                                  6      0.0000       0.00000       A     3.31517e-01     4.13175e-01    ;  uncertainty sigma = 0.000020, epsilon = 0.001060
 c25bf                                  6      0.0000       0.00000       A     3.31544e-01     4.14220e-01    ;  uncertainty sigma = 0.000018, epsilon = 0.000894
 o26bf                                  8      0.0000       0.00000       A     3.04823e-01     6.12187e-01    ;  uncertainty sigma = 0.000062, epsilon = 0.001949
 h27bf                                  1      0.0000       0.00000       A     2.42208e-01     8.66970e-02    ;  uncertainty sigma = 0.000028, epsilon = 0.000664
 h28bf                                  1      0.0000       0.00000       A     2.42208e-01     8.66970e-02    ;  uncertainty sigma = 0.000028, epsilon = 0.000664
 h29bf                                  1      0.0000       0.00000       A     2.42208e-01     8.66970e-02    ;  uncertainty sigma = 0.000028, epsilon = 0.000664
 h30bf                                  1      0.0000       0.00000       A     1.10696e-01     4.12787e-02    ;  uncertainty sigma = 0.000128, epsilon = 0.001559
 h31bf                                  1      0.0000       0.00000       A     1.10548e-01     4.04868e-02    ;  uncertainty sigma = 0.000082, epsilon = 0.001718
 h32bf                                  1      0.0000       0.00000       A     2.62558e-01     6.70852e-02    ;  uncertainty sigma = 0.000008, epsilon = 0.000421
 h33bf                                  1      0.0000       0.00000       A     2.62558e-01     6.70264e-02    ;  uncertainty sigma = 0.000011, epsilon = 0.000445
 h34bf                                  1      0.0000       0.00000       A     2.62552e-01     6.70647e-02    ;  uncertainty sigma = 0.000011, epsilon = 0.000453
 h35bf                                  1      0.0000       0.00000       A     2.62558e-01     6.70264e-02    ;  uncertainty sigma = 0.000011, epsilon = 0.000445
 h36bf                                  1      0.0000       0.00000       A     2.62558e-01     6.70852e-02    ;  uncertainty sigma = 0.000008, epsilon = 0.000420
 h37bf                                  1      0.0000       0.00000       A     2.62558e-01     6.70852e-02    ;  uncertainty sigma = 0.000008, epsilon = 0.000420
 h38bf                                  1      0.0000       0.00000       A     2.62564e-01     6.70137e-02    ;  uncertainty sigma = 0.000010, epsilon = 0.000418
 h39bf                                  1      0.0000       0.00000       A     2.62562e-01     6.70409e-02    ;  uncertainty sigma = 0.000012, epsilon = 0.000507
 h40bf                                  1      0.0000       0.00000       A     2.53644e-01     6.67556e-02    ;  uncertainty sigma = 0.000027, epsilon = 0.000598
 h41bf                                  1      0.0000       0.00000       A     2.53671e-01     6.70842e-02    ;  uncertainty sigma = 0.000022, epsilon = 0.000540
 h42bf                                  1      0.0000       0.00000       A     2.62556e-01     6.71830e-02    ;  uncertainty sigma = 0.000014, epsilon = 0.000719
 h43bf                                  1      0.0000       0.00000       A     2.62550e-01     6.72376e-02    ;  uncertainty sigma = 0.000014, epsilon = 0.000655
 h44bf                                  1      0.0000       0.00000       A     1.10696e-01     4.12787e-02    ;  uncertainty sigma = 0.000128, epsilon = 0.001559

[ moleculetype ]
;name             nrexcl
 MOL                   3

[ atoms ]
;       nr            type      resi   res      atom      cgnr      charge          mass ; qtot
         1            c0bf         1   UNL        c0         1     0.07531       12.0110 ; qtot    0.075
         2            n1bf         1   UNL        n1         2    -0.41674       14.0070 ; qtot   -0.341
         3            c2bf         1   UNL        c2         3     0.46212       12.0110 ; qtot    0.121
         4            n3bf         1   UNL        n3         4    -0.47751       14.0070 ; qtot   -0.357
         5            n4bf         1   UNL        n4         5    -0.38173       14.0070 ; qtot   -0.739
         6            c5bf         1   UNL        c5         6     0.09098       12.0110 ; qtot   -0.648
         7            c6bf         1   UNL        c6         7    -0.15384       12.0110 ; qtot   -0.801
         8            c7bf         1   UNL        c7         8    -0.09654       12.0110 ; qtot   -0.898
         9            c8bf         1   UNL        c8         9    -0.11798       12.0110 ; qtot   -1.016
        10            c9bf         1   UNL        c9        10    -0.09151       12.0110 ; qtot   -1.107
        11           c10bf         1   UNL       c10        11    -0.11798       12.0110 ; qtot   -1.225
        12           c11bf         1   UNL       c11        12    -0.09654       12.0110 ; qtot   -1.322
        13           c12bf         1   UNL       c12        13    -0.14040       12.0110 ; qtot   -1.462
        14           c13bf         1   UNL       c13        14    -0.09262       12.0110 ; qtot   -1.555
        15           c14bf         1   UNL       c14        15    -0.10824       12.0110 ; qtot   -1.663
        16           c15bf         1   UNL       c15        16    -0.08848       12.0110 ; qtot   -1.752
        17           c16bf         1   UNL       c16        17    -0.01500       12.0110 ; qtot   -1.767
        18           c17bf         1   UNL       c17        18    -0.14625       12.0110 ; qtot   -1.913
        19           c18bf         1   UNL       c18        19     0.40372       12.0110 ; qtot   -1.509
        20           n19bf         1   UNL       n19        20    -0.65413       14.0070 ; qtot   -2.163
        21           c20bf         1   UNL       c20        21     0.41404       12.0110 ; qtot   -1.749
        22           c21bf         1   UNL       c21        22    -0.09004       12.0110 ; qtot   -1.839
        23          cl22bf         1   UNL      cl22        23    -0.09399       35.4530 ; qtot   -1.933
        24           c23bf         1   UNL       c23        24    -0.07876       12.0110 ; qtot   -2.012
        25           c24bf         1   UNL       c24        25    -0.07425       12.0110 ; qtot   -2.086
        26           c25bf         1   UNL       c25        26     0.70308       12.0110 ; qtot   -1.383
        27           o26bf         1   UNL       o26        27    -0.44106       15.9990 ; qtot   -1.824
        28           h27bf         1   UNL       h27        28     0.09057        1.0080 ; qtot   -1.734
        29           h28bf         1   UNL       h28        29     0.09057        1.0080 ; qtot   -1.643
        30           h29bf         1   UNL       h29        30     0.09057        1.0080 ; qtot   -1.553
        31           h30bf         1   UNL       h30        31     0.33582        1.0080 ; qtot   -1.217
        32           h31bf         1   UNL       h31        32     0.35440        1.0080 ; qtot   -0.862
        33           h32bf         1   UNL       h32        33     0.14519        1.0080 ; qtot   -0.717
        34           h33bf         1   UNL       h33        34     0.14717        1.0080 ; qtot   -0.570
        35           h34bf         1   UNL       h34        35     0.13386        1.0080 ; qtot   -0.436
        36           h35bf         1   UNL       h35        36     0.14717        1.0080 ; qtot   -0.289
        37           h36bf         1   UNL       h36        37     0.14519        1.0080 ; qtot   -0.144
        38           h37bf         1   UNL       h37        38     0.14740        1.0080 ; qtot    0.004
        39           h38bf         1   UNL       h38        39     0.14845        1.0080 ; qtot    0.152
        40           h39bf         1   UNL       h39        40     0.13705        1.0080 ; qtot    0.289
        41           h40bf         1   UNL       h40        41     0.02896        1.0080 ; qtot    0.318
        42           h41bf         1   UNL       h41        42     0.03933        1.0080 ; qtot    0.357
        43           h42bf         1   UNL       h42        43     0.15707        1.0080 ; qtot    0.514
        44           h43bf         1   UNL       h43        44     0.14978        1.0080 ; qtot    0.664
        45           h44bf         1   UNL       h44        45     0.33579        1.0080 ; qtot    1.000

[ bonds ]
;       ai        aj funct               r               k
         1         2     1        0.146681   260602.881348    ;  uncertainty r = 0.000143, k = 13.029281
         1        28     1        0.109174   309405.420996    ;  uncertainty r = 0.000045, k = 3.044469
         1        29     1        0.109174   309405.420996    ;  uncertainty r = 0.000045, k = 3.044469
         1        30     1        0.109174   309405.420996    ;  uncertainty r = 0.000045, k = 3.044469
         2         3     1        0.135483   280628.393018    ;  uncertainty r = 0.000172, k = 43.937728
         2        26     1        0.142617   296977.429199    ;  uncertainty r = 0.000342, k = 74.592793
         3         4     1        0.132957   308233.676270    ;  uncertainty r = 0.000232, k = 39.227304
         3         5     1        0.133641   523376.876660    ;  uncertainty r = 0.000100, k = 44.741034
         4        31     1        0.101396   420869.489551    ;  uncertainty r = 0.000073, k = 12.258235
         4        45     1        0.101396   420869.489551    ;  uncertainty r = 0.000073, k = 12.258266
         5         6     1        0.150101   230544.707666    ;  uncertainty r = 0.000269, k = 76.803605
         5        32     1        0.101501   429624.734277    ;  uncertainty r = 0.000023, k = 4.106225
         6         7     1        0.150975   204394.043701    ;  uncertainty r = 0.000149, k = 20.066170
         6        13     1        0.150929   204061.282397    ;  uncertainty r = 0.000155, k = 19.693896
         6        26     1        0.153936   175864.087256    ;  uncertainty r = 0.000150, k = 17.945406
         7         8     1        0.139869   349456.955078    ;  uncertainty r = 0.000058, k = 6.929880
         7        12     1        0.139869   349456.955078    ;  uncertainty r = 0.000058, k = 6.929880
         8         9     1        0.139524   365940.393066    ;  uncertainty r = 0.000032, k = 1.462855
         8        33     1        0.108797   332693.323926    ;  uncertainty r = 0.000026, k = 2.526496
         9        10     1        0.139549   373468.937207    ;  uncertainty r = 0.000012, k = 2.413507
         9        34     1        0.108791   333723.950586    ;  uncertainty r = 0.000024, k = 1.087677
        10        11     1        0.139549   373468.937207    ;  uncertainty r = 0.000012, k = 2.413507
        10        35     1        0.108841   334503.956055    ;  uncertainty r = 0.000012, k = 0.652789
        11        12     1        0.139524   365940.393066    ;  uncertainty r = 0.000032, k = 1.462855
        11        36     1        0.108791   333723.976123    ;  uncertainty r = 0.000024, k = 1.087668
        12        37     1        0.108797   332693.323926    ;  uncertainty r = 0.000026, k = 2.526499
        13        14     1        0.139695   350457.524561    ;  uncertainty r = 0.000039, k = 5.364877
        13        25     1        0.139497   344371.597266    ;  uncertainty r = 0.000081, k = 6.070290
        14        15     1        0.139488   369019.351270    ;  uncertainty r = 0.000030, k = 1.373547
        14        38     1        0.108776   332840.519824    ;  uncertainty r = 0.000030, k = 2.465001
        15        16     1        0.139311   371145.443311    ;  uncertainty r = 0.000030, k = 2.334963
        15        39     1        0.108768   333105.390723    ;  uncertainty r = 0.000026, k = 1.115190
        16        17     1        0.140113   348835.483984    ;  uncertainty r = 0.000023, k = 2.345040
        16        40     1        0.108829   334964.696582    ;  uncertainty r = 0.000027, k = 0.785430
        17        18     1        0.147720   271549.005762    ;  uncertainty r = 0.000045, k = 2.587562
        17        25     1        0.139813   339836.513086    ;  uncertainty r = 0.000055, k = 2.436528
        18        19     1        0.140335   330695.198340    ;  uncertainty r = 0.000055, k = 5.735301
        18        24     1        0.139808   363910.422705    ;  uncertainty r = 0.000053, k = 4.272829
        19        20     1        0.133513   391056.216748    ;  uncertainty r = 0.000047, k = 4.009833
        19        41     1        0.109016   336117.467236    ;  uncertainty r = 0.000021, k = 2.598277
        20        21     1        0.133449   403869.257080    ;  uncertainty r = 0.000042, k = 5.202944
        21        22     1        0.139604   341173.865967    ;  uncertainty r = 0.000017, k = 8.338530
        21        42     1        0.108982   339187.564063    ;  uncertainty r = 0.000035, k = 2.524995
        22        23     1        0.175261   197174.396436    ;  uncertainty r = 0.000020, k = 2.912212
        22        24     1        0.139051   369738.374121    ;  uncertainty r = 0.000029, k = 2.224962
        24        43     1        0.108728   334380.739502    ;  uncertainty r = 0.000023, k = 2.151457
        25        44     1        0.108818   333436.453809    ;  uncertainty r = 0.000023, k = 2.258605
        26        27     1        0.119980   628990.138086    ;  uncertainty r = 0.000232, k = 12.942175

[ angles ]
;       ai        aj        ak funct           theta             cth
         1         2         3     1      118.639038      373.068630    ;  uncertainty theta = 0.007053, k = 0.430287
         1         2        26     1      119.076622      400.263928    ;  uncertainty theta = 0.008080, k = 0.316068
         2         1        28     1      107.362183      470.622814    ;  uncertainty theta = 0.002476, k = 0.220753
         2         1        29     1      107.362183      470.622814    ;  uncertainty theta = 0.002476, k = 0.220753
         2         1        30     1      107.362183      470.622814    ;  uncertainty theta = 0.002476, k = 0.220753
         2         3         4     1      125.899826      536.269337    ;  uncertainty theta = 0.010551, k = 0.299625
         2         3         5     1      113.193924      702.703362    ;  uncertainty theta = 0.009502, k = 0.274174
         2        26         6     1      109.961769      476.265047    ;  uncertainty theta = 0.006613, k = 0.652506
         2        26        27     1      125.508827      649.701794    ;  uncertainty theta = 0.010573, k = 0.151492
         3         2        26     1      110.408546      711.107880    ;  uncertainty theta = 0.009881, k = 0.266784
         3         4        31     1      114.821800      368.001174    ;  uncertainty theta = 0.004224, k = 0.186891
         3         4        45     1      114.821800      368.001142    ;  uncertainty theta = 0.004224, k = 0.186891
         3         5         6     1      111.750687      594.280584    ;  uncertainty theta = 0.019275, k = 0.459975
         3         5        32     1      119.382553      353.668439    ;  uncertainty theta = 0.010145, k = 0.152610
         4         3         5     1      128.556000      642.790750    ;  uncertainty theta = 0.009936, k = 0.330368
         5         6         7     1      110.460434      632.624809    ;  uncertainty theta = 0.005178, k = 0.185747
         5         6        13     1      110.363304      633.704774    ;  uncertainty theta = 0.005332, k = 0.196341
         5         6        26     1      102.870018      925.017242    ;  uncertainty theta = 0.007229, k = 0.531227
         6         5        32     1      117.291641      301.371185    ;  uncertainty theta = 0.006714, k = 0.480634
         6         7         8     1      117.074219      374.316405    ;  uncertainty theta = 0.007313, k = 0.169097
         6         7        12     1      117.074219      374.316405    ;  uncertainty theta = 0.007313, k = 0.169097
         6        13        14     1      117.188919      371.073703    ;  uncertainty theta = 0.007117, k = 0.190096
         6        13        25     1      116.619370      372.971366    ;  uncertainty theta = 0.006690, k = 0.108045
         6        26        27     1      125.519859      411.082661    ;  uncertainty theta = 0.008567, k = 0.131742
         7         6        13     1      113.186264      513.960725    ;  uncertainty theta = 0.011306, k = 0.359026
         7         6        26     1      109.141335      488.728114    ;  uncertainty theta = 0.009732, k = 0.152365
         7         8         9     1      121.038895      513.256252    ;  uncertainty theta = 0.003562, k = 0.078827
         7         8        33     1      118.396080      273.185271    ;  uncertainty theta = 0.004089, k = 0.068593
         7        12        11     1      121.038895      513.256252    ;  uncertainty theta = 0.003562, k = 0.078827
         7        12        37     1      118.396095      273.185271    ;  uncertainty theta = 0.004089, k = 0.068593
         8         7        12     1      123.006119      449.964984    ;  uncertainty theta = 0.007050, k = 0.147704
         8         9        10     1      119.486618      517.107663    ;  uncertainty theta = 0.001936, k = 0.033500
         8         9        34     1      119.692894      282.691587    ;  uncertainty theta = 0.002820, k = 0.049810
         9         8        33     1      120.085548      298.145592    ;  uncertainty theta = 0.002287, k = 0.040415
         9        10        11     1      118.018600      533.452020    ;  uncertainty theta = 0.001323, k = 0.059913
         9        10        35     1      120.465477      288.877473    ;  uncertainty theta = 0.001797, k = 0.017289
        10         9        34     1      120.779457      288.986293    ;  uncertainty theta = 0.001247, k = 0.025032
        10        11        12     1      119.486618      517.107663    ;  uncertainty theta = 0.001936, k = 0.033500
        10        11        36     1      120.779457      288.986261    ;  uncertainty theta = 0.001247, k = 0.025032
        11        10        35     1      120.465477      288.877473    ;  uncertainty theta = 0.001797, k = 0.017290
        11        12        37     1      120.085548      298.145624    ;  uncertainty theta = 0.002287, k = 0.040414
        12        11        36     1      119.692894      282.691555    ;  uncertainty theta = 0.002820, k = 0.049810
        13         6        26     1      109.087914      489.507411    ;  uncertainty theta = 0.008967, k = 0.155642
        13        14        15     1      120.116592      513.097922    ;  uncertainty theta = 0.003985, k = 0.048111
        13        14        38     1      118.579468      273.249943    ;  uncertainty theta = 0.004177, k = 0.069830
        13        25        17     1      122.134018      513.443088    ;  uncertainty theta = 0.003034, k = 0.178299
        13        25        44     1      118.195724      273.394451    ;  uncertainty theta = 0.004352, k = 0.063240
        14        13        25     1      123.388962      432.705218    ;  uncertainty theta = 0.006504, k = 0.171298
        14        15        16     1      120.250511      509.831790    ;  uncertainty theta = 0.002521, k = 0.079952
        14        15        39     1      119.788002      281.762579    ;  uncertainty theta = 0.002427, k = 0.048474
        15        14        38     1      120.331825      300.364767    ;  uncertainty theta = 0.002789, k = 0.028913
        15        16        17     1      119.771973      533.225729    ;  uncertainty theta = 0.002275, k = 0.083894
        15        16        40     1      120.214828      294.512013    ;  uncertainty theta = 0.001191, k = 0.019912
        16        15        39     1      120.360497      284.382878    ;  uncertainty theta = 0.000886, k = 0.051850
        16        17        18     1      121.026443      410.848006    ;  uncertainty theta = 0.002473, k = 0.139824
        16        17        25     1      120.235764      404.501620    ;  uncertainty theta = 0.004043, k = 0.219434
        17        16        40     1      118.769531      279.343576    ;  uncertainty theta = 0.001003, k = 0.096348
        17        18        19     1      120.999168      396.646341    ;  uncertainty theta = 0.003611, k = 0.078365
        17        18        24     1      121.492691      407.545867    ;  uncertainty theta = 0.003291, k = 0.078325
        17        25        44     1      118.678177      283.593622    ;  uncertainty theta = 0.002031, k = 0.070775
        18        17        25     1      120.000320      417.695144    ;  uncertainty theta = 0.002713, k = 0.136161
        18        19        20     1      124.538353      711.800829    ;  uncertainty theta = 0.002214, k = 0.095126
        18        19        41     1      119.193726      263.758598    ;  uncertainty theta = 0.002862, k = 0.075143
        18        24        22     1      118.335327      526.457278    ;  uncertainty theta = 0.002428, k = 0.170691
        18        24        43     1      120.422379      271.668079    ;  uncertainty theta = 0.001408, k = 0.064764
        19        18        24     1      118.304947      396.693457    ;  uncertainty theta = 0.002712, k = 0.140503
        19        20        21     1      118.494705      392.711456    ;  uncertainty theta = 0.002631, k = 0.080999
        20        19        41     1      116.386581      344.571898    ;  uncertainty theta = 0.001559, k = 0.077090
        20        21        22     1      121.982666      671.674178    ;  uncertainty theta = 0.001124, k = 0.137343
        20        21        42     1      117.315750      333.683098    ;  uncertainty theta = 0.001632, k = 0.094262
        21        22        23     1      120.282921      414.589799    ;  uncertainty theta = 0.001473, k = 0.185272
        21        22        24     1      120.073196      333.308245    ;  uncertainty theta = 0.001954, k = 0.163779
        22        21        42     1      120.932335      274.929774    ;  uncertainty theta = 0.002059, k = 0.050315
        22        24        43     1      121.180496      287.034620    ;  uncertainty theta = 0.001917, k = 0.109792
        23        22        24     1      121.153748      432.219343    ;  uncertainty theta = 0.000745, k = 0.113766
        28         1        29     1      107.627052      325.730906    ;  uncertainty theta = 0.003369, k = 0.100967
        28         1        30     1      107.627052      325.730906    ;  uncertainty theta = 0.003369, k = 0.100967
        29         1        30     1      107.627052      325.730906    ;  uncertainty theta = 0.003369, k = 0.100967
        31         4        45     1      112.418320      264.652971    ;  uncertainty theta = 0.015777, k = 0.354183

[ dihedrals ] ; propers for gromacs 4.5 or higher, use funct 9
;       ai        aj        ak        al funct           phase               k        pn
         1         2         3         4     9        0.000000        0.020220         1    ;  uncertainty k = 0.657937
         1         2         3         4     9      180.000000        6.877463         2    ;  uncertainty k = 0.678113
         1         2         3         4     9        0.000000        0.933687         3    ;  uncertainty k = 0.728898
         1         2         3         4     9      180.000000        0.009158         4    ;  uncertainty k = 0.300485
         1         2         3         5     9        0.000000       -0.356115         1    ;  uncertainty k = 2.518191
         1         2         3         5     9      180.000000        8.283854         2    ;  uncertainty k = 0.415941
         1         2         3         5     9        0.000000        0.272445         3    ;  uncertainty k = 0.120757
         1         2         3         5     9      180.000000       -0.125980         4    ;  uncertainty k = 0.245883
         1         2        26         6     9        0.000000        5.315178         1    ;  uncertainty k = 1.998701
         1         2        26         6     9      180.000000        4.608340         2    ;  uncertainty k = 1.496939
         1         2        26         6     9        0.000000        1.271077         3    ;  uncertainty k = 0.828356
         1         2        26         6     9      180.000000        0.033156         4    ;  uncertainty k = 0.568101
         1         2        26        27     9        0.000000       -0.515841         1    ;  uncertainty k = 3.156148
         1         2        26        27     9      180.000000        8.416191         2    ;  uncertainty k = 0.470256
         1         2        26        27     9        0.000000        0.571768         3    ;  uncertainty k = 0.526356
         1         2        26        27     9      180.000000        0.206425         4    ;  uncertainty k = 0.242867
         2         3         4        31     9        0.000000        7.495475         1    ;  uncertainty k = 2.018544
         2         3         4        31     9      180.000000        9.518865         2    ;  uncertainty k = 0.609488
         2         3         4        31     9        0.000000        1.009625         3    ;  uncertainty k = 0.533193
         2         3         4        31     9      180.000000       -0.962191         4    ;  uncertainty k = 0.242201
         2         3         4        45     9        0.000000        7.495473         1    ;  uncertainty k = 2.018546
         2         3         4        45     9      180.000000        9.518867         2    ;  uncertainty k = 0.609488
         2         3         4        45     9        0.000000        1.009626         3    ;  uncertainty k = 0.533193
         2         3         4        45     9      180.000000       -0.962190         4    ;  uncertainty k = 0.242200
         2         3         5         6     9        0.000000        1.216637         1    ;  uncertainty k = 1.851010
         2         3         5         6     9      180.000000       14.836933         2    ;  uncertainty k = 0.431548
         2         3         5         6     9        0.000000       -0.181362         3    ;  uncertainty k = 0.984649
         2         3         5         6     9      180.000000       -0.541452         4    ;  uncertainty k = 0.214128
         2         3         5        32     9        0.000000        4.192861         1    ;  uncertainty k = 3.453401
         2         3         5        32     9      180.000000       10.610634         2    ;  uncertainty k = 0.634114
         2         3         5        32     9        0.000000        0.940964         3    ;  uncertainty k = 0.791708
         2         3         5        32     9      180.000000       -0.427268         4    ;  uncertainty k = 0.191048
         2        26         6         5     9        0.000000        0.026898         1    ;  uncertainty k = 2.722767
         2        26         6         5     9      180.000000        6.600280         2    ;  uncertainty k = 0.954493
         2        26         6         5     9        0.000000        0.270507         3    ;  uncertainty k = 0.664803
         2        26         6         5     9      180.000000        0.250183         4    ;  uncertainty k = 0.591147
         2        26         6         7     9        0.000000       -2.102597         1    ;  uncertainty k = 3.102238
         2        26         6         7     9      180.000000        1.474984         2    ;  uncertainty k = 1.103387
         2        26         6         7     9        0.000000        1.021732         3    ;  uncertainty k = 0.532805
         2        26         6         7     9      180.000000        0.737330         4    ;  uncertainty k = 0.291002
         2        26         6        13     9        0.000000       -2.037879         1    ;  uncertainty k = 3.177866
         2        26         6        13     9      180.000000        1.481072         2    ;  uncertainty k = 1.062157
         2        26         6        13     9        0.000000        1.051229         3    ;  uncertainty k = 0.548384
         2        26         6        13     9      180.000000        0.739318         4    ;  uncertainty k = 0.281152
         3         2         1        28     9        0.000000       -0.396418         1    ;  uncertainty k = 0.524313
         3         2         1        28     9      180.000000       -1.104407         2    ;  uncertainty k = 0.426496
         3         2         1        28     9        0.000000        0.442754         3    ;  uncertainty k = 0.213660
         3         2         1        28     9      180.000000        0.194733         4    ;  uncertainty k = 0.049391
         3         2         1        29     9        0.000000       -0.396418         1    ;  uncertainty k = 0.524313
         3         2         1        29     9      180.000000       -1.104407         2    ;  uncertainty k = 0.426496
         3         2         1        29     9        0.000000        0.442754         3    ;  uncertainty k = 0.213660
         3         2         1        29     9      180.000000        0.194733         4    ;  uncertainty k = 0.049391
         3         2         1        30     9        0.000000       -0.396418         1    ;  uncertainty k = 0.524313
         3         2         1        30     9      180.000000       -1.104407         2    ;  uncertainty k = 0.426496
         3         2         1        30     9        0.000000        0.442754         3    ;  uncertainty k = 0.213660
         3         2         1        30     9      180.000000        0.194733         4    ;  uncertainty k = 0.049391
         3         2        26         6     9        0.000000        3.107150         1    ;  uncertainty k = 1.849250
         3         2        26         6     9      180.000000        3.066216         2    ;  uncertainty k = 0.882201
         3         2        26         6     9        0.000000       -0.285893         3    ;  uncertainty k = 0.712736
         3         2        26         6     9      180.000000        0.753329         4    ;  uncertainty k = 0.259714
         3         2        26        27     9        0.000000        0.406781         1    ;  uncertainty k = 2.598331
         3         2        26        27     9      180.000000        7.636295         2    ;  uncertainty k = 0.797349
         3         2        26        27     9        0.000000        0.506697         3    ;  uncertainty k = 0.484035
         3         2        26        27     9      180.000000        0.070886         4    ;  uncertainty k = 0.264122
         3         5         6         7     9        0.000000        0.091811         1    ;  uncertainty k = 0.741142
         3         5         6         7     9      180.000000        1.014766         2    ;  uncertainty k = 0.553248
         3         5         6         7     9        0.000000        0.643088         3    ;  uncertainty k = 0.282748
         3         5         6         7     9      180.000000        0.484815         4    ;  uncertainty k = 0.293264
         3         5         6        13     9        0.000000        0.066200         1    ;  uncertainty k = 0.766273
         3         5         6        13     9      180.000000        1.001081         2    ;  uncertainty k = 0.551928
         3         5         6        13     9        0.000000        0.663411         3    ;  uncertainty k = 0.261481
         3         5         6        13     9      180.000000        0.495633         4    ;  uncertainty k = 0.301240
         3         5         6        26     9        0.000000        2.020599         1    ;  uncertainty k = 0.690692
         3         5         6        26     9      180.000000        2.318166         2    ;  uncertainty k = 1.059665
         3         5         6        26     9        0.000000        0.199857         3    ;  uncertainty k = 0.699828
         3         5         6        26     9      180.000000        0.438068         4    ;  uncertainty k = 0.468952
         4         3         2        26     9        0.000000       -0.586686         1    ;  uncertainty k = 0.774775
         4         3         2        26     9      180.000000        6.636751         2    ;  uncertainty k = 1.298463
         4         3         2        26     9        0.000000        0.201670         3    ;  uncertainty k = 0.743074
         4         3         2        26     9      180.000000       -0.088174         4    ;  uncertainty k = 0.478529
         4         3         5         6     9        0.000000        2.188014         1    ;  uncertainty k = 1.893592
         4         3         5         6     9      180.000000       10.144535         2    ;  uncertainty k = 0.979797
         4         3         5         6     9        0.000000        0.434811         3    ;  uncertainty k = 0.470363
         4         3         5         6     9      180.000000       -0.420942         4    ;  uncertainty k = 0.555914
         4         3         5        32     9        0.000000        2.256416         1    ;  uncertainty k = 2.728265
         4         3         5        32     9      180.000000        7.437433         2    ;  uncertainty k = 1.129202
         4         3         5        32     9        0.000000        0.944499         3    ;  uncertainty k = 0.181481
         4         3         5        32     9      180.000000       -0.270289         4    ;  uncertainty k = 0.314795
         5         3         2        26     9        0.000000       -0.153039         1    ;  uncertainty k = 1.721869
         5         3         2        26     9      180.000000        8.631896         2    ;  uncertainty k = 0.890565
         5         3         2        26     9        0.000000       -1.128578         3    ;  uncertainty k = 1.132200
         5         3         2        26     9      180.000000        0.000351         4    ;  uncertainty k = 0.465973
         5         3         4        31     9        0.000000        5.761295         1    ;  uncertainty k = 1.326850
         5         3         4        31     9      180.000000       10.436708         2    ;  uncertainty k = 0.346046
         5         3         4        31     9        0.000000        1.485194         3    ;  uncertainty k = 0.455012
         5         3         4        31     9      180.000000       -0.773238         4    ;  uncertainty k = 0.306951
         5         3         4        45     9        0.000000        5.761296         1    ;  uncertainty k = 1.326851
         5         3         4        45     9      180.000000       10.436706         2    ;  uncertainty k = 0.346045
         5         3         4        45     9        0.000000        1.485193         3    ;  uncertainty k = 0.455012
         5         3         4        45     9      180.000000       -0.773239         4    ;  uncertainty k = 0.306951
         5         6         7         8     9        0.000000       -1.006359         1    ;  uncertainty k = 1.282049
         5         6         7         8     9      180.000000        2.605369         2    ;  uncertainty k = 0.522487
         5         6         7         8     9        0.000000        0.536044         3    ;  uncertainty k = 0.227425
         5         6         7         8     9      180.000000        0.333205         4    ;  uncertainty k = 0.173230
         5         6         7        12     9        0.000000       -1.006359         1    ;  uncertainty k = 1.282049
         5         6         7        12     9      180.000000        2.605369         2    ;  uncertainty k = 0.522487
         5         6         7        12     9        0.000000        0.536044         3    ;  uncertainty k = 0.227425
         5         6         7        12     9      180.000000        0.333205         4    ;  uncertainty k = 0.173230
         5         6        13        14     9        0.000000       -1.025905         1    ;  uncertainty k = 1.201610
         5         6        13        14     9      180.000000        2.621036         2    ;  uncertainty k = 0.558884
         5         6        13        14     9        0.000000        0.532331         3    ;  uncertainty k = 0.211924
         5         6        13        14     9      180.000000        0.331473         4    ;  uncertainty k = 0.181779
         5         6        13        25     9        0.000000       -0.774692         1    ;  uncertainty k = 1.174236
         5         6        13        25     9      180.000000        2.611797         2    ;  uncertainty k = 0.647347
         5         6        13        25     9        0.000000        0.477865         3    ;  uncertainty k = 0.184714
         5         6        13        25     9      180.000000        0.333715         4    ;  uncertainty k = 0.185819
         5         6        26        27     9        0.000000       -1.351475         1    ;  uncertainty k = 2.878365
         5         6        26        27     9      180.000000        2.586288         2    ;  uncertainty k = 1.299806
         5         6        26        27     9        0.000000        0.299897         3    ;  uncertainty k = 0.631686
         5         6        26        27     9      180.000000        0.356820         4    ;  uncertainty k = 0.111975
         6         7         8         9     9        0.000000        0.032929         1    ;  uncertainty k = 0.381328
         6         7         8         9     9      180.000000        8.668432         2    ;  uncertainty k = 0.351930
         6         7         8         9     9        0.000000        1.456047         3    ;  uncertainty k = 0.364144
         6         7         8         9     9      180.000000        1.853281         4    ;  uncertainty k = 0.176603
         6         7         8        33     9        0.000000       -0.276887         1    ;  uncertainty k = 0.183727
         6         7         8        33     9      180.000000        6.938092         2    ;  uncertainty k = 0.459858
         6         7         8        33     9        0.000000        0.623177         3    ;  uncertainty k = 0.398127
         6         7         8        33     9      180.000000        1.065176         4    ;  uncertainty k = 0.272844
         6         7        12        11     9        0.000000        0.032929         1    ;  uncertainty k = 0.381328
         6         7        12        11     9      180.000000        8.668432         2    ;  uncertainty k = 0.351930
         6         7        12        11     9        0.000000        1.456047         3    ;  uncertainty k = 0.364144
         6         7        12        11     9      180.000000        1.853281         4    ;  uncertainty k = 0.176603
         6         7        12        37     9        0.000000       -0.276887         1    ;  uncertainty k = 0.183726
         6         7        12        37     9      180.000000        6.938093         2    ;  uncertainty k = 0.459858
         6         7        12        37     9        0.000000        0.623177         3    ;  uncertainty k = 0.398126
         6         7        12        37     9      180.000000        1.065175         4    ;  uncertainty k = 0.272845
         6        13        14        15     9        0.000000        0.040986         1    ;  uncertainty k = 0.352622
         6        13        14        15     9      180.000000        8.805889         2    ;  uncertainty k = 0.399520
         6        13        14        15     9        0.000000        1.443688         3    ;  uncertainty k = 0.363117
         6        13        14        15     9      180.000000        1.863794         4    ;  uncertainty k = 0.164462
         6        13        14        38     9        0.000000       -0.295494         1    ;  uncertainty k = 0.178811
         6        13        14        38     9      180.000000        6.909227         2    ;  uncertainty k = 0.444428
         6        13        14        38     9        0.000000        0.631066         3    ;  uncertainty k = 0.378603
         6        13        14        38     9      180.000000        1.058610         4    ;  uncertainty k = 0.260535
         6        13        25        17     9        0.000000        0.052455         1    ;  uncertainty k = 0.282043
         6        13        25        17     9      180.000000        8.447427         2    ;  uncertainty k = 0.360458
         6        13        25        17     9        0.000000        1.332945         3    ;  uncertainty k = 0.233593
         6        13        25        17     9      180.000000        1.868565         4    ;  uncertainty k = 0.123796
         6        13        25        44     9        0.000000       -0.244221         1    ;  uncertainty k = 0.114799
         6        13        25        44     9      180.000000        7.108853         2    ;  uncertainty k = 0.498435
         6        13        25        44     9        0.000000        0.594308         3    ;  uncertainty k = 0.418968
         6        13        25        44     9      180.000000        1.107788         4    ;  uncertainty k = 0.294041
         7         6         5        32     9        0.000000        2.192743         1    ;  uncertainty k = 1.168889
         7         6         5        32     9      180.000000        0.278657         2    ;  uncertainty k = 1.126461
         7         6         5        32     9        0.000000        0.581789         3    ;  uncertainty k = 0.409016
         7         6         5        32     9      180.000000        0.050893         4    ;  uncertainty k = 0.133681
         7         6        13        14     9        0.000000        0.693923         1    ;  uncertainty k = 0.318570
         7         6        13        14     9      180.000000        1.270418         2    ;  uncertainty k = 0.479803
         7         6        13        14     9        0.000000        0.262143         3    ;  uncertainty k = 0.314566
         7         6        13        14     9      180.000000        0.217016         4    ;  uncertainty k = 0.019052
         7         6        13        25     9        0.000000        0.698097         1    ;  uncertainty k = 0.402911
         7         6        13        25     9      180.000000        1.203006         2    ;  uncertainty k = 0.524788
         7         6        13        25     9        0.000000        0.204295         3    ;  uncertainty k = 0.347803
         7         6        13        25     9      180.000000        0.227087         4    ;  uncertainty k = 0.026882
         7         6        26        27     9        0.000000       -0.742446         1    ;  uncertainty k = 1.309835
         7         6        26        27     9      180.000000        3.252605         2    ;  uncertainty k = 0.704089
         7         6        26        27     9        0.000000        0.415226         3    ;  uncertainty k = 0.232107
         7         6        26        27     9      180.000000        0.072409         4    ;  uncertainty k = 0.180997
         7         8         9        10     9        0.000000        0.005132         1    ;  uncertainty k = 0.242164
         7         8         9        10     9      180.000000       13.352664         2    ;  uncertainty k = 0.284060
         7         8         9        10     9        0.000000       -0.876868         3    ;  uncertainty k = 0.537707
         7         8         9        10     9      180.000000        0.737381         4    ;  uncertainty k = 0.245374
         7         8         9        34     9        0.000000        0.129489         1    ;  uncertainty k = 0.312671
         7         8         9        34     9      180.000000        7.427846         2    ;  uncertainty k = 0.328692
         7         8         9        34     9        0.000000        1.481585         3    ;  uncertainty k = 0.152720
         7         8         9        34     9      180.000000        1.803538         4    ;  uncertainty k = 0.149501
         7        12        11        10     9        0.000000        0.005132         1    ;  uncertainty k = 0.242164
         7        12        11        10     9      180.000000       13.352664         2    ;  uncertainty k = 0.284060
         7        12        11        10     9        0.000000       -0.876868         3    ;  uncertainty k = 0.537707
         7        12        11        10     9      180.000000        0.737381         4    ;  uncertainty k = 0.245374
         7        12        11        36     9        0.000000        0.129490         1    ;  uncertainty k = 0.312672
         7        12        11        36     9      180.000000        7.427846         2    ;  uncertainty k = 0.328691
         7        12        11        36     9        0.000000        1.481584         3    ;  uncertainty k = 0.152719
         7        12        11        36     9      180.000000        1.803538         4    ;  uncertainty k = 0.149501
         8         7         6        13     9        0.000000        0.604432         1    ;  uncertainty k = 0.306259
         8         7         6        13     9      180.000000        1.338868         2    ;  uncertainty k = 0.482783
         8         7         6        13     9        0.000000        0.282089         3    ;  uncertainty k = 0.315113
         8         7         6        13     9      180.000000        0.240277         4    ;  uncertainty k = 0.026854
         8         7         6        26     9        0.000000        0.270089         1    ;  uncertainty k = 1.215594
         8         7         6        26     9      180.000000        0.970682         2    ;  uncertainty k = 0.379853
         8         7         6        26     9        0.000000        0.486667         3    ;  uncertainty k = 0.110642
         8         7         6        26     9      180.000000        0.249509         4    ;  uncertainty k = 0.167504
         8         7        12        11     9        0.000000       -0.240734         1    ;  uncertainty k = 0.377669
         8         7        12        11     9      180.000000       12.023573         2    ;  uncertainty k = 0.322594
         8         7        12        11     9        0.000000       -0.630710         3    ;  uncertainty k = 0.226694
         8         7        12        11     9      180.000000        0.783826         4    ;  uncertainty k = 0.301902
         8         7        12        37     9        0.000000        0.252148         1    ;  uncertainty k = 0.138567
         8         7        12        37     9      180.000000        7.620992         2    ;  uncertainty k = 0.536106
         8         7        12        37     9        0.000000        1.293074         3    ;  uncertainty k = 0.300641
         8         7        12        37     9      180.000000        1.649204         4    ;  uncertainty k = 0.194464
         8         9        10        11     9        0.000000       -0.006370         1    ;  uncertainty k = 0.040989
         8         9        10        11     9      180.000000       14.797851         2    ;  uncertainty k = 0.237722
         8         9        10        11     9        0.000000       -1.169438         3    ;  uncertainty k = 0.405008
         8         9        10        11     9      180.000000        0.534938         4    ;  uncertainty k = 0.272125
         8         9        10        35     9        0.000000        0.023623         1    ;  uncertainty k = 0.110077
         8         9        10        35     9      180.000000        7.495127         2    ;  uncertainty k = 0.205716
         8         9        10        35     9        0.000000        1.458527         3    ;  uncertainty k = 0.253934
         8         9        10        35     9      180.000000        1.798438         4    ;  uncertainty k = 0.212079
         9         8         7        12     9        0.000000       -0.240734         1    ;  uncertainty k = 0.377669
         9         8         7        12     9      180.000000       12.023573         2    ;  uncertainty k = 0.322594
         9         8         7        12     9        0.000000       -0.630710         3    ;  uncertainty k = 0.226694
         9         8         7        12     9      180.000000        0.783826         4    ;  uncertainty k = 0.301902
         9        10        11        12     9        0.000000       -0.006370         1    ;  uncertainty k = 0.040989
         9        10        11        12     9      180.000000       14.797851         2    ;  uncertainty k = 0.237722
         9        10        11        12     9        0.000000       -1.169438         3    ;  uncertainty k = 0.405008
         9        10        11        12     9      180.000000        0.534938         4    ;  uncertainty k = 0.272125
         9        10        11        36     9        0.000000       -0.019978         1    ;  uncertainty k = 0.134329
         9        10        11        36     9      180.000000        7.715563         2    ;  uncertainty k = 0.305080
         9        10        11        36     9        0.000000        1.421882         3    ;  uncertainty k = 0.287489
         9        10        11        36     9      180.000000        1.773059         4    ;  uncertainty k = 0.137712
        10         9         8        33     9        0.000000       -0.004880         1    ;  uncertainty k = 0.143286
        10         9         8        33     9      180.000000        8.039949         2    ;  uncertainty k = 0.374443
        10         9         8        33     9        0.000000        1.349892         3    ;  uncertainty k = 0.280047
        10         9         8        33     9      180.000000        1.833069         4    ;  uncertainty k = 0.108033
        10        11        12        37     9        0.000000       -0.004879         1    ;  uncertainty k = 0.143286
        10        11        12        37     9      180.000000        8.039949         2    ;  uncertainty k = 0.374443
        10        11        12        37     9        0.000000        1.349892         3    ;  uncertainty k = 0.280046
        10        11        12        37     9      180.000000        1.833069         4    ;  uncertainty k = 0.108033
        11        10         9        34     9        0.000000       -0.019978         1    ;  uncertainty k = 0.134330
        11        10         9        34     9      180.000000        7.715563         2    ;  uncertainty k = 0.305081
        11        10         9        34     9        0.000000        1.421883         3    ;  uncertainty k = 0.287490
        11        10         9        34     9      180.000000        1.773059         4    ;  uncertainty k = 0.137712
        12         7         6        13     9        0.000000        0.604432         1    ;  uncertainty k = 0.306259
        12         7         6        13     9      180.000000        1.338868         2    ;  uncertainty k = 0.482783
        12         7         6        13     9        0.000000        0.282089         3    ;  uncertainty k = 0.315113
        12         7         6        13     9      180.000000        0.240277         4    ;  uncertainty k = 0.026854
        12         7         6        26     9        0.000000        0.270089         1    ;  uncertainty k = 1.215594
        12         7         6        26     9      180.000000        0.970682         2    ;  uncertainty k = 0.379853
        12         7         6        26     9        0.000000        0.486667         3    ;  uncertainty k = 0.110642
        12         7         6        26     9      180.000000        0.249509         4    ;  uncertainty k = 0.167504
        12         7         8        33     9        0.000000        0.252150         1    ;  uncertainty k = 0.138569
        12         7         8        33     9      180.000000        7.620993         2    ;  uncertainty k = 0.536108
        12         7         8        33     9        0.000000        1.293074         3    ;  uncertainty k = 0.300641
        12         7         8        33     9      180.000000        1.649203         4    ;  uncertainty k = 0.194464
        12        11        10        35     9        0.000000        0.023623         1    ;  uncertainty k = 0.110077
        12        11        10        35     9      180.000000        7.495127         2    ;  uncertainty k = 0.205716
        12        11        10        35     9        0.000000        1.458527         3    ;  uncertainty k = 0.253934
        12        11        10        35     9      180.000000        1.798438         4    ;  uncertainty k = 0.212079
        13         6         5        32     9        0.000000        2.215360         1    ;  uncertainty k = 1.158417
        13         6         5        32     9      180.000000        0.335800         2    ;  uncertainty k = 1.110182
        13         6         5        32     9        0.000000        0.587312         3    ;  uncertainty k = 0.400245
        13         6         5        32     9      180.000000        0.046799         4    ;  uncertainty k = 0.131012
        13         6        26        27     9        0.000000       -0.497888         1    ;  uncertainty k = 1.456440
        13         6        26        27     9      180.000000        3.282056         2    ;  uncertainty k = 0.680877
        13         6        26        27     9        0.000000        0.447933         3    ;  uncertainty k = 0.239946
        13         6        26        27     9      180.000000        0.073709         4    ;  uncertainty k = 0.185546
        13        14        15        16     9        0.000000       -0.029521         1    ;  uncertainty k = 0.234167
        13        14        15        16     9      180.000000       13.122551         2    ;  uncertainty k = 0.326401
        13        14        15        16     9        0.000000       -0.887379         3    ;  uncertainty k = 0.560837
        13        14        15        16     9      180.000000        0.769787         4    ;  uncertainty k = 0.216799
        13        14        15        39     9        0.000000        0.130307         1    ;  uncertainty k = 0.335969
        13        14        15        39     9      180.000000        7.387018         2    ;  uncertainty k = 0.314936
        13        14        15        39     9        0.000000        1.444593         3    ;  uncertainty k = 0.134927
        13        14        15        39     9      180.000000        1.815730         4    ;  uncertainty k = 0.167712
        13        25        17        16     9        0.000000        0.068948         1    ;  uncertainty k = 0.313310
        13        25        17        16     9      180.000000        9.989860         2    ;  uncertainty k = 0.452721
        13        25        17        16     9        0.000000       -0.179663         3    ;  uncertainty k = 0.319918
        13        25        17        16     9      180.000000        1.074382         4    ;  uncertainty k = 0.319135
        13        25        17        18     9        0.000000        0.284523         1    ;  uncertainty k = 0.134695
        13        25        17        18     9      180.000000        8.501284         2    ;  uncertainty k = 0.358428
        13        25        17        18     9        0.000000        1.289052         3    ;  uncertainty k = 0.381709
        13        25        17        18     9      180.000000        1.704239         4    ;  uncertainty k = 0.054230
        14        13         6        26     9        0.000000        0.342002         1    ;  uncertainty k = 1.184395
        14        13         6        26     9      180.000000        0.986087         2    ;  uncertainty k = 0.376612
        14        13         6        26     9        0.000000        0.469383         3    ;  uncertainty k = 0.110008
        14        13         6        26     9      180.000000        0.252516         4    ;  uncertainty k = 0.170004
        14        13        25        17     9        0.000000       -0.353994         1    ;  uncertainty k = 0.451424
        14        13        25        17     9      180.000000       11.566137         2    ;  uncertainty k = 0.179664
        14        13        25        17     9        0.000000       -0.287132         3    ;  uncertainty k = 0.292653
        14        13        25        17     9      180.000000        0.946244         4    ;  uncertainty k = 0.249527
        14        13        25        44     9        0.000000        0.279737         1    ;  uncertainty k = 0.113551
        14        13        25        44     9      180.000000        7.836139         2    ;  uncertainty k = 0.503535
        14        13        25        44     9        0.000000        1.304639         3    ;  uncertainty k = 0.357736
        14        13        25        44     9      180.000000        1.639694         4    ;  uncertainty k = 0.192804
        14        15        16        17     9        0.000000       -0.080628         1    ;  uncertainty k = 0.263794
        14        15        16        17     9      180.000000       13.901897         2    ;  uncertainty k = 0.253938
        14        15        16        17     9        0.000000       -0.817844         3    ;  uncertainty k = 0.490164
        14        15        16        17     9      180.000000        0.718740         4    ;  uncertainty k = 0.231059
        14        15        16        40     9        0.000000        0.030210         1    ;  uncertainty k = 0.096295
        14        15        16        40     9      180.000000        7.702476         2    ;  uncertainty k = 0.235572
        14        15        16        40     9        0.000000        1.440509         3    ;  uncertainty k = 0.223601
        14        15        16        40     9      180.000000        1.811951         4    ;  uncertainty k = 0.221971
        15        14        13        25     9        0.000000       -0.280433         1    ;  uncertainty k = 0.294042
        15        14        13        25     9      180.000000       11.969758         2    ;  uncertainty k = 0.342150
        15        14        13        25     9        0.000000       -0.622723         3    ;  uncertainty k = 0.188401
        15        14        13        25     9      180.000000        0.825540         4    ;  uncertainty k = 0.274381
        15        16        17        18     9        0.000000       -0.051660         1    ;  uncertainty k = 0.193909
        15        16        17        18     9      180.000000        8.939046         2    ;  uncertainty k = 0.544017
        15        16        17        18     9        0.000000        1.165870         3    ;  uncertainty k = 0.411167
        15        16        17        18     9      180.000000        1.719319         4    ;  uncertainty k = 0.200187
        15        16        17        25     9        0.000000        0.109159         1    ;  uncertainty k = 0.136711
        15        16        17        25     9      180.000000       11.137697         2    ;  uncertainty k = 0.251449
        15        16        17        25     9        0.000000       -0.488560         3    ;  uncertainty k = 0.341442
        15        16        17        25     9      180.000000        0.920072         4    ;  uncertainty k = 0.277184
        16        15        14        38     9        0.000000        0.046198         1    ;  uncertainty k = 0.100255
        16        15        14        38     9      180.000000        7.762464         2    ;  uncertainty k = 0.383547
        16        15        14        38     9        0.000000        1.370296         3    ;  uncertainty k = 0.232972
        16        15        14        38     9      180.000000        1.812301         4    ;  uncertainty k = 0.097316
        16        17        18        19     9        0.000000       -0.226310         1    ;  uncertainty k = 0.765174
        16        17        18        19     9      180.000000        3.318514         2    ;  uncertainty k = 0.060478
        16        17        18        19     9        0.000000        0.341992         3    ;  uncertainty k = 0.235636
        16        17        18        19     9      180.000000       -0.177399         4    ;  uncertainty k = 0.071593
        16        17        18        24     9        0.000000       -0.435697         1    ;  uncertainty k = 0.403245
        16        17        18        24     9      180.000000        3.650687         2    ;  uncertainty k = 0.119240
        16        17        18        24     9        0.000000        0.304340         3    ;  uncertainty k = 0.162041
        16        17        18        24     9      180.000000       -0.119748         4    ;  uncertainty k = 0.066068
        16        17        25        44     9        0.000000        0.074491         1    ;  uncertainty k = 0.189899
        16        17        25        44     9      180.000000        7.235179         2    ;  uncertainty k = 0.712657
        16        17        25        44     9        0.000000        1.412868         3    ;  uncertainty k = 0.134878
        16        17        25        44     9      180.000000        1.625759         4    ;  uncertainty k = 0.242406
        17        16        15        39     9        0.000000        0.016854         1    ;  uncertainty k = 0.208050
        17        16        15        39     9      180.000000        7.691268         2    ;  uncertainty k = 0.320680
        17        16        15        39     9        0.000000        1.362185         3    ;  uncertainty k = 0.233440
        17        16        15        39     9      180.000000        1.828312         4    ;  uncertainty k = 0.181767
        17        18        19        20     9        0.000000        0.094809         1    ;  uncertainty k = 0.239816
        17        18        19        20     9      180.000000        9.489235         2    ;  uncertainty k = 0.224165
        17        18        19        20     9        0.000000        1.040175         3    ;  uncertainty k = 0.286803
        17        18        19        20     9      180.000000        1.731241         4    ;  uncertainty k = 0.177504
        17        18        19        41     9        0.000000       -0.464637         1    ;  uncertainty k = 0.718564
        17        18        19        41     9      180.000000        6.093598         2    ;  uncertainty k = 0.816316
        17        18        19        41     9        0.000000        0.824112         3    ;  uncertainty k = 0.180631
        17        18        19        41     9      180.000000        1.123702         4    ;  uncertainty k = 0.214640
        17        18        24        22     9        0.000000        0.160012         1    ;  uncertainty k = 0.240802
        17        18        24        22     9      180.000000        9.055255         2    ;  uncertainty k = 0.361554
        17        18        24        22     9        0.000000        1.339788         3    ;  uncertainty k = 0.297995
        17        18        24        22     9      180.000000        1.777711         4    ;  uncertainty k = 0.109154
        17        18        24        43     9        0.000000       -0.189774         1    ;  uncertainty k = 0.378069
        17        18        24        43     9      180.000000        7.130519         2    ;  uncertainty k = 0.368160
        17        18        24        43     9        0.000000        0.868341         3    ;  uncertainty k = 0.211424
        17        18        24        43     9      180.000000        1.181035         4    ;  uncertainty k = 0.195069
        18        17        16        40     9        0.000000       -0.162911         1    ;  uncertainty k = 0.270824
        18        17        16        40     9      180.000000        7.184256         2    ;  uncertainty k = 0.406975
        18        17        16        40     9        0.000000        0.894850         3    ;  uncertainty k = 0.118067
        18        17        16        40     9      180.000000        1.210232         4    ;  uncertainty k = 0.188895
        18        17        25        44     9        0.000000       -0.138707         1    ;  uncertainty k = 0.204241
        18        17        25        44     9      180.000000        7.358031         2    ;  uncertainty k = 0.225017
        18        17        25        44     9        0.000000        0.874746         3    ;  uncertainty k = 0.172372
        18        17        25        44     9      180.000000        1.289594         4    ;  uncertainty k = 0.189526
        18        19        20        21     9        0.000000       -0.498061         1    ;  uncertainty k = 0.544916
        18        19        20        21     9      180.000000       14.456141         2    ;  uncertainty k = 0.402621
        18        19        20        21     9        0.000000        0.854061         3    ;  uncertainty k = 0.722614
        18        19        20        21     9      180.000000        1.439720         4    ;  uncertainty k = 0.130973
        18        24        22        21     9        0.000000        0.035469         1    ;  uncertainty k = 0.297316
        18        24        22        21     9      180.000000        9.357358         2    ;  uncertainty k = 0.412143
        18        24        22        21     9        0.000000       -0.177895         3    ;  uncertainty k = 0.344677
        18        24        22        21     9      180.000000        1.167316         4    ;  uncertainty k = 0.344014
        18        24        22        23     9        0.000000        0.107933         1    ;  uncertainty k = 0.155264
        18        24        22        23     9      180.000000        9.678916         2    ;  uncertainty k = 0.657028
        18        24        22        23     9        0.000000        1.461880         3    ;  uncertainty k = 0.466704
        18        24        22        23     9      180.000000        1.715216         4    ;  uncertainty k = 0.164374
        19        18        17        25     9        0.000000       -0.181724         1    ;  uncertainty k = 0.615987
        19        18        17        25     9      180.000000        3.511491         2    ;  uncertainty k = 0.102571
        19        18        17        25     9        0.000000        0.364606         3    ;  uncertainty k = 0.233371
        19        18        17        25     9      180.000000       -0.141414         4    ;  uncertainty k = 0.043316
        19        18        24        22     9        0.000000        0.051304         1    ;  uncertainty k = 0.211426
        19        18        24        22     9      180.000000       10.851769         2    ;  uncertainty k = 0.279729
        19        18        24        22     9        0.000000       -0.466285         3    ;  uncertainty k = 0.355211
        19        18        24        22     9      180.000000        0.995877         4    ;  uncertainty k = 0.312900
        19        18        24        43     9        0.000000        0.027267         1    ;  uncertainty k = 0.174758
        19        18        24        43     9      180.000000        6.747257         2    ;  uncertainty k = 0.628661
        19        18        24        43     9        0.000000        1.263032         3    ;  uncertainty k = 0.191631
        19        18        24        43     9      180.000000        1.491022         4    ;  uncertainty k = 0.249731
        19        20        21        22     9        0.000000       -0.195558         1    ;  uncertainty k = 0.115637
        19        20        21        22     9      180.000000       15.650274         2    ;  uncertainty k = 0.343985
        19        20        21        22     9        0.000000        0.762373         3    ;  uncertainty k = 0.867802
        19        20        21        22     9      180.000000        1.423264         4    ;  uncertainty k = 0.208956
        19        20        21        42     9        0.000000        0.413457         1    ;  uncertainty k = 0.273538
        19        20        21        42     9      180.000000       14.729759         2    ;  uncertainty k = 0.417032
        19        20        21        42     9        0.000000        2.167356         3    ;  uncertainty k = 0.507140
        19        20        21        42     9      180.000000        1.599587         4    ;  uncertainty k = 0.348353
        20        19        18        24     9        0.000000       -0.257986         1    ;  uncertainty k = 0.314866
        20        19        18        24     9      180.000000       12.328881         2    ;  uncertainty k = 0.475362
        20        19        18        24     9        0.000000       -0.346797         3    ;  uncertainty k = 0.447560
        20        19        18        24     9      180.000000        1.092048         4    ;  uncertainty k = 0.209003
        20        21        22        23     9        0.000000       -0.028608         1    ;  uncertainty k = 0.553653
        20        21        22        23     9      180.000000        9.670962         2    ;  uncertainty k = 0.524179
        20        21        22        23     9        0.000000        1.274322         3    ;  uncertainty k = 0.095361
        20        21        22        23     9      180.000000        1.640263         4    ;  uncertainty k = 0.090350
        20        21        22        24     9        0.000000       -0.246181         1    ;  uncertainty k = 0.230884
        20        21        22        24     9      180.000000       10.604006         2    ;  uncertainty k = 0.530621
        20        21        22        24     9        0.000000       -0.390799         3    ;  uncertainty k = 0.482254
        20        21        22        24     9      180.000000        1.178533         4    ;  uncertainty k = 0.264537
        21        20        19        41     9        0.000000        0.289036         1    ;  uncertainty k = 0.220510
        21        20        19        41     9      180.000000       15.268513         2    ;  uncertainty k = 0.409055
        21        20        19        41     9        0.000000        2.246151         3    ;  uncertainty k = 0.443199
        21        20        19        41     9      180.000000        1.613693         4    ;  uncertainty k = 0.373364
        21        22        24        43     9        0.000000       -0.249462         1    ;  uncertainty k = 0.305695
        21        22        24        43     9      180.000000        5.855266         2    ;  uncertainty k = 0.592140
        21        22        24        43     9        0.000000        1.310179         3    ;  uncertainty k = 0.206788
        21        22        24        43     9      180.000000        1.497610         4    ;  uncertainty k = 0.138689
        23        22        21        42     9        0.000000        0.088007         1    ;  uncertainty k = 0.371438
        23        22        21        42     9      180.000000        6.041007         2    ;  uncertainty k = 0.299418
        23        22        21        42     9        0.000000        0.536070         3    ;  uncertainty k = 0.253176
        23        22        21        42     9      180.000000        0.855615         4    ;  uncertainty k = 0.210633
        23        22        24        43     9        0.000000       -0.261261         1    ;  uncertainty k = 0.295850
        23        22        24        43     9      180.000000        7.762844         2    ;  uncertainty k = 0.342277
        23        22        24        43     9        0.000000        0.573724         3    ;  uncertainty k = 0.295228
        23        22        24        43     9      180.000000        0.951498         4    ;  uncertainty k = 0.120023
        24        18        17        25     9        0.000000       -0.177829         1    ;  uncertainty k = 0.375254
        24        18        17        25     9      180.000000        3.930859         2    ;  uncertainty k = 0.168106
        24        18        17        25     9        0.000000        0.266837         3    ;  uncertainty k = 0.200537
        24        18        17        25     9      180.000000       -0.048907         4    ;  uncertainty k = 0.056841
        24        18        19        41     9        0.000000       -0.092110         1    ;  uncertainty k = 0.572883
        24        18        19        41     9      180.000000        5.437799         2    ;  uncertainty k = 0.669602
        24        18        19        41     9        0.000000        1.074320         3    ;  uncertainty k = 0.271566
        24        18        19        41     9      180.000000        1.402480         4    ;  uncertainty k = 0.189319
        24        22        21        42     9        0.000000       -0.431072         1    ;  uncertainty k = 0.293523
        24        22        21        42     9      180.000000        4.711221         2    ;  uncertainty k = 0.521049
        24        22        21        42     9        0.000000        1.017365         3    ;  uncertainty k = 0.193912
        24        22        21        42     9      180.000000        1.234184         4    ;  uncertainty k = 0.212590
        25        13         6        26     9        0.000000        0.349181         1    ;  uncertainty k = 1.231580
        25        13         6        26     9      180.000000        0.988696         2    ;  uncertainty k = 0.351945
        25        13         6        26     9        0.000000        0.415623         3    ;  uncertainty k = 0.100304
        25        13         6        26     9      180.000000        0.260454         4    ;  uncertainty k = 0.165049
        25        13        14        38     9        0.000000        0.305946         1    ;  uncertainty k = 0.185613
        25        13        14        38     9      180.000000        7.597169         2    ;  uncertainty k = 0.556768
        25        13        14        38     9        0.000000        1.291677         3    ;  uncertainty k = 0.346576
        25        13        14        38     9      180.000000        1.643539         4    ;  uncertainty k = 0.210915
        25        17        16        40     9        0.000000        0.152650         1    ;  uncertainty k = 0.192155
        25        17        16        40     9      180.000000        7.037682         2    ;  uncertainty k = 0.467873
        25        17        16        40     9        0.000000        1.408636         3    ;  uncertainty k = 0.273567
        25        17        16        40     9      180.000000        1.598522         4    ;  uncertainty k = 0.258547
        26         2         1        28     9        0.000000        0.248591         1    ;  uncertainty k = 0.444249
        26         2         1        28     9      180.000000        0.083806         2    ;  uncertainty k = 0.256009
        26         2         1        28     9        0.000000        0.361519         3    ;  uncertainty k = 0.229559
        26         2         1        28     9      180.000000        0.309824         4    ;  uncertainty k = 0.070542
        26         2         1        29     9        0.000000        0.248591         1    ;  uncertainty k = 0.444249
        26         2         1        29     9      180.000000        0.083806         2    ;  uncertainty k = 0.256009
        26         2         1        29     9        0.000000        0.361519         3    ;  uncertainty k = 0.229559
        26         2         1        29     9      180.000000        0.309824         4    ;  uncertainty k = 0.070542
        26         2         1        30     9        0.000000        0.248591         1    ;  uncertainty k = 0.444249
        26         2         1        30     9      180.000000        0.083806         2    ;  uncertainty k = 0.256009
        26         2         1        30     9        0.000000        0.361519         3    ;  uncertainty k = 0.229559
        26         2         1        30     9      180.000000        0.309824         4    ;  uncertainty k = 0.070542
        26         6         5        32     9        0.000000       -0.290074         1    ;  uncertainty k = 2.574717
        26         6         5        32     9      180.000000        0.241721         2    ;  uncertainty k = 1.828814
        26         6         5        32     9        0.000000        0.369689         3    ;  uncertainty k = 0.455815
        26         6         5        32     9      180.000000       -0.040549         4    ;  uncertainty k = 0.160948
        33         8         9        34     9        0.000000       -0.156460         1    ;  uncertainty k = 0.354103
        33         8         9        34     9      180.000000        7.863235         2    ;  uncertainty k = 0.315073
        33         8         9        34     9        0.000000       -0.450842         3    ;  uncertainty k = 0.303952
        33         8         9        34     9      180.000000        0.185726         4    ;  uncertainty k = 0.168830
        34         9        10        35     9        0.000000       -0.049616         1    ;  uncertainty k = 0.148336
        34         9        10        35     9      180.000000        7.798625         2    ;  uncertainty k = 0.386263
        34         9        10        35     9        0.000000       -0.413767         3    ;  uncertainty k = 0.291377
        34         9        10        35     9      180.000000        0.047027         4    ;  uncertainty k = 0.170118
        35        10        11        36     9        0.000000       -0.049616         1    ;  uncertainty k = 0.148337
        35        10        11        36     9      180.000000        7.798625         2    ;  uncertainty k = 0.386262
        35        10        11        36     9        0.000000       -0.413767         3    ;  uncertainty k = 0.291378
        35        10        11        36     9      180.000000        0.047026         4    ;  uncertainty k = 0.170118
        36        11        12        37     9        0.000000       -0.156458         1    ;  uncertainty k = 0.354101
        36        11        12        37     9      180.000000        7.863232         2    ;  uncertainty k = 0.315071
        36        11        12        37     9        0.000000       -0.450842         3    ;  uncertainty k = 0.303952
        36        11        12        37     9      180.000000        0.185726         4    ;  uncertainty k = 0.168830
        38        14        15        39     9        0.000000       -0.162735         1    ;  uncertainty k = 0.342358
        38        14        15        39     9      180.000000        7.812447         2    ;  uncertainty k = 0.315878
        38        14        15        39     9        0.000000       -0.476482         3    ;  uncertainty k = 0.316090
        38        14        15        39     9      180.000000        0.149754         4    ;  uncertainty k = 0.190255
        39        15        16        40     9        0.000000       -0.087063         1    ;  uncertainty k = 0.221646
        39        15        16        40     9      180.000000        7.986534         2    ;  uncertainty k = 0.292337
        39        15        16        40     9        0.000000       -0.491663         3    ;  uncertainty k = 0.269712
        39        15        16        40     9      180.000000        0.117964         4    ;  uncertainty k = 0.148528

[ dihedrals ] ; impropers
;       ai        aj        ak        al funct           phase               k        pn
         2         1         3        26     4      180.000000        1.980029         2    ;  uncertainty k = 0.475019
         2         3        26         1     4      180.000000        1.980029         2    ;  uncertainty k = 0.475019
         2        26         1         3     4      180.000000        1.980029         2    ;  uncertainty k = 0.475019
         3         2         4         5     4      180.000000       30.576100         2    ;  uncertainty k = 0.126950
         3         4         5         2     4      180.000000       30.576100         2    ;  uncertainty k = 0.126950
         3         5         2         4     4      180.000000       30.576100         2    ;  uncertainty k = 0.126950
         4         3        31        45     4      180.000000        0.162942         2    ;  uncertainty k = 0.364350
         4        31        45         3     4      180.000000        0.162942         2    ;  uncertainty k = 0.364350
         4        45         3        31     4      180.000000        0.162942         2    ;  uncertainty k = 0.364350
         7         6         8        12     4      180.000000        9.903187         2    ;  uncertainty k = 0.263109
         7         8        12         6     4      180.000000        9.903187         2    ;  uncertainty k = 0.263109
         7        12         6         8     4      180.000000        9.903187         2    ;  uncertainty k = 0.263109
         8         7         9        33     4      180.000000        4.262961         2    ;  uncertainty k = 0.194702
         8         9        33         7     4      180.000000        4.262961         2    ;  uncertainty k = 0.194702
         8        33         7         9     4      180.000000        4.262961         2    ;  uncertainty k = 0.194702
         9         8        10        34     4      180.000000        4.374957         2    ;  uncertainty k = 0.132607
         9        10        34         8     4      180.000000        4.374957         2    ;  uncertainty k = 0.132607
         9        34         8        10     4      180.000000        4.374957         2    ;  uncertainty k = 0.132607
        10         9        11        35     4      180.000000        4.945480         2    ;  uncertainty k = 0.161840
        10        11        35         9     4      180.000000        4.945480         2    ;  uncertainty k = 0.161840
        10        35         9        11     4      180.000000        4.945480         2    ;  uncertainty k = 0.161840
        11        10        12        36     4      180.000000        4.374960         2    ;  uncertainty k = 0.132607
        11        12        36        10     4      180.000000        4.374960         2    ;  uncertainty k = 0.132607
        11        36        10        12     4      180.000000        4.374960         2    ;  uncertainty k = 0.132607
        12         7        11        37     4      180.000000        4.262962         2    ;  uncertainty k = 0.194702
        12        11        37         7     4      180.000000        4.262962         2    ;  uncertainty k = 0.194702
        12        37         7        11     4      180.000000        4.262962         2    ;  uncertainty k = 0.194702
        13         6        14        25     4      180.000000       10.246082         2    ;  uncertainty k = 0.229427
        13        14        25         6     4      180.000000       10.246082         2    ;  uncertainty k = 0.229427
        13        25         6        14     4      180.000000       10.246082         2    ;  uncertainty k = 0.229427
        14        13        15        38     4      180.000000        4.099001         2    ;  uncertainty k = 0.199477
        14        15        38        13     4      180.000000        4.099001         2    ;  uncertainty k = 0.199477
        14        38        13        15     4      180.000000        4.099001         2    ;  uncertainty k = 0.199477
        15        14        16        39     4      180.000000        4.144786         2    ;  uncertainty k = 0.128854
        15        16        39        14     4      180.000000        4.144786         2    ;  uncertainty k = 0.128854
        15        39        14        16     4      180.000000        4.144786         2    ;  uncertainty k = 0.128854
        16        15        17        40     4      180.000000        4.586953         2    ;  uncertainty k = 0.145216
        16        17        40        15     4      180.000000        4.586953         2    ;  uncertainty k = 0.145216
        16        40        15        17     4      180.000000        4.586953         2    ;  uncertainty k = 0.145216
        17        16        18        25     4      180.000000       15.274466         2    ;  uncertainty k = 0.067352
        17        18        25        16     4      180.000000       15.274466         2    ;  uncertainty k = 0.067352
        17        25        16        18     4      180.000000       15.274466         2    ;  uncertainty k = 0.067352
        18        17        19        24     4      180.000000       13.631370         2    ;  uncertainty k = 0.101941
        18        19        24        17     4      180.000000       13.631370         2    ;  uncertainty k = 0.101941
        18        24        17        19     4      180.000000       13.631370         2    ;  uncertainty k = 0.101941
        19        18        20        41     4      180.000000       13.241892         2    ;  uncertainty k = 0.043861
        19        20        41        18     4      180.000000       13.241892         2    ;  uncertainty k = 0.043861
        19        41        18        20     4      180.000000       13.241892         2    ;  uncertainty k = 0.043861
        21        20        22        42     4      180.000000       12.474048         2    ;  uncertainty k = 0.045507
        21        22        42        20     4      180.000000       12.474048         2    ;  uncertainty k = 0.045507
        21        42        20        22     4      180.000000       12.474048         2    ;  uncertainty k = 0.045507
        22        21        23        24     4      180.000000       12.695316         2    ;  uncertainty k = 0.056339
        22        23        24        21     4      180.000000       12.695316         2    ;  uncertainty k = 0.056339
        22        24        21        23     4      180.000000       12.695316         2    ;  uncertainty k = 0.056339
        24        18        22        43     4      180.000000        5.524366         2    ;  uncertainty k = 0.140465
        24        22        43        18     4      180.000000        5.524366         2    ;  uncertainty k = 0.140465
        24        43        18        22     4      180.000000        5.524366         2    ;  uncertainty k = 0.140465
        25        13        17        44     4      180.000000        4.488531         2    ;  uncertainty k = 0.287630
        25        17        44        13     4      180.000000        4.488531         2    ;  uncertainty k = 0.287630
        25        44        13        17     4      180.000000        4.488531         2    ;  uncertainty k = 0.287630
        26         2         6        27     4      180.000000       49.868697         2    ;  uncertainty k = 0.032116
        26         6        27         2     4      180.000000       49.868697         2    ;  uncertainty k = 0.032116
        26        27         2         6     4      180.000000       49.868697         2    ;  uncertainty k = 0.032116

[ pairs ]
;       ai        aj funct
         1         4     1
         1         5     1
         1         6     1
         1        27     1
         2         7     1
         2        13     1
         2        31     1
         2        32     1
         2        45     1
         3         7     1
         3        13     1
         3        27     1
         3        28     1
         3        29     1
         3        30     1
         4         6     1
         4        26     1
         4        32     1
         5         8     1
         5        12     1
         5        14     1
         5        25     1
         5        27     1
         5        31     1
         5        45     1
         6         9     1
         6        11     1
         6        15     1
         6        17     1
         6        33     1
         6        37     1
         6        38     1
         6        44     1
         7        10     1
         7        14     1
         7        25     1
         7        27     1
         7        32     1
         7        34     1
         7        36     1
         8        11     1
         8        13     1
         8        26     1
         8        35     1
         8        37     1
         9        12     1
         9        36     1
        10        33     1
        10        37     1
        11        34     1
        12        13     1
        12        26     1
        12        33     1
        12        35     1
        13        16     1
        13        18     1
        13        27     1
        13        32     1
        13        39     1
        14        17     1
        14        26     1
        14        40     1
        14        44     1
        15        18     1
        15        25     1
        16        19     1
        16        24     1
        16        38     1
        16        44     1
        17        20     1
        17        22     1
        17        39     1
        17        41     1
        17        43     1
        18        21     1
        18        23     1
        18        40     1
        18        44     1
        19        22     1
        19        25     1
        19        42     1
        19        43     1
        20        23     1
        20        24     1
        21        41     1
        21        43     1
        23        42     1
        23        43     1
        24        25     1
        24        41     1
        24        42     1
        25        26     1
        25        38     1
        25        40     1
        26        28     1
        26        29     1
        26        30     1
        26        32     1
        33        34     1
        34        35     1
        35        36     1
        36        37     1
        38        39     1
        39        40     1
