; ITP file created by ByteFF-joint-25, 2026-02-18 03:16:19.457112

[ atomtypes ]
;name           bonded.type        at.num        mass        charge   ptype           sigma         epsilon
 c0bf                                   6      0.0000       0.00000       A     3.39732e-01     4.51256e-01    ;  uncertainty sigma = 0.000013, epsilon = 0.001265
 n1bf                                   7      0.0000       0.00000       A     3.18098e-01     6.83124e-01    ;  uncertainty sigma = 0.000073, epsilon = 0.006424
 c2bf                                   6      0.0000       0.00000       A     3.31512e-01     4.12381e-01    ;  uncertainty sigma = 0.000058, epsilon = 0.001500
 n3bf                                   7      0.0000       0.00000       A     3.36544e-01     4.71564e-01    ;  uncertainty sigma = 0.000086, epsilon = 0.005524
 n4bf                                   7      0.0000       0.00000       A     3.27509e-01     6.57242e-01    ;  uncertainty sigma = 0.000130, epsilon = 0.008084
 c5bf                                   6      0.0000       0.00000       A     3.39811e-01     4.51032e-01    ;  uncertainty sigma = 0.000040, epsilon = 0.003220
 c6bf                                   6      0.0000       0.00000       A     3.31531e-01     4.13824e-01    ;  uncertainty sigma = 0.000018, epsilon = 0.001266
 c7bf                                   6      0.0000       0.00000       A     3.31524e-01     4.13153e-01    ;  uncertainty sigma = 0.000006, epsilon = 0.001193
 n8bf                                   7      0.0000       0.00000       A     3.38435e-01     3.93611e-01    ;  uncertainty sigma = 0.000016, epsilon = 0.001591
 c9bf                                   6      0.0000       0.00000       A     3.31536e-01     4.12893e-01    ;  uncertainty sigma = 0.000007, epsilon = 0.001163
 n10bf                                  7      0.0000       0.00000       A     3.38435e-01     3.93611e-01    ;  uncertainty sigma = 0.000016, epsilon = 0.001591
 c11bf                                  6      0.0000       0.00000       A     3.31524e-01     4.13153e-01    ;  uncertainty sigma = 0.000006, epsilon = 0.001193
 c12bf                                  6      0.0000       0.00000       A     3.31576e-01     4.13937e-01    ;  uncertainty sigma = 0.000024, epsilon = 0.001337
 c13bf                                  6      0.0000       0.00000       A     3.31510e-01     4.13156e-01    ;  uncertainty sigma = 0.000002, epsilon = 0.000626
 c14bf                                  6      0.0000       0.00000       A     3.31522e-01     4.13312e-01    ;  uncertainty sigma = 0.000003, epsilon = 0.000635
 c15bf                                  6      0.0000       0.00000       A     3.31513e-01     4.13269e-01    ;  uncertainty sigma = 0.000005, epsilon = 0.000649
 c16bf                                  6      0.0000       0.00000       A     3.31498e-01     4.13558e-01    ;  uncertainty sigma = 0.000008, epsilon = 0.000546
 c17bf                                  6      0.0000       0.00000       A     3.31513e-01     4.13167e-01    ;  uncertainty sigma = 0.000009, epsilon = 0.000575
 c18bf                                  6      0.0000       0.00000       A     3.31511e-01     4.13320e-01    ;  uncertainty sigma = 0.000005, epsilon = 0.000665
 c19bf                                  6      0.0000       0.00000       A     3.31521e-01     4.13375e-01    ;  uncertainty sigma = 0.000003, epsilon = 0.000656
 c20bf                                  6      0.0000       0.00000       A     3.31522e-01     4.13446e-01    ;  uncertainty sigma = 0.000004, epsilon = 0.000552
 c21bf                                  6      0.0000       0.00000       A     3.31526e-01     4.13122e-01    ;  uncertainty sigma = 0.000006, epsilon = 0.000502
 cl22bf                                17      0.0000       0.00000       A     3.46610e-01     1.10414e+00    ;  uncertainty sigma = 0.000013, epsilon = 0.001445
 c23bf                                  6      0.0000       0.00000       A     3.31523e-01     4.13401e-01    ;  uncertainty sigma = 0.000007, epsilon = 0.000655
 c24bf                                  6      0.0000       0.00000       A     3.31517e-01     4.13161e-01    ;  uncertainty sigma = 0.000019, epsilon = 0.001030
 c25bf                                  6      0.0000       0.00000       A     3.31549e-01     4.14308e-01    ;  uncertainty sigma = 0.000019, epsilon = 0.000763
 o26bf                                  8      0.0000       0.00000       A     3.04823e-01     6.12187e-01    ;  uncertainty sigma = 0.000062, epsilon = 0.001949
 h27bf                                  1      0.0000       0.00000       A     2.42208e-01     8.66970e-02    ;  uncertainty sigma = 0.000028, epsilon = 0.000664
 h28bf                                  1      0.0000       0.00000       A     2.42208e-01     8.66970e-02    ;  uncertainty sigma = 0.000028, epsilon = 0.000664
 h29bf                                  1      0.0000       0.00000       A     2.42208e-01     8.66970e-02    ;  uncertainty sigma = 0.000028, epsilon = 0.000664
 h30bf                                  1      0.0000       0.00000       A     1.10696e-01     4.12787e-02    ;  uncertainty sigma = 0.000128, epsilon = 0.001559
 h31bf                                  1      0.0000       0.00000       A     1.10548e-01     4.04868e-02    ;  uncertainty sigma = 0.000082, epsilon = 0.001718
 h32bf                                  1      0.0000       0.00000       A     2.53621e-01     6.70301e-02    ;  uncertainty sigma = 0.000031, epsilon = 0.000584
 h33bf                                  1      0.0000       0.00000       A     2.44767e-01     6.73273e-02    ;  uncertainty sigma = 0.000010, epsilon = 0.000500
 h34bf                                  1      0.0000       0.00000       A     2.53621e-01     6.70301e-02    ;  uncertainty sigma = 0.000031, epsilon = 0.000584
 h35bf                                  1      0.0000       0.00000       A     2.62558e-01     6.70852e-02    ;  uncertainty sigma = 0.000008, epsilon = 0.000420
 h36bf                                  1      0.0000       0.00000       A     2.62564e-01     6.70137e-02    ;  uncertainty sigma = 0.000010, epsilon = 0.000418
 h37bf                                  1      0.0000       0.00000       A     2.62562e-01     6.70409e-02    ;  uncertainty sigma = 0.000012, epsilon = 0.000507
 h38bf                                  1      0.0000       0.00000       A     2.62562e-01     6.70409e-02    ;  uncertainty sigma = 0.000012, epsilon = 0.000507
 h39bf                                  1      0.0000       0.00000       A     2.62568e-01     6.69666e-02    ;  uncertainty sigma = 0.000007, epsilon = 0.000468
 h40bf                                  1      0.0000       0.00000       A     2.62560e-01     6.70939e-02    ;  uncertainty sigma = 0.000009, epsilon = 0.000590
 h41bf                                  1      0.0000       0.00000       A     2.62559e-01     6.71672e-02    ;  uncertainty sigma = 0.000013, epsilon = 0.000620
 h42bf                                  1      0.0000       0.00000       A     2.62550e-01     6.72376e-02    ;  uncertainty sigma = 0.000014, epsilon = 0.000655
 h43bf                                  1      0.0000       0.00000       A     1.10696e-01     4.12787e-02    ;  uncertainty sigma = 0.000128, epsilon = 0.001559

[ moleculetype ]
;name             nrexcl
 MOL                   3

[ atoms ]
;       nr            type      resi   res      atom      cgnr      charge          mass ; qtot
         1            c0bf         1   UNL        c0         1     0.07531       12.0110 ; qtot    0.075
         2            n1bf         1   UNL        n1         2    -0.41540       14.0070 ; qtot   -0.340
         3            c2bf         1   UNL        c2         3     0.46449       12.0110 ; qtot    0.124
         4            n3bf         1   UNL        n3         4    -0.47751       14.0070 ; qtot   -0.353
         5            n4bf         1   UNL        n4         5    -0.38395       14.0070 ; qtot   -0.737
         6            c5bf         1   UNL        c5         6     0.10232       12.0110 ; qtot   -0.635
         7            c6bf         1   UNL        c6         7    -0.39237       12.0110 ; qtot   -1.027
         8            c7bf         1   UNL        c7         8     0.47753       12.0110 ; qtot   -0.550
         9            n8bf         1   UNL        n8         9    -0.67298       14.0070 ; qtot   -1.223
        10            c9bf         1   UNL        c9        10     0.66654       12.0110 ; qtot   -0.556
        11           n10bf         1   UNL       n10        11    -0.67298       14.0070 ; qtot   -1.229
        12           c11bf         1   UNL       c11        12     0.47753       12.0110 ; qtot   -0.751
        13           c12bf         1   UNL       c12        13    -0.14220       12.0110 ; qtot   -0.894
        14           c13bf         1   UNL       c13        14    -0.09084       12.0110 ; qtot   -0.985
        15           c14bf         1   UNL       c14        15    -0.11062       12.0110 ; qtot   -1.095
        16           c15bf         1   UNL       c15        16    -0.09155       12.0110 ; qtot   -1.187
        17           c16bf         1   UNL       c16        17    -0.01624       12.0110 ; qtot   -1.203
        18           c17bf         1   UNL       c17        18    -0.03571       12.0110 ; qtot   -1.239
        19           c18bf         1   UNL       c18        19    -0.11891       12.0110 ; qtot   -1.358
        20           c19bf         1   UNL       c19        20    -0.12274       12.0110 ; qtot   -1.480
        21           c20bf         1   UNL       c20        21    -0.11373       12.0110 ; qtot   -1.594
        22           c21bf         1   UNL       c21        22     0.03067       12.0110 ; qtot   -1.563
        23          cl22bf         1   UNL      cl22        23    -0.11712       35.4530 ; qtot   -1.680
        24           c23bf         1   UNL       c23        24    -0.11226       12.0110 ; qtot   -1.793
        25           c24bf         1   UNL       c24        25    -0.07681       12.0110 ; qtot   -1.870
        26           c25bf         1   UNL       c25        26     0.70475       12.0110 ; qtot   -1.165
        27           o26bf         1   UNL       o26        27    -0.43786       15.9990 ; qtot   -1.603
        28           h27bf         1   UNL       h27        28     0.09057        1.0080 ; qtot   -1.512
        29           h28bf         1   UNL       h28        29     0.09057        1.0080 ; qtot   -1.422
        30           h29bf         1   UNL       h29        30     0.09057        1.0080 ; qtot   -1.331
        31           h30bf         1   UNL       h30        31     0.33582        1.0080 ; qtot   -0.995
        32           h31bf         1   UNL       h31        32     0.35571        1.0080 ; qtot   -0.639
        33           h32bf         1   UNL       h32        33     0.04272        1.0080 ; qtot   -0.597
        34           h33bf         1   UNL       h33        34     0.05497        1.0080 ; qtot   -0.542
        35           h34bf         1   UNL       h34        35     0.04272        1.0080 ; qtot   -0.499
        36           h35bf         1   UNL       h35        36     0.14740        1.0080 ; qtot   -0.352
        37           h36bf         1   UNL       h36        37     0.14845        1.0080 ; qtot   -0.203
        38           h37bf         1   UNL       h37        38     0.13653        1.0080 ; qtot   -0.067
        39           h38bf         1   UNL       h38        39     0.13932        1.0080 ; qtot    0.073
        40           h39bf         1   UNL       h39        40     0.13920        1.0080 ; qtot    0.212
        41           h40bf         1   UNL       h40        41     0.15171        1.0080 ; qtot    0.364
        42           h41bf         1   UNL       h41        42     0.15143        1.0080 ; qtot    0.515
        43           h42bf         1   UNL       h42        43     0.14913        1.0080 ; qtot    0.664
        44           h43bf         1   UNL       h43        44     0.33582        1.0080 ; qtot    1.000

[ bonds ]
;       ai        aj funct               r               k
         1         2     1        0.146681   260602.881348    ;  uncertainty r = 0.000143, k = 13.029281
         1        28     1        0.109174   309405.420996    ;  uncertainty r = 0.000045, k = 3.044469
         1        29     1        0.109174   309405.420996    ;  uncertainty r = 0.000045, k = 3.044469
         1        30     1        0.109174   309405.420996    ;  uncertainty r = 0.000045, k = 3.044469
         2         3     1        0.135483   280628.393018    ;  uncertainty r = 0.000172, k = 43.937728
         2        26     1        0.142501   296624.302051    ;  uncertainty r = 0.000354, k = 76.963461
         3         4     1        0.132957   308233.676270    ;  uncertainty r = 0.000232, k = 39.227304
         3         5     1        0.133760   524345.294922    ;  uncertainty r = 0.000106, k = 45.080654
         4        31     1        0.101396   420869.489551    ;  uncertainty r = 0.000073, k = 12.258235
         4        44     1        0.101396   420869.489551    ;  uncertainty r = 0.000073, k = 12.258266
         5         6     1        0.149948   229549.603125    ;  uncertainty r = 0.000279, k = 76.182971
         5        32     1        0.101508   429701.243457    ;  uncertainty r = 0.000021, k = 4.136765
         6         7     1        0.150771   213833.006226    ;  uncertainty r = 0.000083, k = 23.711742
         6        13     1        0.150905   203324.549561    ;  uncertainty r = 0.000131, k = 19.681806
         6        26     1        0.154067   176997.666772    ;  uncertainty r = 0.000147, k = 21.065581
         7         8     1        0.140248   378447.626514    ;  uncertainty r = 0.000149, k = 12.114728
         7        12     1        0.140248   378447.626514    ;  uncertainty r = 0.000149, k = 12.114728
         8         9     1        0.133520   407094.900439    ;  uncertainty r = 0.000089, k = 24.134177
         8        33     1        0.108951   329307.894873    ;  uncertainty r = 0.000045, k = 4.409629
         9        10     1        0.134127   394495.707861    ;  uncertainty r = 0.000007, k = 6.665015
        10        11     1        0.134127   394495.707861    ;  uncertainty r = 0.000007, k = 6.665015
        10        34     1        0.108844   338527.761768    ;  uncertainty r = 0.000016, k = 3.491460
        11        12     1        0.133520   407094.900439    ;  uncertainty r = 0.000089, k = 24.134177
        12        35     1        0.108951   329307.920410    ;  uncertainty r = 0.000045, k = 4.409634
        13        14     1        0.139717   349975.256250    ;  uncertainty r = 0.000032, k = 5.369772
        13        25     1        0.139523   343773.262793    ;  uncertainty r = 0.000074, k = 5.861374
        14        15     1        0.139488   369019.351270    ;  uncertainty r = 0.000030, k = 1.373547
        14        36     1        0.108776   332840.519824    ;  uncertainty r = 0.000030, k = 2.465001
        15        16     1        0.139322   371310.132129    ;  uncertainty r = 0.000027, k = 2.710980
        15        37     1        0.108768   333105.390723    ;  uncertainty r = 0.000026, k = 1.115190
        16        17     1        0.140091   347280.171875    ;  uncertainty r = 0.000012, k = 0.960281
        16        38     1        0.108820   334865.331689    ;  uncertainty r = 0.000023, k = 0.943369
        17        18     1        0.147934   271374.689453    ;  uncertainty r = 0.000042, k = 4.511296
        17        25     1        0.139801   338570.613037    ;  uncertainty r = 0.000051, k = 3.021199
        18        19     1        0.140235   345940.954785    ;  uncertainty r = 0.000017, k = 2.209472
        18        24     1        0.140145   349973.877246    ;  uncertainty r = 0.000025, k = 1.038802
        19        20     1        0.139452   367068.239502    ;  uncertainty r = 0.000025, k = 1.779917
        19        39     1        0.108805   334917.401855    ;  uncertainty r = 0.000025, k = 0.881860
        20        21     1        0.139500   374338.220410    ;  uncertainty r = 0.000020, k = 1.415145
        20        40     1        0.108776   333408.771582    ;  uncertainty r = 0.000008, k = 1.051683
        21        22     1        0.139473   361470.709424    ;  uncertainty r = 0.000016, k = 2.291906
        21        41     1        0.108715   335671.742529    ;  uncertainty r = 0.000009, k = 0.604891
        22        23     1        0.175805   197124.254321    ;  uncertainty r = 0.000030, k = 2.861057
        22        24     1        0.139310   357391.896777    ;  uncertainty r = 0.000022, k = 1.821578
        24        42     1        0.108730   336354.375000    ;  uncertainty r = 0.000018, k = 1.108100
        25        43     1        0.108815   333309.968506    ;  uncertainty r = 0.000020, k = 2.085858
        26        27     1        0.119915   628672.711816    ;  uncertainty r = 0.000219, k = 13.221123

[ angles ]
;       ai        aj        ak funct           theta             cth
         1         2         3     1      118.639038      373.068630    ;  uncertainty theta = 0.007053, k = 0.430287
         1         2        26     1      119.016281      399.871486    ;  uncertainty theta = 0.007962, k = 0.318292
         2         1        28     1      107.362183      470.622814    ;  uncertainty theta = 0.002476, k = 0.220753
         2         1        29     1      107.362183      470.622814    ;  uncertainty theta = 0.002476, k = 0.220753
         2         1        30     1      107.362183      470.622814    ;  uncertainty theta = 0.002476, k = 0.220753
         2         3         4     1      125.899826      536.269337    ;  uncertainty theta = 0.010551, k = 0.299625
         2         3         5     1      113.264503      703.029088    ;  uncertainty theta = 0.009644, k = 0.273866
         2        26         6     1      109.973839      476.978394    ;  uncertainty theta = 0.006608, k = 0.660851
         2        26        27     1      125.586899      647.851502    ;  uncertainty theta = 0.010554, k = 0.152828
         3         2        26     1      110.392677      710.036470    ;  uncertainty theta = 0.009537, k = 0.252973
         3         4        31     1      114.821800      368.001174    ;  uncertainty theta = 0.004224, k = 0.186891
         3         4        44     1      114.821800      368.001142    ;  uncertainty theta = 0.004224, k = 0.186891
         3         5         6     1      111.598183      593.126307    ;  uncertainty theta = 0.019136, k = 0.451523
         3         5        32     1      119.342712      353.298024    ;  uncertainty theta = 0.009966, k = 0.162599
         4         3         5     1      128.555893      639.491802    ;  uncertainty theta = 0.010451, k = 0.329331
         5         6         7     1      110.457565      627.163188    ;  uncertainty theta = 0.004795, k = 0.277608
         5         6        13     1      110.534805      632.326153    ;  uncertainty theta = 0.005505, k = 0.194600
         5         6        26     1      102.992111      929.266681    ;  uncertainty theta = 0.006899, k = 0.516766
         6         5        32     1      117.103653      301.864338    ;  uncertainty theta = 0.006121, k = 0.451261
         6         7         8     1      118.905434      374.638779    ;  uncertainty theta = 0.007692, k = 0.141879
         6         7        12     1      118.905434      374.638779    ;  uncertainty theta = 0.007692, k = 0.141879
         6        13        14     1      117.042435      370.687997    ;  uncertainty theta = 0.007549, k = 0.196942
         6        13        25     1      116.493408      372.675103    ;  uncertainty theta = 0.006860, k = 0.154154
         6        26        27     1      125.362411      411.107942    ;  uncertainty theta = 0.009039, k = 0.132114
         7         6        13     1      112.755386      520.168541    ;  uncertainty theta = 0.009631, k = 0.338527
         7         6        26     1      108.137253      492.471758    ;  uncertainty theta = 0.010807, k = 0.172808
         7         8         9     1      122.751122      732.238433    ;  uncertainty theta = 0.004000, k = 0.226635
         7         8        33     1      118.959534      267.250797    ;  uncertainty theta = 0.002368, k = 0.117329
         7        12        11     1      122.751122      732.238433    ;  uncertainty theta = 0.004000, k = 0.226635
         7        12        35     1      118.959534      267.250829    ;  uncertainty theta = 0.002368, k = 0.117329
         8         7        12     1      120.357788      405.008914    ;  uncertainty theta = 0.008985, k = 0.490117
         8         9        10     1      114.030617      382.605815    ;  uncertainty theta = 0.005085, k = 0.182253
         9         8        33     1      117.091995      340.254051    ;  uncertainty theta = 0.002780, k = 0.183781
         9        10        11     1      126.920738      897.100266    ;  uncertainty theta = 0.001620, k = 0.115396
         9        10        34     1      116.269104      313.613930    ;  uncertainty theta = 0.005375, k = 0.121944
        10        11        12     1      114.030617      382.605815    ;  uncertainty theta = 0.005085, k = 0.182253
        11        10        34     1      116.269104      313.613930    ;  uncertainty theta = 0.005375, k = 0.121944
        11        12        35     1      117.091995      340.254083    ;  uncertainty theta = 0.002780, k = 0.183781
        13         6        26     1      109.273659      492.088095    ;  uncertainty theta = 0.008385, k = 0.165455
        13        14        15     1      120.137283      512.518485    ;  uncertainty theta = 0.004010, k = 0.048996
        13        14        36     1      118.560936      273.271905    ;  uncertainty theta = 0.004125, k = 0.069703
        13        25        17     1      122.210159      512.621815    ;  uncertainty theta = 0.002647, k = 0.183304
        13        25        43     1      118.180458      273.584958    ;  uncertainty theta = 0.003890, k = 0.067582
        14        13        25     1      123.558899      431.180142    ;  uncertainty theta = 0.006616, k = 0.201188
        14        15        16     1      120.296432      509.064846    ;  uncertainty theta = 0.002468, k = 0.077953
        14        15        37     1      119.788002      281.762579    ;  uncertainty theta = 0.002427, k = 0.048474
        15        14        36     1      120.331825      300.364767    ;  uncertainty theta = 0.002789, k = 0.028913
        15        16        17     1      119.832321      534.552031    ;  uncertainty theta = 0.002361, k = 0.068297
        15        16        38     1      120.219772      294.473835    ;  uncertainty theta = 0.001120, k = 0.016578
        16        15        37     1      120.395386      284.232911    ;  uncertainty theta = 0.000987, k = 0.052321
        16        17        18     1      121.149208      406.404805    ;  uncertainty theta = 0.001695, k = 0.140468
        16        17        25     1      120.015503      404.599586    ;  uncertainty theta = 0.004284, k = 0.211250
        17        16        38     1      118.934425      278.372624    ;  uncertainty theta = 0.000588, k = 0.103232
        17        18        19     1      120.541405      411.758851    ;  uncertainty theta = 0.002471, k = 0.047662
        17        18        24     1      119.765121      410.682781    ;  uncertainty theta = 0.001914, k = 0.050843
        17        25        43     1      118.840004      282.931157    ;  uncertainty theta = 0.002242, k = 0.086322
        18        17        25     1      119.995399      413.873484    ;  uncertainty theta = 0.002821, k = 0.153593
        18        19        20     1      120.504349      532.913346    ;  uncertainty theta = 0.001618, k = 0.068709
        18        19        39     1      119.203636      278.269901    ;  uncertainty theta = 0.001744, k = 0.040876
        18        24        22     1      119.741173      510.605660    ;  uncertainty theta = 0.001091, k = 0.073584
        18        24        42     1      120.095413      273.299613    ;  uncertainty theta = 0.001008, k = 0.066604
        19        18        24     1      120.374191      415.451390    ;  uncertainty theta = 0.002120, k = 0.132954
        19        20        21     1      120.717369      509.837057    ;  uncertainty theta = 0.001401, k = 0.048240
        19        20        40     1      120.238693      282.499708    ;  uncertainty theta = 0.001326, k = 0.011496
        20        19        39     1      120.338760      294.190309    ;  uncertainty theta = 0.001360, k = 0.032086
        20        21        22     1      117.430496      514.054606    ;  uncertainty theta = 0.001033, k = 0.048095
        20        21        41     1      121.325417      283.555061    ;  uncertainty theta = 0.001286, k = 0.023037
        21        20        40     1      119.863380      284.707455    ;  uncertainty theta = 0.000778, k = 0.019642
        21        22        23     1      120.461792      447.827880    ;  uncertainty theta = 0.001141, k = 0.053761
        21        22        24     1      121.555298      359.688909    ;  uncertainty theta = 0.001133, k = 0.149052
        22        21        41     1      121.035461      285.494859    ;  uncertainty theta = 0.001567, k = 0.028924
        22        24        42     1      120.760788      292.340592    ;  uncertainty theta = 0.001328, k = 0.049697
        23        22        24     1      120.006104      442.243297    ;  uncertainty theta = 0.000762, k = 0.110065
        28         1        29     1      107.627052      325.730906    ;  uncertainty theta = 0.003369, k = 0.100967
        28         1        30     1      107.627052      325.730906    ;  uncertainty theta = 0.003369, k = 0.100967
        29         1        30     1      107.627052      325.730906    ;  uncertainty theta = 0.003369, k = 0.100967
        31         4        44     1      112.418320      264.652971    ;  uncertainty theta = 0.015777, k = 0.354183

[ dihedrals ] ; propers for gromacs 4.5 or higher, use funct 9
;       ai        aj        ak        al funct           phase               k        pn
         1         2         3         4     9        0.000000        0.020220         1    ;  uncertainty k = 0.657937
         1         2         3         4     9      180.000000        6.877463         2    ;  uncertainty k = 0.678113
         1         2         3         4     9        0.000000        0.933687         3    ;  uncertainty k = 0.728898
         1         2         3         4     9      180.000000        0.009158         4    ;  uncertainty k = 0.300485
         1         2         3         5     9        0.000000       -0.382483         1    ;  uncertainty k = 2.597406
         1         2         3         5     9      180.000000        8.332588         2    ;  uncertainty k = 0.431253
         1         2         3         5     9        0.000000        0.273531         3    ;  uncertainty k = 0.100625
         1         2         3         5     9      180.000000       -0.133210         4    ;  uncertainty k = 0.244074
         1         2        26         6     9        0.000000        5.170673         1    ;  uncertainty k = 2.096584
         1         2        26         6     9      180.000000        4.667094         2    ;  uncertainty k = 1.507333
         1         2        26         6     9        0.000000        1.263420         3    ;  uncertainty k = 0.802793
         1         2        26         6     9      180.000000        0.049701         4    ;  uncertainty k = 0.553212
         1         2        26        27     9        0.000000       -0.518877         1    ;  uncertainty k = 3.128257
         1         2        26        27     9      180.000000        8.471311         2    ;  uncertainty k = 0.465184
         1         2        26        27     9        0.000000        0.567826         3    ;  uncertainty k = 0.527668
         1         2        26        27     9      180.000000        0.201358         4    ;  uncertainty k = 0.239648
         2         3         4        31     9        0.000000        7.495475         1    ;  uncertainty k = 2.018544
         2         3         4        31     9      180.000000        9.518865         2    ;  uncertainty k = 0.609488
         2         3         4        31     9        0.000000        1.009625         3    ;  uncertainty k = 0.533193
         2         3         4        31     9      180.000000       -0.962191         4    ;  uncertainty k = 0.242201
         2         3         4        44     9        0.000000        7.495473         1    ;  uncertainty k = 2.018546
         2         3         4        44     9      180.000000        9.518867         2    ;  uncertainty k = 0.609488
         2         3         4        44     9        0.000000        1.009626         3    ;  uncertainty k = 0.533193
         2         3         4        44     9      180.000000       -0.962190         4    ;  uncertainty k = 0.242200
         2         3         5         6     9        0.000000        1.367603         1    ;  uncertainty k = 1.998459
         2         3         5         6     9      180.000000       14.747917         2    ;  uncertainty k = 0.497065
         2         3         5         6     9        0.000000       -0.117846         3    ;  uncertainty k = 0.985885
         2         3         5         6     9      180.000000       -0.515623         4    ;  uncertainty k = 0.216035
         2         3         5        32     9        0.000000        4.220924         1    ;  uncertainty k = 3.438411
         2         3         5        32     9      180.000000       10.513841         2    ;  uncertainty k = 0.647341
         2         3         5        32     9        0.000000        0.922524         3    ;  uncertainty k = 0.783362
         2         3         5        32     9      180.000000       -0.424817         4    ;  uncertainty k = 0.179500
         2        26         6         5     9        0.000000        0.035078         1    ;  uncertainty k = 2.607484
         2        26         6         5     9      180.000000        6.634154         2    ;  uncertainty k = 0.983125
         2        26         6         5     9        0.000000        0.250850         3    ;  uncertainty k = 0.664575
         2        26         6         5     9      180.000000        0.266976         4    ;  uncertainty k = 0.624978
         2        26         6         7     9        0.000000       -1.022632         1    ;  uncertainty k = 2.641735
         2        26         6         7     9      180.000000        1.657178         2    ;  uncertainty k = 1.131999
         2        26         6         7     9        0.000000        0.932041         3    ;  uncertainty k = 0.526388
         2        26         6         7     9      180.000000        0.595897         4    ;  uncertainty k = 0.266584
         2        26         6        13     9        0.000000       -2.165950         1    ;  uncertainty k = 3.389559
         2        26         6        13     9      180.000000        1.326979         2    ;  uncertainty k = 1.077921
         2        26         6        13     9        0.000000        1.059804         3    ;  uncertainty k = 0.512599
         2        26         6        13     9      180.000000        0.750507         4    ;  uncertainty k = 0.315922
         3         2         1        28     9        0.000000       -0.396418         1    ;  uncertainty k = 0.524313
         3         2         1        28     9      180.000000       -1.104407         2    ;  uncertainty k = 0.426496
         3         2         1        28     9        0.000000        0.442754         3    ;  uncertainty k = 0.213660
         3         2         1        28     9      180.000000        0.194733         4    ;  uncertainty k = 0.049391
         3         2         1        29     9        0.000000       -0.396418         1    ;  uncertainty k = 0.524313
         3         2         1        29     9      180.000000       -1.104407         2    ;  uncertainty k = 0.426496
         3         2         1        29     9        0.000000        0.442754         3    ;  uncertainty k = 0.213660
         3         2         1        29     9      180.000000        0.194733         4    ;  uncertainty k = 0.049391
         3         2         1        30     9        0.000000       -0.396418         1    ;  uncertainty k = 0.524313
         3         2         1        30     9      180.000000       -1.104407         2    ;  uncertainty k = 0.426496
         3         2         1        30     9        0.000000        0.442754         3    ;  uncertainty k = 0.213660
         3         2         1        30     9      180.000000        0.194733         4    ;  uncertainty k = 0.049391
         3         2        26         6     9        0.000000        3.192625         1    ;  uncertainty k = 1.938172
         3         2        26         6     9      180.000000        3.243516         2    ;  uncertainty k = 0.947008
         3         2        26         6     9        0.000000       -0.318772         3    ;  uncertainty k = 0.722860
         3         2        26         6     9      180.000000        0.744384         4    ;  uncertainty k = 0.270113
         3         2        26        27     9        0.000000        0.422878         1    ;  uncertainty k = 2.582267
         3         2        26        27     9      180.000000        7.675880         2    ;  uncertainty k = 0.791241
         3         2        26        27     9        0.000000        0.488613         3    ;  uncertainty k = 0.491655
         3         2        26        27     9      180.000000        0.069136         4    ;  uncertainty k = 0.271651
         3         5         6         7     9        0.000000       -0.242435         1    ;  uncertainty k = 1.245339
         3         5         6         7     9      180.000000        0.944800         2    ;  uncertainty k = 0.442007
         3         5         6         7     9        0.000000        0.661052         3    ;  uncertainty k = 0.166700
         3         5         6         7     9      180.000000        0.451821         4    ;  uncertainty k = 0.261728
         3         5         6        13     9        0.000000        0.068872         1    ;  uncertainty k = 0.766143
         3         5         6        13     9      180.000000        1.000725         2    ;  uncertainty k = 0.475387
         3         5         6        13     9        0.000000        0.664792         3    ;  uncertainty k = 0.233343
         3         5         6        13     9      180.000000        0.503642         4    ;  uncertainty k = 0.293198
         3         5         6        26     9        0.000000        2.015280         1    ;  uncertainty k = 0.701897
         3         5         6        26     9      180.000000        2.340089         2    ;  uncertainty k = 1.027524
         3         5         6        26     9        0.000000        0.210376         3    ;  uncertainty k = 0.715192
         3         5         6        26     9      180.000000        0.445918         4    ;  uncertainty k = 0.465240
         4         3         2        26     9        0.000000       -0.581393         1    ;  uncertainty k = 0.806443
         4         3         2        26     9      180.000000        6.603522         2    ;  uncertainty k = 1.284451
         4         3         2        26     9        0.000000        0.208688         3    ;  uncertainty k = 0.751820
         4         3         2        26     9      180.000000       -0.090144         4    ;  uncertainty k = 0.485844
         4         3         5         6     9        0.000000        2.328941         1    ;  uncertainty k = 1.879979
         4         3         5         6     9      180.000000       10.017883         2    ;  uncertainty k = 1.054840
         4         3         5         6     9        0.000000        0.454279         3    ;  uncertainty k = 0.461321
         4         3         5         6     9      180.000000       -0.422518         4    ;  uncertainty k = 0.578377
         4         3         5        32     9        0.000000        2.232140         1    ;  uncertainty k = 2.682148
         4         3         5        32     9      180.000000        7.383990         2    ;  uncertainty k = 1.115914
         4         3         5        32     9        0.000000        0.945240         3    ;  uncertainty k = 0.188828
         4         3         5        32     9      180.000000       -0.267314         4    ;  uncertainty k = 0.320059
         5         3         2        26     9        0.000000       -0.129552         1    ;  uncertainty k = 1.730063
         5         3         2        26     9      180.000000        8.619614         2    ;  uncertainty k = 0.916045
         5         3         2        26     9        0.000000       -1.102202         3    ;  uncertainty k = 1.115391
         5         3         2        26     9      180.000000        0.003017         4    ;  uncertainty k = 0.466544
         5         3         4        31     9        0.000000        5.690283         1    ;  uncertainty k = 1.312512
         5         3         4        31     9      180.000000       10.556544         2    ;  uncertainty k = 0.362355
         5         3         4        31     9        0.000000        1.493066         3    ;  uncertainty k = 0.462190
         5         3         4        31     9      180.000000       -0.779618         4    ;  uncertainty k = 0.309820
         5         3         4        44     9        0.000000        5.690283         1    ;  uncertainty k = 1.312512
         5         3         4        44     9      180.000000       10.556546         2    ;  uncertainty k = 0.362355
         5         3         4        44     9        0.000000        1.493067         3    ;  uncertainty k = 0.462190
         5         3         4        44     9      180.000000       -0.779617         4    ;  uncertainty k = 0.309820
         5         6         7         8     9        0.000000       -2.212494         1    ;  uncertainty k = 0.820285
         5         6         7         8     9      180.000000        2.512699         2    ;  uncertainty k = 0.652426
         5         6         7         8     9        0.000000        0.467648         3    ;  uncertainty k = 0.218500
         5         6         7         8     9      180.000000        0.253710         4    ;  uncertainty k = 0.147601
         5         6         7        12     9        0.000000       -2.212494         1    ;  uncertainty k = 0.820285
         5         6         7        12     9      180.000000        2.512699         2    ;  uncertainty k = 0.652426
         5         6         7        12     9        0.000000        0.467648         3    ;  uncertainty k = 0.218500
         5         6         7        12     9      180.000000        0.253710         4    ;  uncertainty k = 0.147601
         5         6        13        14     9        0.000000       -1.021046         1    ;  uncertainty k = 1.225524
         5         6        13        14     9      180.000000        2.537393         2    ;  uncertainty k = 0.529262
         5         6        13        14     9        0.000000        0.541345         3    ;  uncertainty k = 0.230740
         5         6        13        14     9      180.000000        0.332499         4    ;  uncertainty k = 0.187898
         5         6        13        25     9        0.000000       -0.809765         1    ;  uncertainty k = 1.226382
         5         6        13        25     9      180.000000        2.526631         2    ;  uncertainty k = 0.613601
         5         6        13        25     9        0.000000        0.495965         3    ;  uncertainty k = 0.206504
         5         6        13        25     9      180.000000        0.338300         4    ;  uncertainty k = 0.186364
         5         6        26        27     9        0.000000       -1.465108         1    ;  uncertainty k = 2.826706
         5         6        26        27     9      180.000000        2.523243         2    ;  uncertainty k = 1.205045
         5         6        26        27     9        0.000000        0.327243         3    ;  uncertainty k = 0.618495
         5         6        26        27     9      180.000000        0.358525         4    ;  uncertainty k = 0.130382
         6         7         8         9     9        0.000000        0.288755         1    ;  uncertainty k = 0.239009
         6         7         8         9     9      180.000000        8.777920         2    ;  uncertainty k = 0.347812
         6         7         8         9     9        0.000000        1.344031         3    ;  uncertainty k = 0.361723
         6         7         8         9     9      180.000000        1.818632         4    ;  uncertainty k = 0.174415
         6         7         8        33     9        0.000000       -0.430318         1    ;  uncertainty k = 0.253671
         6         7         8        33     9      180.000000        6.239835         2    ;  uncertainty k = 0.619568
         6         7         8        33     9        0.000000        0.738576         3    ;  uncertainty k = 0.385341
         6         7         8        33     9      180.000000        1.081335         4    ;  uncertainty k = 0.285343
         6         7        12        11     9        0.000000        0.288755         1    ;  uncertainty k = 0.239009
         6         7        12        11     9      180.000000        8.777920         2    ;  uncertainty k = 0.347812
         6         7        12        11     9        0.000000        1.344031         3    ;  uncertainty k = 0.361723
         6         7        12        11     9      180.000000        1.818632         4    ;  uncertainty k = 0.174415
         6         7        12        35     9        0.000000       -0.430319         1    ;  uncertainty k = 0.253670
         6         7        12        35     9      180.000000        6.239833         2    ;  uncertainty k = 0.619569
         6         7        12        35     9        0.000000        0.738577         3    ;  uncertainty k = 0.385341
         6         7        12        35     9      180.000000        1.081335         4    ;  uncertainty k = 0.285344
         6        13        14        15     9        0.000000        0.056504         1    ;  uncertainty k = 0.371565
         6        13        14        15     9      180.000000        8.896807         2    ;  uncertainty k = 0.384758
         6        13        14        15     9        0.000000        1.417202         3    ;  uncertainty k = 0.344116
         6        13        14        15     9      180.000000        1.848491         4    ;  uncertainty k = 0.157196
         6        13        14        36     9        0.000000       -0.276784         1    ;  uncertainty k = 0.163239
         6        13        14        36     9      180.000000        6.923566         2    ;  uncertainty k = 0.450690
         6        13        14        36     9        0.000000        0.652474         3    ;  uncertainty k = 0.383346
         6        13        14        36     9      180.000000        1.062177         4    ;  uncertainty k = 0.275326
         6        13        25        17     9        0.000000        0.066052         1    ;  uncertainty k = 0.250750
         6        13        25        17     9      180.000000        8.455269         2    ;  uncertainty k = 0.380063
         6        13        25        17     9        0.000000        1.338167         3    ;  uncertainty k = 0.257133
         6        13        25        17     9      180.000000        1.864059         4    ;  uncertainty k = 0.126588
         6        13        25        43     9        0.000000       -0.213080         1    ;  uncertainty k = 0.130485
         6        13        25        43     9      180.000000        7.095058         2    ;  uncertainty k = 0.494556
         6        13        25        43     9        0.000000        0.619723         3    ;  uncertainty k = 0.416682
         6        13        25        43     9      180.000000        1.108780         4    ;  uncertainty k = 0.313830
         7         6         5        32     9        0.000000        1.982296         1    ;  uncertainty k = 1.153244
         7         6         5        32     9      180.000000        0.080074         2    ;  uncertainty k = 1.292644
         7         6         5        32     9        0.000000        0.523705         3    ;  uncertainty k = 0.273344
         7         6         5        32     9      180.000000        0.042864         4    ;  uncertainty k = 0.105900
         7         6        13        14     9        0.000000        0.425415         1    ;  uncertainty k = 0.440694
         7         6        13        14     9      180.000000        1.590424         2    ;  uncertainty k = 0.356008
         7         6        13        14     9        0.000000        0.288284         3    ;  uncertainty k = 0.373531
         7         6        13        14     9      180.000000        0.190410         4    ;  uncertainty k = 0.030978
         7         6        13        25     9        0.000000        0.465877         1    ;  uncertainty k = 0.492716
         7         6        13        25     9      180.000000        1.525760         2    ;  uncertainty k = 0.386773
         7         6        13        25     9        0.000000        0.227962         3    ;  uncertainty k = 0.402737
         7         6        13        25     9      180.000000        0.187475         4    ;  uncertainty k = 0.036792
         7         6        26        27     9        0.000000        0.492288         1    ;  uncertainty k = 1.177921
         7         6        26        27     9      180.000000        3.311271         2    ;  uncertainty k = 0.744732
         7         6        26        27     9        0.000000        0.336737         3    ;  uncertainty k = 0.146713
         7         6        26        27     9      180.000000        0.051494         4    ;  uncertainty k = 0.171054
         7         8         9        10     9        0.000000       -0.094319         1    ;  uncertainty k = 0.867957
         7         8         9        10     9      180.000000       17.037464         2    ;  uncertainty k = 0.464256
         7         8         9        10     9        0.000000        0.009830         3    ;  uncertainty k = 0.693914
         7         8         9        10     9      180.000000        1.283306         4    ;  uncertainty k = 0.259437
         7        12        11        10     9        0.000000       -0.094319         1    ;  uncertainty k = 0.867957
         7        12        11        10     9      180.000000       17.037464         2    ;  uncertainty k = 0.464256
         7        12        11        10     9        0.000000        0.009830         3    ;  uncertainty k = 0.693914
         7        12        11        10     9      180.000000        1.283306         4    ;  uncertainty k = 0.259437
         8         7         6        13     9        0.000000        0.608911         1    ;  uncertainty k = 0.317230
         8         7         6        13     9      180.000000        1.088991         2    ;  uncertainty k = 0.643985
         8         7         6        13     9        0.000000        0.108001         3    ;  uncertainty k = 0.272141
         8         7         6        13     9      180.000000        0.234703         4    ;  uncertainty k = 0.073341
         8         7         6        26     9        0.000000        1.716823         1    ;  uncertainty k = 1.154389
         8         7         6        26     9      180.000000        0.189797         2    ;  uncertainty k = 0.699335
         8         7         6        26     9        0.000000        0.307613         3    ;  uncertainty k = 0.144292
         8         7         6        26     9      180.000000        0.231637         4    ;  uncertainty k = 0.208629
         8         7        12        11     9        0.000000       -0.521763         1    ;  uncertainty k = 0.738550
         8         7        12        11     9      180.000000       11.820053         2    ;  uncertainty k = 0.296517
         8         7        12        11     9        0.000000       -0.499191         3    ;  uncertainty k = 0.348871
         8         7        12        11     9      180.000000        1.048829         4    ;  uncertainty k = 0.188163
         8         7        12        35     9        0.000000       -0.232033         1    ;  uncertainty k = 0.528385
         8         7        12        35     9      180.000000        5.678600         2    ;  uncertainty k = 0.932410
         8         7        12        35     9        0.000000        0.886260         3    ;  uncertainty k = 0.185063
         8         7        12        35     9      180.000000        1.427354         4    ;  uncertainty k = 0.206685
         8         9        10        11     9        0.000000       -0.503001         1    ;  uncertainty k = 0.572246
         8         9        10        11     9      180.000000       14.924224         2    ;  uncertainty k = 0.571566
         8         9        10        11     9        0.000000        0.331479         3    ;  uncertainty k = 0.408349
         8         9        10        11     9      180.000000        1.006868         4    ;  uncertainty k = 0.174779
         8         9        10        34     9        0.000000        0.746103         1    ;  uncertainty k = 1.118739
         8         9        10        34     9      180.000000       12.453318         2    ;  uncertainty k = 0.336443
         8         9        10        34     9        0.000000        1.667495         3    ;  uncertainty k = 1.087143
         8         9        10        34     9      180.000000        1.108180         4    ;  uncertainty k = 0.450819
         9         8         7        12     9        0.000000       -0.521763         1    ;  uncertainty k = 0.738550
         9         8         7        12     9      180.000000       11.820053         2    ;  uncertainty k = 0.296517
         9         8         7        12     9        0.000000       -0.499191         3    ;  uncertainty k = 0.348871
         9         8         7        12     9      180.000000        1.048829         4    ;  uncertainty k = 0.188163
         9        10        11        12     9        0.000000       -0.503001         1    ;  uncertainty k = 0.572246
         9        10        11        12     9      180.000000       14.924224         2    ;  uncertainty k = 0.571566
         9        10        11        12     9        0.000000        0.331479         3    ;  uncertainty k = 0.408349
         9        10        11        12     9      180.000000        1.006868         4    ;  uncertainty k = 0.174779
        10         9         8        33     9        0.000000        0.579643         1    ;  uncertainty k = 0.788286
        10         9         8        33     9      180.000000       16.383414         2    ;  uncertainty k = 0.710834
        10         9         8        33     9        0.000000        1.694963         3    ;  uncertainty k = 0.809050
        10         9         8        33     9      180.000000        1.316575         4    ;  uncertainty k = 0.465841
        10        11        12        35     9        0.000000        0.579642         1    ;  uncertainty k = 0.788286
        10        11        12        35     9      180.000000       16.383418         2    ;  uncertainty k = 0.710834
        10        11        12        35     9        0.000000        1.694963         3    ;  uncertainty k = 0.809050
        10        11        12        35     9      180.000000        1.316576         4    ;  uncertainty k = 0.465841
        12         7         6        13     9        0.000000        0.608911         1    ;  uncertainty k = 0.317230
        12         7         6        13     9      180.000000        1.088991         2    ;  uncertainty k = 0.643985
        12         7         6        13     9        0.000000        0.108001         3    ;  uncertainty k = 0.272141
        12         7         6        13     9      180.000000        0.234703         4    ;  uncertainty k = 0.073341
        12         7         6        26     9        0.000000        1.716823         1    ;  uncertainty k = 1.154389
        12         7         6        26     9      180.000000        0.189797         2    ;  uncertainty k = 0.699335
        12         7         6        26     9        0.000000        0.307613         3    ;  uncertainty k = 0.144292
        12         7         6        26     9      180.000000        0.231637         4    ;  uncertainty k = 0.208629
        12         7         8        33     9        0.000000       -0.232035         1    ;  uncertainty k = 0.528386
        12         7         8        33     9      180.000000        5.678599         2    ;  uncertainty k = 0.932409
        12         7         8        33     9        0.000000        0.886261         3    ;  uncertainty k = 0.185063
        12         7         8        33     9      180.000000        1.427354         4    ;  uncertainty k = 0.206685
        12        11        10        34     9        0.000000        0.746103         1    ;  uncertainty k = 1.118739
        12        11        10        34     9      180.000000       12.453318         2    ;  uncertainty k = 0.336443
        12        11        10        34     9        0.000000        1.667495         3    ;  uncertainty k = 1.087143
        12        11        10        34     9      180.000000        1.108180         4    ;  uncertainty k = 0.450819
        13         6         5        32     9        0.000000        2.134829         1    ;  uncertainty k = 1.311933
        13         6         5        32     9      180.000000        0.322776         2    ;  uncertainty k = 1.117699
        13         6         5        32     9        0.000000        0.602935         3    ;  uncertainty k = 0.401026
        13         6         5        32     9      180.000000        0.043201         4    ;  uncertainty k = 0.133642
        13         6        26        27     9        0.000000       -0.647617         1    ;  uncertainty k = 1.609444
        13         6        26        27     9      180.000000        3.176653         2    ;  uncertainty k = 0.679624
        13         6        26        27     9        0.000000        0.432256         3    ;  uncertainty k = 0.244921
        13         6        26        27     9      180.000000        0.082078         4    ;  uncertainty k = 0.193275
        13        14        15        16     9        0.000000       -0.028642         1    ;  uncertainty k = 0.247028
        13        14        15        16     9      180.000000       13.145108         2    ;  uncertainty k = 0.334768
        13        14        15        16     9        0.000000       -0.881060         3    ;  uncertainty k = 0.554737
        13        14        15        16     9      180.000000        0.766287         4    ;  uncertainty k = 0.223978
        13        14        15        37     9        0.000000        0.121497         1    ;  uncertainty k = 0.345282
        13        14        15        37     9      180.000000        7.409058         2    ;  uncertainty k = 0.325668
        13        14        15        37     9        0.000000        1.442758         3    ;  uncertainty k = 0.130980
        13        14        15        37     9      180.000000        1.809977         4    ;  uncertainty k = 0.170040
        13        25        17        16     9        0.000000        0.143020         1    ;  uncertainty k = 0.360376
        13        25        17        16     9      180.000000        9.882616         2    ;  uncertainty k = 0.526338
        13        25        17        16     9        0.000000       -0.125499         3    ;  uncertainty k = 0.297321
        13        25        17        16     9      180.000000        1.099961         4    ;  uncertainty k = 0.319304
        13        25        17        18     9        0.000000        0.321485         1    ;  uncertainty k = 0.104506
        13        25        17        18     9      180.000000        8.464834         2    ;  uncertainty k = 0.422732
        13        25        17        18     9        0.000000        1.287272         3    ;  uncertainty k = 0.420106
        13        25        17        18     9      180.000000        1.732220         4    ;  uncertainty k = 0.114910
        14        13         6        26     9        0.000000        0.354003         1    ;  uncertainty k = 1.268586
        14        13         6        26     9      180.000000        0.902265         2    ;  uncertainty k = 0.375385
        14        13         6        26     9        0.000000        0.468639         3    ;  uncertainty k = 0.131320
        14        13         6        26     9      180.000000        0.238497         4    ;  uncertainty k = 0.160844
        14        13        25        17     9        0.000000       -0.337913         1    ;  uncertainty k = 0.428792
        14        13        25        17     9      180.000000       11.685895         2    ;  uncertainty k = 0.157821
        14        13        25        17     9        0.000000       -0.294161         3    ;  uncertainty k = 0.236370
        14        13        25        17     9      180.000000        0.945277         4    ;  uncertainty k = 0.211496
        14        13        25        43     9        0.000000        0.269578         1    ;  uncertainty k = 0.125105
        14        13        25        43     9      180.000000        7.799620         2    ;  uncertainty k = 0.488905
        14        13        25        43     9        0.000000        1.298472         3    ;  uncertainty k = 0.360204
        14        13        25        43     9      180.000000        1.630247         4    ;  uncertainty k = 0.186813
        14        15        16        17     9        0.000000       -0.066167         1    ;  uncertainty k = 0.259078
        14        15        16        17     9      180.000000       13.936641         2    ;  uncertainty k = 0.248017
        14        15        16        17     9        0.000000       -0.831712         3    ;  uncertainty k = 0.461691
        14        15        16        17     9      180.000000        0.722059         4    ;  uncertainty k = 0.212619
        14        15        16        38     9        0.000000        0.032972         1    ;  uncertainty k = 0.105437
        14        15        16        38     9      180.000000        7.678409         2    ;  uncertainty k = 0.219449
        14        15        16        38     9        0.000000        1.433723         3    ;  uncertainty k = 0.221970
        14        15        16        38     9      180.000000        1.813465         4    ;  uncertainty k = 0.226876
        15        14        13        25     9        0.000000       -0.270156         1    ;  uncertainty k = 0.295332
        15        14        13        25     9      180.000000       12.049457         2    ;  uncertainty k = 0.349466
        15        14        13        25     9        0.000000       -0.641054         3    ;  uncertainty k = 0.176509
        15        14        13        25     9      180.000000        0.815395         4    ;  uncertainty k = 0.278247
        15        16        17        18     9        0.000000        0.049063         1    ;  uncertainty k = 0.223194
        15        16        17        18     9      180.000000        8.981274         2    ;  uncertainty k = 0.562006
        15        16        17        18     9        0.000000        1.186843         3    ;  uncertainty k = 0.433239
        15        16        17        18     9      180.000000        1.736601         4    ;  uncertainty k = 0.174677
        15        16        17        25     9        0.000000        0.145969         1    ;  uncertainty k = 0.220427
        15        16        17        25     9      180.000000       11.081793         2    ;  uncertainty k = 0.227078
        15        16        17        25     9        0.000000       -0.447489         3    ;  uncertainty k = 0.357655
        15        16        17        25     9      180.000000        0.948854         4    ;  uncertainty k = 0.292208
        16        15        14        36     9        0.000000        0.042126         1    ;  uncertainty k = 0.086624
        16        15        14        36     9      180.000000        7.775276         2    ;  uncertainty k = 0.386823
        16        15        14        36     9        0.000000        1.362283         3    ;  uncertainty k = 0.234681
        16        15        14        36     9      180.000000        1.811590         4    ;  uncertainty k = 0.098598
        16        17        18        19     9        0.000000       -0.408717         1    ;  uncertainty k = 0.427326
        16        17        18        19     9      180.000000        3.910175         2    ;  uncertainty k = 0.069113
        16        17        18        19     9        0.000000        0.295018         3    ;  uncertainty k = 0.129989
        16        17        18        19     9      180.000000       -0.084564         4    ;  uncertainty k = 0.059893
        16        17        18        24     9        0.000000       -0.384457         1    ;  uncertainty k = 0.345317
        16        17        18        24     9      180.000000        3.939022         2    ;  uncertainty k = 0.071370
        16        17        18        24     9        0.000000        0.277955         3    ;  uncertainty k = 0.120919
        16        17        18        24     9      180.000000       -0.060721         4    ;  uncertainty k = 0.040687
        16        17        25        43     9        0.000000        0.109300         1    ;  uncertainty k = 0.168383
        16        17        25        43     9      180.000000        7.225988         2    ;  uncertainty k = 0.688984
        16        17        25        43     9        0.000000        1.420924         3    ;  uncertainty k = 0.112795
        16        17        25        43     9      180.000000        1.634094         4    ;  uncertainty k = 0.233652
        17        16        15        37     9        0.000000        0.004846         1    ;  uncertainty k = 0.185506
        17        16        15        37     9      180.000000        7.682975         2    ;  uncertainty k = 0.355739
        17        16        15        37     9        0.000000        1.346210         3    ;  uncertainty k = 0.215124
        17        16        15        37     9      180.000000        1.832713         4    ;  uncertainty k = 0.197660
        17        18        19        20     9        0.000000       -0.012184         1    ;  uncertainty k = 0.227422
        17        18        19        20     9      180.000000        8.758916         2    ;  uncertainty k = 0.613456
        17        18        19        20     9        0.000000        1.208763         3    ;  uncertainty k = 0.406041
        17        18        19        20     9      180.000000        1.774600         4    ;  uncertainty k = 0.160441
        17        18        19        39     9        0.000000       -0.232931         1    ;  uncertainty k = 0.316358
        17        18        19        39     9      180.000000        7.089907         2    ;  uncertainty k = 0.463208
        17        18        19        39     9        0.000000        0.824541         3    ;  uncertainty k = 0.159657
        17        18        19        39     9      180.000000        1.171341         4    ;  uncertainty k = 0.211972
        17        18        24        22     9        0.000000        0.081828         1    ;  uncertainty k = 0.177880
        17        18        24        22     9      180.000000        8.977718         2    ;  uncertainty k = 0.389831
        17        18        24        22     9        0.000000        1.285568         3    ;  uncertainty k = 0.282772
        17        18        24        22     9      180.000000        1.701574         4    ;  uncertainty k = 0.067432
        17        18        24        42     9        0.000000       -0.199322         1    ;  uncertainty k = 0.276022
        17        18        24        42     9      180.000000        7.103120         2    ;  uncertainty k = 0.424012
        17        18        24        42     9        0.000000        0.828276         3    ;  uncertainty k = 0.177369
        17        18        24        42     9      180.000000        1.171127         4    ;  uncertainty k = 0.201356
        18        17        16        38     9        0.000000       -0.135992         1    ;  uncertainty k = 0.280065
        18        17        16        38     9      180.000000        7.186357         2    ;  uncertainty k = 0.470277
        18        17        16        38     9        0.000000        0.826873         3    ;  uncertainty k = 0.116546
        18        17        16        38     9      180.000000        1.194064         4    ;  uncertainty k = 0.174597
        18        17        25        43     9        0.000000       -0.080329         1    ;  uncertainty k = 0.173655
        18        17        25        43     9      180.000000        7.355660         2    ;  uncertainty k = 0.275625
        18        17        25        43     9        0.000000        0.855110         3    ;  uncertainty k = 0.173048
        18        17        25        43     9      180.000000        1.293323         4    ;  uncertainty k = 0.180302
        18        19        20        21     9        0.000000       -0.042208         1    ;  uncertainty k = 0.231516
        18        19        20        21     9      180.000000       14.171992         2    ;  uncertainty k = 0.189515
        18        19        20        21     9        0.000000       -0.870742         3    ;  uncertainty k = 0.485056
        18        19        20        21     9      180.000000        0.699208         4    ;  uncertainty k = 0.253427
        18        19        20        40     9        0.000000        0.022680         1    ;  uncertainty k = 0.242894
        18        19        20        40     9      180.000000        7.703942         2    ;  uncertainty k = 0.339132
        18        19        20        40     9        0.000000        1.372427         3    ;  uncertainty k = 0.261098
        18        19        20        40     9      180.000000        1.835688         4    ;  uncertainty k = 0.149481
        18        24        22        21     9        0.000000       -0.010279         1    ;  uncertainty k = 0.315075
        18        24        22        21     9      180.000000        9.861217         2    ;  uncertainty k = 0.417909
        18        24        22        21     9        0.000000       -0.044172         3    ;  uncertainty k = 0.331365
        18        24        22        21     9      180.000000        1.160540         4    ;  uncertainty k = 0.311927
        18        24        22        23     9        0.000000        0.036466         1    ;  uncertainty k = 0.115484
        18        24        22        23     9      180.000000        9.485435         2    ;  uncertainty k = 0.578647
        18        24        22        23     9        0.000000        1.367643         3    ;  uncertainty k = 0.425703
        18        24        22        23     9      180.000000        1.685065         4    ;  uncertainty k = 0.101287
        19        18        17        25     9        0.000000       -0.197642         1    ;  uncertainty k = 0.444615
        19        18        17        25     9      180.000000        4.185048         2    ;  uncertainty k = 0.147896
        19        18        17        25     9        0.000000        0.276692         3    ;  uncertainty k = 0.153749
        19        18        17        25     9      180.000000       -0.007345         4    ;  uncertainty k = 0.052942
        19        18        24        22     9        0.000000        0.112970         1    ;  uncertainty k = 0.107592
        19        18        24        22     9      180.000000       11.459686         2    ;  uncertainty k = 0.265369
        19        18        24        22     9        0.000000       -0.359029         3    ;  uncertainty k = 0.399358
        19        18        24        22     9      180.000000        0.945001         4    ;  uncertainty k = 0.278885
        19        18        24        42     9        0.000000        0.189436         1    ;  uncertainty k = 0.134815
        19        18        24        42     9      180.000000        6.927558         2    ;  uncertainty k = 0.531255
        19        18        24        42     9        0.000000        1.476131         3    ;  uncertainty k = 0.227216
        19        18        24        42     9      180.000000        1.643456         4    ;  uncertainty k = 0.236170
        19        20        21        22     9        0.000000        0.034101         1    ;  uncertainty k = 0.181604
        19        20        21        22     9      180.000000       14.637857         2    ;  uncertainty k = 0.207905
        19        20        21        22     9        0.000000       -1.037223         3    ;  uncertainty k = 0.574419
        19        20        21        22     9      180.000000        0.689985         4    ;  uncertainty k = 0.252256
        19        20        21        41     9        0.000000        0.080157         1    ;  uncertainty k = 0.044174
        19        20        21        41     9      180.000000        7.631927         2    ;  uncertainty k = 0.319811
        19        20        21        41     9        0.000000        1.497161         3    ;  uncertainty k = 0.267179
        19        20        21        41     9      180.000000        1.800300         4    ;  uncertainty k = 0.165698
        20        19        18        24     9        0.000000       -0.014259         1    ;  uncertainty k = 0.046198
        20        19        18        24     9      180.000000       11.353968         2    ;  uncertainty k = 0.284679
        20        19        18        24     9        0.000000       -0.419124         3    ;  uncertainty k = 0.329525
        20        19        18        24     9      180.000000        0.851478         4    ;  uncertainty k = 0.284932
        20        21        22        23     9        0.000000        0.039414         1    ;  uncertainty k = 0.185710
        20        21        22        23     9      180.000000        9.400893         2    ;  uncertainty k = 0.673916
        20        21        22        23     9        0.000000        1.522714         3    ;  uncertainty k = 0.432767
        20        21        22        23     9      180.000000        1.637619         4    ;  uncertainty k = 0.162550
        20        21        22        24     9        0.000000       -0.035278         1    ;  uncertainty k = 0.114525
        20        21        22        24     9      180.000000       10.458550         2    ;  uncertainty k = 0.352852
        20        21        22        24     9        0.000000       -0.351603         3    ;  uncertainty k = 0.544621
        20        21        22        24     9      180.000000        0.999885         4    ;  uncertainty k = 0.326950
        21        20        19        39     9        0.000000        0.052492         1    ;  uncertainty k = 0.058932
        21        20        19        39     9      180.000000        7.952026         2    ;  uncertainty k = 0.267692
        21        20        19        39     9        0.000000        1.470677         3    ;  uncertainty k = 0.256858
        21        20        19        39     9      180.000000        1.851649         4    ;  uncertainty k = 0.164393
        21        22        24        42     9        0.000000       -0.045893         1    ;  uncertainty k = 0.245308
        21        22        24        42     9      180.000000        6.349828         2    ;  uncertainty k = 0.564328
        21        22        24        42     9        0.000000        1.416183         3    ;  uncertainty k = 0.310677
        21        22        24        42     9      180.000000        1.600596         4    ;  uncertainty k = 0.148712
        22        21        20        40     9        0.000000        0.013468         1    ;  uncertainty k = 0.140072
        22        21        20        40     9      180.000000        7.595964         2    ;  uncertainty k = 0.326736
        22        21        20        40     9        0.000000        1.451185         3    ;  uncertainty k = 0.275082
        22        21        20        40     9      180.000000        1.856285         4    ;  uncertainty k = 0.184737
        23        22        21        41     9        0.000000       -0.148142         1    ;  uncertainty k = 0.212405
        23        22        21        41     9      180.000000        7.328407         2    ;  uncertainty k = 0.291144
        23        22        21        41     9        0.000000        0.580551         3    ;  uncertainty k = 0.353024
        23        22        21        41     9      180.000000        0.942602         4    ;  uncertainty k = 0.155636
        23        22        24        42     9        0.000000       -0.243273         1    ;  uncertainty k = 0.262027
        23        22        24        42     9      180.000000        7.505922         2    ;  uncertainty k = 0.286012
        23        22        24        42     9        0.000000        0.606748         3    ;  uncertainty k = 0.290519
        23        22        24        42     9      180.000000        1.026417         4    ;  uncertainty k = 0.149534
        24        18        17        25     9        0.000000       -0.152638         1    ;  uncertainty k = 0.357416
        24        18        17        25     9      180.000000        4.196368         2    ;  uncertainty k = 0.143188
        24        18        17        25     9        0.000000        0.241609         3    ;  uncertainty k = 0.160703
        24        18        17        25     9      180.000000        0.015888         4    ;  uncertainty k = 0.047511
        24        18        19        39     9        0.000000        0.134271         1    ;  uncertainty k = 0.144927
        24        18        19        39     9      180.000000        6.905301         2    ;  uncertainty k = 0.558343
        24        18        19        39     9        0.000000        1.477110         3    ;  uncertainty k = 0.223699
        24        18        19        39     9      180.000000        1.638260         4    ;  uncertainty k = 0.236471
        24        22        21        41     9        0.000000        0.008768         1    ;  uncertainty k = 0.120182
        24        22        21        41     9      180.000000        6.217603         2    ;  uncertainty k = 0.626406
        24        22        21        41     9        0.000000        1.411019         3    ;  uncertainty k = 0.350781
        24        22        21        41     9      180.000000        1.518245         4    ;  uncertainty k = 0.154070
        25        13         6        26     9        0.000000        0.346987         1    ;  uncertainty k = 1.256828
        25        13         6        26     9      180.000000        0.903865         2    ;  uncertainty k = 0.371255
        25        13         6        26     9        0.000000        0.419882         3    ;  uncertainty k = 0.124205
        25        13         6        26     9      180.000000        0.246118         4    ;  uncertainty k = 0.156865
        25        13        14        36     9        0.000000        0.311968         1    ;  uncertainty k = 0.214061
        25        13        14        36     9      180.000000        7.601175         2    ;  uncertainty k = 0.540477
        25        13        14        36     9        0.000000        1.279484         3    ;  uncertainty k = 0.344348
        25        13        14        36     9      180.000000        1.635999         4    ;  uncertainty k = 0.205288
        25        17        16        38     9        0.000000        0.176676         1    ;  uncertainty k = 0.173796
        25        17        16        38     9      180.000000        7.085263         2    ;  uncertainty k = 0.459592
        25        17        16        38     9        0.000000        1.397046         3    ;  uncertainty k = 0.246542
        25        17        16        38     9      180.000000        1.594378         4    ;  uncertainty k = 0.263036
        26         2         1        28     9        0.000000        0.238655         1    ;  uncertainty k = 0.440386
        26         2         1        28     9      180.000000        0.079546         2    ;  uncertainty k = 0.236434
        26         2         1        28     9        0.000000        0.353885         3    ;  uncertainty k = 0.221826
        26         2         1        28     9      180.000000        0.311634         4    ;  uncertainty k = 0.070015
        26         2         1        29     9        0.000000        0.238655         1    ;  uncertainty k = 0.440386
        26         2         1        29     9      180.000000        0.079546         2    ;  uncertainty k = 0.236434
        26         2         1        29     9        0.000000        0.353885         3    ;  uncertainty k = 0.221826
        26         2         1        29     9      180.000000        0.311634         4    ;  uncertainty k = 0.070015
        26         2         1        30     9        0.000000        0.238655         1    ;  uncertainty k = 0.440386
        26         2         1        30     9      180.000000        0.079546         2    ;  uncertainty k = 0.236434
        26         2         1        30     9        0.000000        0.353885         3    ;  uncertainty k = 0.221826
        26         2         1        30     9      180.000000        0.311634         4    ;  uncertainty k = 0.070015
        26         6         5        32     9        0.000000       -0.368101         1    ;  uncertainty k = 2.629604
        26         6         5        32     9      180.000000        0.215401         2    ;  uncertainty k = 1.855074
        26         6         5        32     9        0.000000        0.380726         3    ;  uncertainty k = 0.472412
        26         6         5        32     9      180.000000       -0.047830         4    ;  uncertainty k = 0.173771
        36        14        15        37     9        0.000000       -0.162735         1    ;  uncertainty k = 0.342358
        36        14        15        37     9      180.000000        7.812446         2    ;  uncertainty k = 0.315878
        36        14        15        37     9        0.000000       -0.476482         3    ;  uncertainty k = 0.316090
        36        14        15        37     9      180.000000        0.149754         4    ;  uncertainty k = 0.190255
        37        15        16        38     9        0.000000       -0.091339         1    ;  uncertainty k = 0.201671
        37        15        16        38     9      180.000000        7.955101         2    ;  uncertainty k = 0.286440
        37        15        16        38     9        0.000000       -0.501360         3    ;  uncertainty k = 0.277132
        37        15        16        38     9      180.000000        0.117607         4    ;  uncertainty k = 0.149001
        39        19        20        40     9        0.000000       -0.071837         1    ;  uncertainty k = 0.139578
        39        19        20        40     9      180.000000        7.837294         2    ;  uncertainty k = 0.341152
        39        19        20        40     9        0.000000       -0.474130         3    ;  uncertainty k = 0.274222
        39        19        20        40     9      180.000000        0.116282         4    ;  uncertainty k = 0.133076
        40        20        21        41     9        0.000000       -0.080242         1    ;  uncertainty k = 0.065182
        40        20        21        41     9      180.000000        7.728195         2    ;  uncertainty k = 0.460598
        40        20        21        41     9        0.000000       -0.435760         3    ;  uncertainty k = 0.241595
        40        20        21        41     9      180.000000        0.035511         4    ;  uncertainty k = 0.167623

[ dihedrals ] ; impropers
;       ai        aj        ak        al funct           phase               k        pn
         2         1         3        26     4      180.000000        2.005457         2    ;  uncertainty k = 0.466064
         2         3        26         1     4      180.000000        2.005457         2    ;  uncertainty k = 0.466064
         2        26         1         3     4      180.000000        2.005457         2    ;  uncertainty k = 0.466064
         3         2         4         5     4      180.000000       30.570607         2    ;  uncertainty k = 0.128033
         3         4         5         2     4      180.000000       30.570607         2    ;  uncertainty k = 0.128033
         3         5         2         4     4      180.000000       30.570607         2    ;  uncertainty k = 0.128033
         4         3        31        44     4      180.000000        0.162942         2    ;  uncertainty k = 0.364350
         4        31        44         3     4      180.000000        0.162942         2    ;  uncertainty k = 0.364350
         4        44         3        31     4      180.000000        0.162942         2    ;  uncertainty k = 0.364350
         7         6         8        12     4      180.000000        7.168957         2    ;  uncertainty k = 0.158148
         7         8        12         6     4      180.000000        7.168957         2    ;  uncertainty k = 0.158148
         7        12         6         8     4      180.000000        7.168957         2    ;  uncertainty k = 0.158148
         8         7         9        33     4      180.000000       15.848706         2    ;  uncertainty k = 0.113556
         8         9        33         7     4      180.000000       15.848706         2    ;  uncertainty k = 0.113556
         8        33         7         9     4      180.000000       15.848706         2    ;  uncertainty k = 0.113556
        10         9        11        34     4      180.000000       24.155608         2    ;  uncertainty k = 0.060041
        10        11        34         9     4      180.000000       24.155608         2    ;  uncertainty k = 0.060041
        10        34         9        11     4      180.000000       24.155608         2    ;  uncertainty k = 0.060041
        12         7        11        35     4      180.000000       15.848705         2    ;  uncertainty k = 0.113556
        12        11        35         7     4      180.000000       15.848705         2    ;  uncertainty k = 0.113556
        12        35         7        11     4      180.000000       15.848705         2    ;  uncertainty k = 0.113556
        13         6        14        25     4      180.000000        9.923410         2    ;  uncertainty k = 0.215872
        13        14        25         6     4      180.000000        9.923410         2    ;  uncertainty k = 0.215872
        13        25         6        14     4      180.000000        9.923410         2    ;  uncertainty k = 0.215872
        14        13        15        36     4      180.000000        4.085776         2    ;  uncertainty k = 0.218659
        14        15        36        13     4      180.000000        4.085776         2    ;  uncertainty k = 0.218659
        14        36        13        15     4      180.000000        4.085776         2    ;  uncertainty k = 0.218659
        15        14        16        37     4      180.000000        4.097221         2    ;  uncertainty k = 0.151130
        15        16        37        14     4      180.000000        4.097221         2    ;  uncertainty k = 0.151130
        15        37        14        16     4      180.000000        4.097221         2    ;  uncertainty k = 0.151130
        16        15        17        38     4      180.000000        4.561353         2    ;  uncertainty k = 0.119602
        16        17        38        15     4      180.000000        4.561353         2    ;  uncertainty k = 0.119602
        16        38        15        17     4      180.000000        4.561353         2    ;  uncertainty k = 0.119602
        17        16        18        25     4      180.000000       15.267084         2    ;  uncertainty k = 0.065000
        17        18        25        16     4      180.000000       15.267084         2    ;  uncertainty k = 0.065000
        17        25        16        18     4      180.000000       15.267084         2    ;  uncertainty k = 0.065000
        18        17        19        24     4      180.000000       14.796453         2    ;  uncertainty k = 0.057402
        18        19        24        17     4      180.000000       14.796453         2    ;  uncertainty k = 0.057402
        18        24        17        19     4      180.000000       14.796453         2    ;  uncertainty k = 0.057402
        19        18        20        39     4      180.000000        3.700191         2    ;  uncertainty k = 0.086940
        19        20        39        18     4      180.000000        3.700191         2    ;  uncertainty k = 0.086940
        19        39        18        20     4      180.000000        3.700191         2    ;  uncertainty k = 0.086940
        20        19        21        40     4      180.000000        4.249204         2    ;  uncertainty k = 0.103731
        20        21        40        19     4      180.000000        4.249204         2    ;  uncertainty k = 0.103731
        20        40        19        21     4      180.000000        4.249204         2    ;  uncertainty k = 0.103731
        21        20        22        41     4      180.000000        3.525379         2    ;  uncertainty k = 0.172937
        21        22        41        20     4      180.000000        3.525379         2    ;  uncertainty k = 0.172937
        21        41        20        22     4      180.000000        3.525379         2    ;  uncertainty k = 0.172937
        22        21        23        24     4      180.000000       13.371882         2    ;  uncertainty k = 0.047246
        22        23        24        21     4      180.000000       13.371882         2    ;  uncertainty k = 0.047246
        22        24        21        23     4      180.000000       13.371882         2    ;  uncertainty k = 0.047246
        24        18        22        42     4      180.000000        3.443516         2    ;  uncertainty k = 0.143385
        24        22        42        18     4      180.000000        3.443516         2    ;  uncertainty k = 0.143385
        24        42        18        22     4      180.000000        3.443516         2    ;  uncertainty k = 0.143385
        25        13        17        43     4      180.000000        4.492926         2    ;  uncertainty k = 0.297514
        25        17        43        13     4      180.000000        4.492926         2    ;  uncertainty k = 0.297514
        25        43        13        17     4      180.000000        4.492926         2    ;  uncertainty k = 0.297514
        26         2         6        27     4      180.000000       49.899336         2    ;  uncertainty k = 0.038449
        26         6        27         2     4      180.000000       49.899336         2    ;  uncertainty k = 0.038449
        26        27         2         6     4      180.000000       49.899336         2    ;  uncertainty k = 0.038449

[ pairs ]
;       ai        aj funct
         1         4     1
         1         5     1
         1         6     1
         1        27     1
         2         7     1
         2        13     1
         2        31     1
         2        32     1
         2        44     1
         3         7     1
         3        13     1
         3        27     1
         3        28     1
         3        29     1
         3        30     1
         4         6     1
         4        26     1
         4        32     1
         5         8     1
         5        12     1
         5        14     1
         5        25     1
         5        27     1
         5        31     1
         5        44     1
         6         9     1
         6        11     1
         6        15     1
         6        17     1
         6        33     1
         6        35     1
         6        36     1
         6        43     1
         7        10     1
         7        14     1
         7        25     1
         7        27     1
         7        32     1
         8        11     1
         8        13     1
         8        26     1
         8        34     1
         8        35     1
         9        12     1
        10        33     1
        10        35     1
        12        13     1
        12        26     1
        12        33     1
        12        34     1
        13        16     1
        13        18     1
        13        27     1
        13        32     1
        13        37     1
        14        17     1
        14        26     1
        14        38     1
        14        43     1
        15        18     1
        15        25     1
        16        19     1
        16        24     1
        16        36     1
        16        43     1
        17        20     1
        17        22     1
        17        37     1
        17        39     1
        17        42     1
        18        21     1
        18        23     1
        18        38     1
        18        40     1
        18        43     1
        19        22     1
        19        25     1
        19        41     1
        19        42     1
        20        23     1
        20        24     1
        21        39     1
        21        42     1
        22        40     1
        23        41     1
        23        42     1
        24        25     1
        24        39     1
        24        41     1
        25        26     1
        25        36     1
        25        38     1
        26        28     1
        26        29     1
        26        30     1
        26        32     1
        36        37     1
        37        38     1
        39        40     1
        40        41     1
