; ITP file created by ByteFF-joint-25, 2026-02-18 03:16:14.154759

[ atomtypes ]
;name           bonded.type        at.num        mass        charge   ptype           sigma         epsilon
 c0bf                                   6      0.0000       0.00000       A     3.39732e-01     4.51257e-01    ;  uncertainty sigma = 0.000013, epsilon = 0.001293
 n1bf                                   7      0.0000       0.00000       A     3.18099e-01     6.83569e-01    ;  uncertainty sigma = 0.000074, epsilon = 0.006992
 c2bf                                   6      0.0000       0.00000       A     3.31506e-01     4.12345e-01    ;  uncertainty sigma = 0.000057, epsilon = 0.001407
 n3bf                                   7      0.0000       0.00000       A     3.36544e-01     4.71560e-01    ;  uncertainty sigma = 0.000087, epsilon = 0.005560
 n4bf                                   7      0.0000       0.00000       A     3.27441e-01     6.55946e-01    ;  uncertainty sigma = 0.000157, epsilon = 0.011577
 c5bf                                   6      0.0000       0.00000       A     3.39729e-01     4.52135e-01    ;  uncertainty sigma = 0.000061, epsilon = 0.002805
 c6bf                                   6      0.0000       0.00000       A     3.31500e-01     4.13935e-01    ;  uncertainty sigma = 0.000036, epsilon = 0.000781
 c7bf                                   6      0.0000       0.00000       A     3.31505e-01     4.13142e-01    ;  uncertainty sigma = 0.000003, epsilon = 0.000608
 c8bf                                   6      0.0000       0.00000       A     3.31522e-01     4.13321e-01    ;  uncertainty sigma = 0.000003, epsilon = 0.000651
 c9bf                                   6      0.0000       0.00000       A     3.31513e-01     4.13269e-01    ;  uncertainty sigma = 0.000005, epsilon = 0.000649
 c10bf                                  6      0.0000       0.00000       A     3.31498e-01     4.13514e-01    ;  uncertainty sigma = 0.000009, epsilon = 0.000547
 c11bf                                  6      0.0000       0.00000       A     3.31513e-01     4.13167e-01    ;  uncertainty sigma = 0.000009, epsilon = 0.000575
 c12bf                                  6      0.0000       0.00000       A     3.31511e-01     4.13320e-01    ;  uncertainty sigma = 0.000005, epsilon = 0.000665
 c13bf                                  6      0.0000       0.00000       A     3.31521e-01     4.13375e-01    ;  uncertainty sigma = 0.000003, epsilon = 0.000656
 c14bf                                  6      0.0000       0.00000       A     3.31522e-01     4.13446e-01    ;  uncertainty sigma = 0.000004, epsilon = 0.000552
 c15bf                                  6      0.0000       0.00000       A     3.31526e-01     4.13122e-01    ;  uncertainty sigma = 0.000006, epsilon = 0.000502
 cl16bf                                17      0.0000       0.00000       A     3.46610e-01     1.10414e+00    ;  uncertainty sigma = 0.000013, epsilon = 0.001445
 c17bf                                  6      0.0000       0.00000       A     3.31523e-01     4.13401e-01    ;  uncertainty sigma = 0.000007, epsilon = 0.000655
 c18bf                                  6      0.0000       0.00000       A     3.31517e-01     4.13205e-01    ;  uncertainty sigma = 0.000017, epsilon = 0.000946
 c19bf                                  6      0.0000       0.00000       A     3.39758e-01     4.52120e-01    ;  uncertainty sigma = 0.000038, epsilon = 0.002200
 c20bf                                  6      0.0000       0.00000       A     3.39781e-01     4.51266e-01    ;  uncertainty sigma = 0.000014, epsilon = 0.001655
 c21bf                                  6      0.0000       0.00000       A     3.39773e-01     4.51034e-01    ;  uncertainty sigma = 0.000003, epsilon = 0.000686
 c22bf                                  6      0.0000       0.00000       A     3.39781e-01     4.51266e-01    ;  uncertainty sigma = 0.000014, epsilon = 0.001655
 c23bf                                  6      0.0000       0.00000       A     3.31576e-01     4.14228e-01    ;  uncertainty sigma = 0.000019, epsilon = 0.000770
 o24bf                                  8      0.0000       0.00000       A     3.04820e-01     6.12156e-01    ;  uncertainty sigma = 0.000056, epsilon = 0.001829
 h25bf                                  1      0.0000       0.00000       A     2.42208e-01     8.66970e-02    ;  uncertainty sigma = 0.000028, epsilon = 0.000664
 h26bf                                  1      0.0000       0.00000       A     2.42208e-01     8.66970e-02    ;  uncertainty sigma = 0.000028, epsilon = 0.000664
 h27bf                                  1      0.0000       0.00000       A     2.42208e-01     8.66970e-02    ;  uncertainty sigma = 0.000028, epsilon = 0.000664
 h28bf                                  1      0.0000       0.00000       A     1.10696e-01     4.12787e-02    ;  uncertainty sigma = 0.000128, epsilon = 0.001559
 h29bf                                  1      0.0000       0.00000       A     1.10569e-01     4.03826e-02    ;  uncertainty sigma = 0.000095, epsilon = 0.001691
 h30bf                                  1      0.0000       0.00000       A     2.62559e-01     6.70878e-02    ;  uncertainty sigma = 0.000006, epsilon = 0.000414
 h31bf                                  1      0.0000       0.00000       A     2.62564e-01     6.70136e-02    ;  uncertainty sigma = 0.000010, epsilon = 0.000418
 h32bf                                  1      0.0000       0.00000       A     2.62562e-01     6.70409e-02    ;  uncertainty sigma = 0.000012, epsilon = 0.000506
 h33bf                                  1      0.0000       0.00000       A     2.62562e-01     6.70409e-02    ;  uncertainty sigma = 0.000012, epsilon = 0.000506
 h34bf                                  1      0.0000       0.00000       A     2.62568e-01     6.69665e-02    ;  uncertainty sigma = 0.000007, epsilon = 0.000468
 h35bf                                  1      0.0000       0.00000       A     2.62560e-01     6.70939e-02    ;  uncertainty sigma = 0.000009, epsilon = 0.000590
 h36bf                                  1      0.0000       0.00000       A     2.62559e-01     6.71672e-02    ;  uncertainty sigma = 0.000013, epsilon = 0.000620
 h37bf                                  1      0.0000       0.00000       A     2.62552e-01     6.72426e-02    ;  uncertainty sigma = 0.000014, epsilon = 0.000665
 h38bf                                  1      0.0000       0.00000       A     2.60104e-01     8.60653e-02    ;  uncertainty sigma = 0.000064, epsilon = 0.000979
 h39bf                                  1      0.0000       0.00000       A     2.59999e-01     8.66851e-02    ;  uncertainty sigma = 0.000010, epsilon = 0.001168
 h40bf                                  1      0.0000       0.00000       A     2.59999e-01     8.66851e-02    ;  uncertainty sigma = 0.000010, epsilon = 0.001168
 h41bf                                  1      0.0000       0.00000       A     2.60026e-01     8.68676e-02    ;  uncertainty sigma = 0.000015, epsilon = 0.000915
 h42bf                                  1      0.0000       0.00000       A     2.60026e-01     8.68676e-02    ;  uncertainty sigma = 0.000015, epsilon = 0.000915
 h43bf                                  1      0.0000       0.00000       A     2.59999e-01     8.66851e-02    ;  uncertainty sigma = 0.000010, epsilon = 0.001168
 h44bf                                  1      0.0000       0.00000       A     2.59999e-01     8.66852e-02    ;  uncertainty sigma = 0.000010, epsilon = 0.001168
 h45bf                                  1      0.0000       0.00000       A     1.10696e-01     4.12786e-02    ;  uncertainty sigma = 0.000128, epsilon = 0.001560

[ moleculetype ]
;name             nrexcl
 MOL                   3

[ atoms ]
;       nr            type      resi   res      atom      cgnr      charge          mass ; qtot
         1            c0bf         1   UNL        c0         1     0.07429       12.0110 ; qtot    0.074
         2            n1bf         1   UNL        n1         2    -0.41965       14.0070 ; qtot   -0.345
         3            c2bf         1   UNL        c2         3     0.46196       12.0110 ; qtot    0.117
         4            n3bf         1   UNL        n3         4    -0.47965       14.0070 ; qtot   -0.363
         5            n4bf         1   UNL        n4         5    -0.38353       14.0070 ; qtot   -0.747
         6            c5bf         1   UNL        c5         6     0.06400       12.0110 ; qtot   -0.683
         7            c6bf         1   UNL        c6         7    -0.13930       12.0110 ; qtot   -0.822
         8            c7bf         1   UNL        c7         8    -0.09616       12.0110 ; qtot   -0.918
         9            c8bf         1   UNL        c8         9    -0.11210       12.0110 ; qtot   -1.030
        10            c9bf         1   UNL        c9        10    -0.09338       12.0110 ; qtot   -1.124
        11           c10bf         1   UNL       c10        11    -0.01775       12.0110 ; qtot   -1.141
        12           c11bf         1   UNL       c11        12    -0.03519       12.0110 ; qtot   -1.176
        13           c12bf         1   UNL       c12        13    -0.11891       12.0110 ; qtot   -1.295
        14           c13bf         1   UNL       c13        14    -0.12274       12.0110 ; qtot   -1.418
        15           c14bf         1   UNL       c14        15    -0.11373       12.0110 ; qtot   -1.532
        16           c15bf         1   UNL       c15        16     0.03067       12.0110 ; qtot   -1.501
        17          cl16bf         1   UNL      cl16        17    -0.11712       35.4530 ; qtot   -1.618
        18           c17bf         1   UNL       c17        18    -0.11226       12.0110 ; qtot   -1.731
        19           c18bf         1   UNL       c18        19    -0.08196       12.0110 ; qtot   -1.813
        20           c19bf         1   UNL       c19        20    -0.11353       12.0110 ; qtot   -1.926
        21           c20bf         1   UNL       c20        21    -0.07825       12.0110 ; qtot   -2.004
        22           c21bf         1   UNL       c21        22    -0.08486       12.0110 ; qtot   -2.089
        23           c22bf         1   UNL       c22        23    -0.07825       12.0110 ; qtot   -2.167
        24           c23bf         1   UNL       c23        24     0.70746       12.0110 ; qtot   -1.460
        25           o24bf         1   UNL       o24        25    -0.45024       15.9990 ; qtot   -1.910
        26           h25bf         1   UNL       h25        26     0.09064        1.0080 ; qtot   -1.820
        27           h26bf         1   UNL       h26        27     0.09064        1.0080 ; qtot   -1.729
        28           h27bf         1   UNL       h27        28     0.09064        1.0080 ; qtot   -1.638
        29           h28bf         1   UNL       h28        29     0.33562        1.0080 ; qtot   -1.303
        30           h29bf         1   UNL       h29        30     0.35204        1.0080 ; qtot   -0.951
        31           h30bf         1   UNL       h30        31     0.14473        1.0080 ; qtot   -0.806
        32           h31bf         1   UNL       h31        32     0.14778        1.0080 ; qtot   -0.658
        33           h32bf         1   UNL       h32        33     0.13653        1.0080 ; qtot   -0.522
        34           h33bf         1   UNL       h33        34     0.13932        1.0080 ; qtot   -0.382
        35           h34bf         1   UNL       h34        35     0.13920        1.0080 ; qtot   -0.243
        36           h35bf         1   UNL       h35        36     0.15171        1.0080 ; qtot   -0.091
        37           h36bf         1   UNL       h36        37     0.15143        1.0080 ; qtot    0.060
        38           h37bf         1   UNL       h37        38     0.14663        1.0080 ; qtot    0.207
        39           h38bf         1   UNL       h38        39     0.09008        1.0080 ; qtot    0.297
        40           h39bf         1   UNL       h39        40     0.06251        1.0080 ; qtot    0.359
        41           h40bf         1   UNL       h40        41     0.06251        1.0080 ; qtot    0.422
        42           h41bf         1   UNL       h41        42     0.05875        1.0080 ; qtot    0.481
        43           h42bf         1   UNL       h42        43     0.05875        1.0080 ; qtot    0.539
        44           h43bf         1   UNL       h43        44     0.06251        1.0080 ; qtot    0.602
        45           h44bf         1   UNL       h44        45     0.06251        1.0080 ; qtot    0.664
        46           h45bf         1   UNL       h45        46     0.33565        1.0080 ; qtot    1.000

[ bonds ]
;       ai        aj funct               r               k
         1         2     1        0.146684   260648.899219    ;  uncertainty r = 0.000131, k = 12.005701
         1        26     1        0.109173   309399.062256    ;  uncertainty r = 0.000045, k = 3.139757
         1        27     1        0.109173   309399.062256    ;  uncertainty r = 0.000045, k = 3.139757
         1        28     1        0.109173   309399.062256    ;  uncertainty r = 0.000045, k = 3.139757
         2         3     1        0.135523   283067.161426    ;  uncertainty r = 0.000209, k = 48.074805
         2        24     1        0.142594   294556.077100    ;  uncertainty r = 0.000362, k = 74.328332
         3         4     1        0.133040   311218.096094    ;  uncertainty r = 0.000254, k = 44.889559
         3         5     1        0.133585   522602.131836    ;  uncertainty r = 0.000164, k = 49.334653
         4        29     1        0.101395   420828.400342    ;  uncertainty r = 0.000071, k = 12.208542
         4        46     1        0.101395   420828.349268    ;  uncertainty r = 0.000071, k = 12.208582
         5         6     1        0.149830   222218.077783    ;  uncertainty r = 0.000371, k = 61.031023
         5        30     1        0.101505   426768.459668    ;  uncertainty r = 0.000036, k = 3.600805
         6         7     1        0.150867   208694.952588    ;  uncertainty r = 0.000128, k = 10.522414
         6        20     1        0.152428   202700.128931    ;  uncertainty r = 0.000481, k = 12.825868
         6        24     1        0.153118   177642.427710    ;  uncertainty r = 0.000258, k = 19.995181
         7         8     1        0.139750   351988.550879    ;  uncertainty r = 0.000030, k = 7.240478
         7        19     1        0.139538   345030.454688    ;  uncertainty r = 0.000041, k = 8.934336
         8         9     1        0.139490   369296.990723    ;  uncertainty r = 0.000021, k = 1.684412
         8        31     1        0.108792   333211.599561    ;  uncertainty r = 0.000022, k = 2.529223
         9        10     1        0.139325   371198.177441    ;  uncertainty r = 0.000027, k = 2.484389
         9        32     1        0.108769   333082.356250    ;  uncertainty r = 0.000023, k = 1.086416
        10        11     1        0.140092   347502.446875    ;  uncertainty r = 0.000016, k = 0.978010
        10        33     1        0.108820   334865.306152    ;  uncertainty r = 0.000023, k = 0.943338
        11        12     1        0.147948   271588.026465    ;  uncertainty r = 0.000042, k = 4.359694
        11        19     1        0.139823   338801.672803    ;  uncertainty r = 0.000074, k = 3.225124
        12        13     1        0.140235   345940.929248    ;  uncertainty r = 0.000017, k = 2.209472
        12        18     1        0.140145   349973.877246    ;  uncertainty r = 0.000025, k = 1.038770
        13        14     1        0.139452   367068.213965    ;  uncertainty r = 0.000025, k = 1.779929
        13        34     1        0.108805   334917.401855    ;  uncertainty r = 0.000025, k = 0.881878
        14        15     1        0.139500   374338.220410    ;  uncertainty r = 0.000020, k = 1.415152
        14        35     1        0.108776   333408.771582    ;  uncertainty r = 0.000008, k = 1.051657
        15        16     1        0.139473   361470.709424    ;  uncertainty r = 0.000016, k = 2.291888
        15        36     1        0.108715   335671.742529    ;  uncertainty r = 0.000009, k = 0.604869
        16        17     1        0.175805   197124.279858    ;  uncertainty r = 0.000030, k = 2.861100
        16        18     1        0.139310   357391.896777    ;  uncertainty r = 0.000022, k = 1.821603
        18        37     1        0.108730   336354.375000    ;  uncertainty r = 0.000018, k = 1.108077
        19        38     1        0.108834   333621.751074    ;  uncertainty r = 0.000011, k = 1.596664
        20        21     1        0.155628   229192.645410    ;  uncertainty r = 0.000077, k = 8.010656
        20        23     1        0.155628   229192.645410    ;  uncertainty r = 0.000077, k = 8.010656
        20        39     1        0.109422   307588.915332    ;  uncertainty r = 0.000040, k = 5.861558
        21        22     1        0.155443   252874.432715    ;  uncertainty r = 0.000041, k = 5.824953
        21        40     1        0.109337   308367.643945    ;  uncertainty r = 0.000038, k = 4.209087
        21        41     1        0.109337   308367.643945    ;  uncertainty r = 0.000038, k = 4.209087
        22        23     1        0.155443   252874.432715    ;  uncertainty r = 0.000041, k = 5.824953
        22        42     1        0.109323   306573.662012    ;  uncertainty r = 0.000011, k = 2.526442
        22        43     1        0.109323   306573.662012    ;  uncertainty r = 0.000011, k = 2.526442
        23        44     1        0.109337   308367.643945    ;  uncertainty r = 0.000038, k = 4.209087
        23        45     1        0.109337   308367.643945    ;  uncertainty r = 0.000038, k = 4.209087
        24        25     1        0.120116   625298.953223    ;  uncertainty r = 0.000236, k = 14.403890

[ angles ]
;       ai        aj        ak funct           theta             cth
         1         2         3     1      118.625107      373.012576    ;  uncertainty theta = 0.007257, k = 0.438584
         1         2        24     1      119.187912      397.634691    ;  uncertainty theta = 0.008324, k = 0.308091
         2         1        26     1      107.393600      470.933505    ;  uncertainty theta = 0.002421, k = 0.220452
         2         1        27     1      107.393600      470.933505    ;  uncertainty theta = 0.002421, k = 0.220452
         2         1        28     1      107.393600      470.933505    ;  uncertainty theta = 0.002421, k = 0.220452
         2         3         4     1      125.901894      535.821033    ;  uncertainty theta = 0.011070, k = 0.305545
         2         3         5     1      113.309189      710.059709    ;  uncertainty theta = 0.009902, k = 0.288604
         2        24         6     1      110.237671      481.865654    ;  uncertainty theta = 0.004449, k = 0.677807
         2        24        25     1      125.244705      650.028988    ;  uncertainty theta = 0.010766, k = 0.099320
         3         2        24     1      110.362038      713.357316    ;  uncertainty theta = 0.009942, k = 0.255624
         3         4        29     1      114.819664      368.015858    ;  uncertainty theta = 0.004158, k = 0.181502
         3         4        46     1      114.819664      368.015794    ;  uncertainty theta = 0.004158, k = 0.181503
         3         5         6     1      111.987961      607.827765    ;  uncertainty theta = 0.017064, k = 0.457354
         3         5        30     1      119.240112      355.733657    ;  uncertainty theta = 0.009023, k = 0.133208
         4         3         5     1      128.601074      644.144280    ;  uncertainty theta = 0.008920, k = 0.323262
         5         6         7     1      110.393265      627.379104    ;  uncertainty theta = 0.007324, k = 0.214578
         5         6        20     1      109.338745      591.995843    ;  uncertainty theta = 0.009310, k = 0.153854
         5         6        24     1      102.808449      940.407309    ;  uncertainty theta = 0.005592, k = 0.519745
         6         5        30     1      117.231918      297.901617    ;  uncertainty theta = 0.007106, k = 0.370502
         6         7         8     1      116.982468      375.771095    ;  uncertainty theta = 0.007549, k = 0.242589
         6         7        19     1      116.459084      375.930287    ;  uncertainty theta = 0.007004, k = 0.172476
         6        20        21     1      112.993530      497.280971    ;  uncertainty theta = 0.005245, k = 0.072866
         6        20        23     1      112.993530      497.280971    ;  uncertainty theta = 0.005245, k = 0.072866
         6        20        39     1      106.141846      350.197755    ;  uncertainty theta = 0.007081, k = 0.214273
         6        24        25     1      125.879837      413.857906    ;  uncertainty theta = 0.008378, k = 0.210441
         7         6        20     1      112.045265      508.424024    ;  uncertainty theta = 0.008786, k = 0.206918
         7         6        24     1      109.332603      488.303655    ;  uncertainty theta = 0.006414, k = 0.120906
         7         8         9     1      120.398819      515.300051    ;  uncertainty theta = 0.003898, k = 0.046503
         7         8        31     1      118.559105      272.242281    ;  uncertainty theta = 0.003792, k = 0.045068
         7        19        11     1      122.486694      512.813566    ;  uncertainty theta = 0.002491, k = 0.196979
         7        19        38     1      118.194046      272.631307    ;  uncertainty theta = 0.003066, k = 0.087890
         8         7        19     1      123.321960      435.992323    ;  uncertainty theta = 0.006122, k = 0.181570
         8         9        10     1      120.379333      510.073690    ;  uncertainty theta = 0.002700, k = 0.075522
         8         9        32     1      119.810257      281.936040    ;  uncertainty theta = 0.002307, k = 0.045123
         9         8        31     1      120.225510      300.250808    ;  uncertainty theta = 0.003043, k = 0.029134
         9        10        11     1      119.845215      534.378761    ;  uncertainty theta = 0.002425, k = 0.070185
         9        10        33     1      120.232742      294.392818    ;  uncertainty theta = 0.001112, k = 0.017206
        10         9        32     1      120.390549      284.297233    ;  uncertainty theta = 0.000861, k = 0.050768
        10        11        12     1      121.130234      406.308115    ;  uncertainty theta = 0.001694, k = 0.143784
        10        11        19     1      120.149796      406.500218    ;  uncertainty theta = 0.004791, k = 0.213688
        11        10        33     1      118.955643      278.237788    ;  uncertainty theta = 0.000591, k = 0.093714
        11        12        13     1      120.576355      411.710969    ;  uncertainty theta = 0.002324, k = 0.047747
        11        12        18     1      119.799866      410.724662    ;  uncertainty theta = 0.001748, k = 0.054068
        11        19        38     1      118.783669      282.748758    ;  uncertainty theta = 0.002129, k = 0.077484
        12        11        19     1      120.038269      413.567613    ;  uncertainty theta = 0.002447, k = 0.159349
        12        13        14     1      120.504349      532.913346    ;  uncertainty theta = 0.001618, k = 0.068709
        12        13        34     1      119.203636      278.269901    ;  uncertainty theta = 0.001744, k = 0.040876
        12        18        16     1      119.741173      510.605660    ;  uncertainty theta = 0.001091, k = 0.073584
        12        18        37     1      120.095413      273.299613    ;  uncertainty theta = 0.001008, k = 0.066605
        13        12        18     1      120.374191      415.451390    ;  uncertainty theta = 0.002120, k = 0.132953
        13        14        15     1      120.717369      509.837057    ;  uncertainty theta = 0.001401, k = 0.048240
        13        14        35     1      120.238693      282.499708    ;  uncertainty theta = 0.001326, k = 0.011496
        14        13        34     1      120.338760      294.190309    ;  uncertainty theta = 0.001360, k = 0.032086
        14        15        16     1      117.430496      514.054606    ;  uncertainty theta = 0.001033, k = 0.048095
        14        15        36     1      121.325417      283.555061    ;  uncertainty theta = 0.001286, k = 0.023037
        15        14        35     1      119.863365      284.707455    ;  uncertainty theta = 0.000778, k = 0.019642
        15        16        17     1      120.461792      447.827848    ;  uncertainty theta = 0.001141, k = 0.053761
        15        16        18     1      121.555298      359.688909    ;  uncertainty theta = 0.001133, k = 0.149052
        16        15        36     1      121.035461      285.494859    ;  uncertainty theta = 0.001567, k = 0.028924
        16        18        37     1      120.760788      292.340624    ;  uncertainty theta = 0.001328, k = 0.049697
        17        16        18     1      120.006104      442.243297    ;  uncertainty theta = 0.000762, k = 0.110065
        20         6        24     1      108.387863      479.300452    ;  uncertainty theta = 0.003588, k = 0.152978
        20        21        22     1       88.729065      673.903887    ;  uncertainty theta = 0.006659, k = 0.087686
        20        21        40     1      112.787498      383.330813    ;  uncertainty theta = 0.003142, k = 0.042007
        20        21        41     1      112.787498      383.330845    ;  uncertainty theta = 0.003142, k = 0.042007
        20        23        22     1       88.729065      673.903887    ;  uncertainty theta = 0.006659, k = 0.087686
        20        23        44     1      112.787498      383.330845    ;  uncertainty theta = 0.003142, k = 0.042007
        20        23        45     1      112.787498      383.330845    ;  uncertainty theta = 0.003142, k = 0.042007
        21        20        23     1       88.963028      703.307570    ;  uncertainty theta = 0.004429, k = 0.299142
        21        20        39     1      112.554787      421.324127    ;  uncertainty theta = 0.005959, k = 0.133869
        21        22        23     1       88.788719      693.901167    ;  uncertainty theta = 0.005265, k = 0.078952
        21        22        42     1      113.912491      403.402822    ;  uncertainty theta = 0.002704, k = 0.058185
        21        22        43     1      113.912491      403.402822    ;  uncertainty theta = 0.002704, k = 0.058185
        22        21        40     1      114.261887      409.381219    ;  uncertainty theta = 0.001962, k = 0.077731
        22        21        41     1      114.261887      409.381219    ;  uncertainty theta = 0.001962, k = 0.077731
        22        23        44     1      114.261887      409.381219    ;  uncertainty theta = 0.001962, k = 0.077731
        22        23        45     1      114.261887      409.381219    ;  uncertainty theta = 0.001962, k = 0.077731
        23        20        39     1      112.554787      421.324127    ;  uncertainty theta = 0.005959, k = 0.133869
        23        22        42     1      113.912491      403.402822    ;  uncertainty theta = 0.002704, k = 0.058185
        23        22        43     1      113.912491      403.402822    ;  uncertainty theta = 0.002704, k = 0.058185
        26         1        27     1      107.627602      325.705081    ;  uncertainty theta = 0.003403, k = 0.101955
        26         1        28     1      107.627602      325.705081    ;  uncertainty theta = 0.003403, k = 0.101955
        27         1        28     1      107.627602      325.705081    ;  uncertainty theta = 0.003403, k = 0.101955
        29         4        46     1      112.411926      264.583941    ;  uncertainty theta = 0.015792, k = 0.354674
        40        21        41     1      107.806046      277.659819    ;  uncertainty theta = 0.002781, k = 0.118798
        42        22        43     1      107.650330      276.340572    ;  uncertainty theta = 0.002864, k = 0.127710
        44        23        45     1      107.806046      277.659819    ;  uncertainty theta = 0.002781, k = 0.118798

[ dihedrals ] ; propers for gromacs 4.5 or higher, use funct 9
;       ai        aj        ak        al funct           phase               k        pn
         1         2         3         4     9        0.000000        0.009446         1    ;  uncertainty k = 0.725532
         1         2         3         4     9      180.000000        6.838815         2    ;  uncertainty k = 0.659004
         1         2         3         4     9        0.000000        0.928423         3    ;  uncertainty k = 0.715792
         1         2         3         4     9      180.000000        0.002160         4    ;  uncertainty k = 0.303229
         1         2         3         5     9        0.000000       -0.304356         1    ;  uncertainty k = 2.564190
         1         2         3         5     9      180.000000        8.129534         2    ;  uncertainty k = 0.455704
         1         2         3         5     9        0.000000        0.221237         3    ;  uncertainty k = 0.187320
         1         2         3         5     9      180.000000       -0.122562         4    ;  uncertainty k = 0.241229
         1         2        24         6     9        0.000000        4.793300         1    ;  uncertainty k = 2.907679
         1         2        24         6     9      180.000000        4.786980         2    ;  uncertainty k = 1.208819
         1         2        24         6     9        0.000000        1.322399         3    ;  uncertainty k = 0.835180
         1         2        24         6     9      180.000000        0.119480         4    ;  uncertainty k = 0.468311
         1         2        24        25     9        0.000000       -0.608108         1    ;  uncertainty k = 3.066188
         1         2        24        25     9      180.000000        8.241586         2    ;  uncertainty k = 0.464319
         1         2        24        25     9        0.000000        0.587026         3    ;  uncertainty k = 0.507996
         1         2        24        25     9      180.000000        0.226146         4    ;  uncertainty k = 0.232970
         2         3         4        29     9        0.000000        7.513777         1    ;  uncertainty k = 1.987768
         2         3         4        29     9      180.000000        9.451799         2    ;  uncertainty k = 0.634227
         2         3         4        29     9        0.000000        0.994116         3    ;  uncertainty k = 0.509316
         2         3         4        29     9      180.000000       -0.957886         4    ;  uncertainty k = 0.246481
         2         3         4        46     9        0.000000        7.513777         1    ;  uncertainty k = 1.987769
         2         3         4        46     9      180.000000        9.451798         2    ;  uncertainty k = 0.634227
         2         3         4        46     9        0.000000        0.994116         3    ;  uncertainty k = 0.509316
         2         3         4        46     9      180.000000       -0.957886         4    ;  uncertainty k = 0.246482
         2         3         5         6     9        0.000000        1.498711         1    ;  uncertainty k = 1.779983
         2         3         5         6     9      180.000000       15.071657         2    ;  uncertainty k = 0.308664
         2         3         5         6     9        0.000000       -0.061490         3    ;  uncertainty k = 0.960476
         2         3         5         6     9      180.000000       -0.574081         4    ;  uncertainty k = 0.198012
         2         3         5        30     9        0.000000        4.461450         1    ;  uncertainty k = 3.225563
         2         3         5        30     9      180.000000       10.700973         2    ;  uncertainty k = 0.628609
         2         3         5        30     9        0.000000        0.983784         3    ;  uncertainty k = 0.798203
         2         3         5        30     9      180.000000       -0.443067         4    ;  uncertainty k = 0.146492
         2        24         6         5     9        0.000000        0.499392         1    ;  uncertainty k = 2.449151
         2        24         6         5     9      180.000000        6.686007         2    ;  uncertainty k = 0.763716
         2        24         6         5     9        0.000000        0.400957         3    ;  uncertainty k = 0.534822
         2        24         6         5     9      180.000000        0.276783         4    ;  uncertainty k = 0.639231
         2        24         6         7     9        0.000000       -2.620347         1    ;  uncertainty k = 3.392993
         2        24         6         7     9      180.000000        1.941098         2    ;  uncertainty k = 1.039161
         2        24         6         7     9        0.000000        1.130653         3    ;  uncertainty k = 0.505205
         2        24         6         7     9      180.000000        0.770766         4    ;  uncertainty k = 0.261030
         2        24         6        20     9        0.000000       -6.297133         1    ;  uncertainty k = 2.504950
         2        24         6        20     9      180.000000        2.765148         2    ;  uncertainty k = 0.664883
         2        24         6        20     9        0.000000        1.040400         3    ;  uncertainty k = 0.289534
         2        24         6        20     9      180.000000        0.472861         4    ;  uncertainty k = 0.272376
         3         2         1        26     9        0.000000       -0.388677         1    ;  uncertainty k = 0.524315
         3         2         1        26     9      180.000000       -1.098854         2    ;  uncertainty k = 0.435500
         3         2         1        26     9        0.000000        0.447591         3    ;  uncertainty k = 0.209931
         3         2         1        26     9      180.000000        0.188695         4    ;  uncertainty k = 0.056377
         3         2         1        27     9        0.000000       -0.388677         1    ;  uncertainty k = 0.524315
         3         2         1        27     9      180.000000       -1.098854         2    ;  uncertainty k = 0.435500
         3         2         1        27     9        0.000000        0.447591         3    ;  uncertainty k = 0.209931
         3         2         1        27     9      180.000000        0.188695         4    ;  uncertainty k = 0.056377
         3         2         1        28     9        0.000000       -0.388677         1    ;  uncertainty k = 0.524315
         3         2         1        28     9      180.000000       -1.098854         2    ;  uncertainty k = 0.435500
         3         2         1        28     9        0.000000        0.447591         3    ;  uncertainty k = 0.209931
         3         2         1        28     9      180.000000        0.188695         4    ;  uncertainty k = 0.056377
         3         2        24         6     9        0.000000        3.063741         1    ;  uncertainty k = 2.287014
         3         2        24         6     9      180.000000        3.179407         2    ;  uncertainty k = 1.170310
         3         2        24         6     9        0.000000       -0.177123         3    ;  uncertainty k = 0.926820
         3         2        24         6     9      180.000000        0.750132         4    ;  uncertainty k = 0.236182
         3         2        24        25     9        0.000000        0.420347         1    ;  uncertainty k = 2.549611
         3         2        24        25     9      180.000000        7.747112         2    ;  uncertainty k = 0.693657
         3         2        24        25     9        0.000000        0.459995         3    ;  uncertainty k = 0.521650
         3         2        24        25     9      180.000000        0.039317         4    ;  uncertainty k = 0.260440
         3         5         6         7     9        0.000000        0.079425         1    ;  uncertainty k = 0.524375
         3         5         6         7     9      180.000000        0.960071         2    ;  uncertainty k = 0.432237
         3         5         6         7     9        0.000000        0.736320         3    ;  uncertainty k = 0.268341
         3         5         6         7     9      180.000000        0.487876         4    ;  uncertainty k = 0.255331
         3         5         6        20     9        0.000000       -1.097009         1    ;  uncertainty k = 0.767346
         3         5         6        20     9      180.000000        1.261872         2    ;  uncertainty k = 0.538749
         3         5         6        20     9        0.000000        0.647430         3    ;  uncertainty k = 0.421955
         3         5         6        20     9      180.000000        0.347228         4    ;  uncertainty k = 0.136725
         3         5         6        24     9        0.000000        1.571483         1    ;  uncertainty k = 1.162760
         3         5         6        24     9      180.000000        2.236495         2    ;  uncertainty k = 1.270603
         3         5         6        24     9        0.000000        0.124544         3    ;  uncertainty k = 0.632457
         3         5         6        24     9      180.000000        0.481962         4    ;  uncertainty k = 0.440854
         4         3         2        24     9        0.000000       -0.605462         1    ;  uncertainty k = 0.725422
         4         3         2        24     9      180.000000        6.660339         2    ;  uncertainty k = 1.318766
         4         3         2        24     9        0.000000        0.171564         3    ;  uncertainty k = 0.727756
         4         3         2        24     9      180.000000       -0.068698         4    ;  uncertainty k = 0.463485
         4         3         5         6     9        0.000000        2.515558         1    ;  uncertainty k = 1.631898
         4         3         5         6     9      180.000000       10.575452         2    ;  uncertainty k = 0.910072
         4         3         5         6     9        0.000000        0.444479         3    ;  uncertainty k = 0.535715
         4         3         5         6     9      180.000000       -0.434808         4    ;  uncertainty k = 0.507006
         4         3         5        30     9        0.000000        2.585206         1    ;  uncertainty k = 2.767144
         4         3         5        30     9      180.000000        7.812142         2    ;  uncertainty k = 1.153060
         4         3         5        30     9        0.000000        0.965144         3    ;  uncertainty k = 0.169268
         4         3         5        30     9      180.000000       -0.282658         4    ;  uncertainty k = 0.289639
         5         3         2        24     9        0.000000       -0.106568         1    ;  uncertainty k = 1.565454
         5         3         2        24     9      180.000000        8.404369         2    ;  uncertainty k = 0.793313
         5         3         2        24     9        0.000000       -1.150113         3    ;  uncertainty k = 1.120613
         5         3         2        24     9      180.000000        0.027990         4    ;  uncertainty k = 0.440579
         5         3         4        29     9        0.000000        5.861147         1    ;  uncertainty k = 1.321349
         5         3         4        29     9      180.000000       10.316444         2    ;  uncertainty k = 0.342162
         5         3         4        29     9        0.000000        1.436798         3    ;  uncertainty k = 0.461460
         5         3         4        29     9      180.000000       -0.767588         4    ;  uncertainty k = 0.303365
         5         3         4        46     9        0.000000        5.861147         1    ;  uncertainty k = 1.321349
         5         3         4        46     9      180.000000       10.316442         2    ;  uncertainty k = 0.342162
         5         3         4        46     9        0.000000        1.436798         3    ;  uncertainty k = 0.461460
         5         3         4        46     9      180.000000       -0.767588         4    ;  uncertainty k = 0.303365
         5         6         7         8     9        0.000000       -0.980406         1    ;  uncertainty k = 1.209104
         5         6         7         8     9      180.000000        2.776106         2    ;  uncertainty k = 0.306700
         5         6         7         8     9        0.000000        0.645771         3    ;  uncertainty k = 0.173371
         5         6         7         8     9      180.000000        0.329629         4    ;  uncertainty k = 0.109266
         5         6         7        19     9        0.000000       -0.794402         1    ;  uncertainty k = 1.175317
         5         6         7        19     9      180.000000        2.774869         2    ;  uncertainty k = 0.375840
         5         6         7        19     9        0.000000        0.599130         3    ;  uncertainty k = 0.144896
         5         6         7        19     9      180.000000        0.336555         4    ;  uncertainty k = 0.123216
         5         6        20        21     9        0.000000       -0.890943         1    ;  uncertainty k = 0.408063
         5         6        20        21     9      180.000000        0.217305         2    ;  uncertainty k = 0.643340
         5         6        20        21     9        0.000000        1.137897         3    ;  uncertainty k = 0.385120
         5         6        20        21     9      180.000000       -0.226210         4    ;  uncertainty k = 0.163336
         5         6        20        23     9        0.000000       -0.890943         1    ;  uncertainty k = 0.408063
         5         6        20        23     9      180.000000        0.217305         2    ;  uncertainty k = 0.643340
         5         6        20        23     9        0.000000        1.137897         3    ;  uncertainty k = 0.385120
         5         6        20        23     9      180.000000       -0.226210         4    ;  uncertainty k = 0.163336
         5         6        20        39     9        0.000000       -0.881447         1    ;  uncertainty k = 1.039087
         5         6        20        39     9      180.000000       -0.003243         2    ;  uncertainty k = 0.551355
         5         6        20        39     9        0.000000        0.397199         3    ;  uncertainty k = 0.292643
         5         6        20        39     9      180.000000       -0.095384         4    ;  uncertainty k = 0.176963
         5         6        24        25     9        0.000000       -0.899459         1    ;  uncertainty k = 2.317837
         5         6        24        25     9      180.000000        2.704374         2    ;  uncertainty k = 1.392399
         5         6        24        25     9        0.000000        0.316408         3    ;  uncertainty k = 0.496781
         5         6        24        25     9      180.000000        0.426434         4    ;  uncertainty k = 0.124847
         6         7         8         9     9        0.000000        0.052425         1    ;  uncertainty k = 0.400814
         6         7         8         9     9      180.000000        8.832379         2    ;  uncertainty k = 0.398778
         6         7         8         9     9        0.000000        1.368173         3    ;  uncertainty k = 0.409470
         6         7         8         9     9      180.000000        1.850288         4    ;  uncertainty k = 0.173811
         6         7         8        31     9        0.000000       -0.520893         1    ;  uncertainty k = 0.310511
         6         7         8        31     9      180.000000        7.081306         2    ;  uncertainty k = 0.398404
         6         7         8        31     9        0.000000        0.659905         3    ;  uncertainty k = 0.301133
         6         7         8        31     9      180.000000        1.037874         4    ;  uncertainty k = 0.267943
         6         7        19        11     9        0.000000        0.102794         1    ;  uncertainty k = 0.180572
         6         7        19        11     9      180.000000        8.497785         2    ;  uncertainty k = 0.290609
         6         7        19        11     9        0.000000        1.331475         3    ;  uncertainty k = 0.336892
         6         7        19        11     9      180.000000        1.842456         4    ;  uncertainty k = 0.121046
         6         7        19        38     9        0.000000       -0.436725         1    ;  uncertainty k = 0.299539
         6         7        19        38     9      180.000000        7.114654         2    ;  uncertainty k = 0.420287
         6         7        19        38     9        0.000000        0.600495         3    ;  uncertainty k = 0.385718
         6         7        19        38     9      180.000000        1.095820         4    ;  uncertainty k = 0.283844
         6        20        21        22     9        0.000000        0.292084         1    ;  uncertainty k = 0.603448
         6        20        21        22     9      180.000000        2.300627         2    ;  uncertainty k = 1.041202
         6        20        21        22     9        0.000000        1.664610         3    ;  uncertainty k = 0.454700
         6        20        21        22     9      180.000000        0.858415         4    ;  uncertainty k = 0.191096
         6        20        21        40     9        0.000000        0.804910         1    ;  uncertainty k = 0.529906
         6        20        21        40     9      180.000000       -2.157503         2    ;  uncertainty k = 0.526344
         6        20        21        40     9        0.000000        1.775369         3    ;  uncertainty k = 0.162031
         6        20        21        40     9      180.000000       -0.010336         4    ;  uncertainty k = 0.166584
         6        20        21        41     9        0.000000        0.804910         1    ;  uncertainty k = 0.529906
         6        20        21        41     9      180.000000       -2.157503         2    ;  uncertainty k = 0.526344
         6        20        21        41     9        0.000000        1.775369         3    ;  uncertainty k = 0.162031
         6        20        21        41     9      180.000000       -0.010336         4    ;  uncertainty k = 0.166584
         6        20        23        22     9        0.000000        0.292084         1    ;  uncertainty k = 0.603448
         6        20        23        22     9      180.000000        2.300627         2    ;  uncertainty k = 1.041202
         6        20        23        22     9        0.000000        1.664610         3    ;  uncertainty k = 0.454700
         6        20        23        22     9      180.000000        0.858415         4    ;  uncertainty k = 0.191096
         6        20        23        44     9        0.000000        0.804910         1    ;  uncertainty k = 0.529906
         6        20        23        44     9      180.000000       -2.157503         2    ;  uncertainty k = 0.526344
         6        20        23        44     9        0.000000        1.775369         3    ;  uncertainty k = 0.162031
         6        20        23        44     9      180.000000       -0.010336         4    ;  uncertainty k = 0.166584
         6        20        23        45     9        0.000000        0.804910         1    ;  uncertainty k = 0.529906
         6        20        23        45     9      180.000000       -2.157503         2    ;  uncertainty k = 0.526344
         6        20        23        45     9        0.000000        1.775369         3    ;  uncertainty k = 0.162031
         6        20        23        45     9      180.000000       -0.010336         4    ;  uncertainty k = 0.166584
         7         6         5        30     9        0.000000        2.842626         1    ;  uncertainty k = 1.028030
         7         6         5        30     9      180.000000        0.327034         2    ;  uncertainty k = 0.911791
         7         6         5        30     9        0.000000        0.671933         3    ;  uncertainty k = 0.367735
         7         6         5        30     9      180.000000        0.065179         4    ;  uncertainty k = 0.117505
         7         6        20        21     9        0.000000       -0.189696         1    ;  uncertainty k = 0.271063
         7         6        20        21     9      180.000000        0.545982         2    ;  uncertainty k = 0.349405
         7         6        20        21     9        0.000000        0.781969         3    ;  uncertainty k = 0.218203
         7         6        20        21     9      180.000000        0.009250         4    ;  uncertainty k = 0.091227
         7         6        20        23     9        0.000000       -0.189696         1    ;  uncertainty k = 0.271063
         7         6        20        23     9      180.000000        0.545982         2    ;  uncertainty k = 0.349405
         7         6        20        23     9        0.000000        0.781969         3    ;  uncertainty k = 0.218203
         7         6        20        23     9      180.000000        0.009250         4    ;  uncertainty k = 0.091227
         7         6        20        39     9        0.000000       -0.431486         1    ;  uncertainty k = 1.013901
         7         6        20        39     9      180.000000        0.290112         2    ;  uncertainty k = 0.418468
         7         6        20        39     9        0.000000        0.659069         3    ;  uncertainty k = 0.246244
         7         6        20        39     9      180.000000        0.014477         4    ;  uncertainty k = 0.029022
         7         6        24        25     9        0.000000       -0.327886         1    ;  uncertainty k = 1.530967
         7         6        24        25     9      180.000000        3.439830         2    ;  uncertainty k = 0.464377
         7         6        24        25     9        0.000000        0.490068         3    ;  uncertainty k = 0.183424
         7         6        24        25     9      180.000000        0.068821         4    ;  uncertainty k = 0.250899
         7         8         9        10     9        0.000000       -0.038540         1    ;  uncertainty k = 0.219363
         7         8         9        10     9      180.000000       13.097419         2    ;  uncertainty k = 0.293633
         7         8         9        10     9        0.000000       -0.870835         3    ;  uncertainty k = 0.532667
         7         8         9        10     9      180.000000        0.794223         4    ;  uncertainty k = 0.205089
         7         8         9        32     9        0.000000        0.117215         1    ;  uncertainty k = 0.325192
         7         8         9        32     9      180.000000        7.322803         2    ;  uncertainty k = 0.263955
         7         8         9        32     9        0.000000        1.463622         3    ;  uncertainty k = 0.151315
         7         8         9        32     9      180.000000        1.822319         4    ;  uncertainty k = 0.147104
         7        19        11        10     9        0.000000        0.156370         1    ;  uncertainty k = 0.358134
         7        19        11        10     9      180.000000        9.900171         2    ;  uncertainty k = 0.440624
         7        19        11        10     9        0.000000       -0.098020         3    ;  uncertainty k = 0.304665
         7        19        11        10     9      180.000000        1.122172         4    ;  uncertainty k = 0.288060
         7        19        11        12     9        0.000000        0.303001         1    ;  uncertainty k = 0.089562
         7        19        11        12     9      180.000000        8.428271         2    ;  uncertainty k = 0.423864
         7        19        11        12     9        0.000000        1.263163         3    ;  uncertainty k = 0.390598
         7        19        11        12     9      180.000000        1.735753         4    ;  uncertainty k = 0.085832
         8         7         6        20     9        0.000000       -0.374168         1    ;  uncertainty k = 0.594260
         8         7         6        20     9      180.000000        2.137993         2    ;  uncertainty k = 0.271506
         8         7         6        20     9        0.000000        0.348181         3    ;  uncertainty k = 0.219458
         8         7         6        20     9      180.000000        0.210382         4    ;  uncertainty k = 0.041729
         8         7         6        24     9        0.000000        0.275655         1    ;  uncertainty k = 1.423938
         8         7         6        24     9      180.000000        0.966869         2    ;  uncertainty k = 0.291369
         8         7         6        24     9        0.000000        0.511169         3    ;  uncertainty k = 0.191969
         8         7         6        24     9      180.000000        0.265147         4    ;  uncertainty k = 0.175225
         8         7        19        11     9        0.000000       -0.319119         1    ;  uncertainty k = 0.393721
         8         7        19        11     9      180.000000       11.577881         2    ;  uncertainty k = 0.126633
         8         7        19        11     9        0.000000       -0.203401         3    ;  uncertainty k = 0.271758
         8         7        19        11     9      180.000000        0.962490         4    ;  uncertainty k = 0.221182
         8         7        19        38     9        0.000000        0.224751         1    ;  uncertainty k = 0.083845
         8         7        19        38     9      180.000000        7.719045         2    ;  uncertainty k = 0.475672
         8         7        19        38     9        0.000000        1.352531         3    ;  uncertainty k = 0.350452
         8         7        19        38     9      180.000000        1.669504         4    ;  uncertainty k = 0.191936
         8         9        10        11     9        0.000000       -0.061452         1    ;  uncertainty k = 0.248756
         8         9        10        11     9      180.000000       13.976526         2    ;  uncertainty k = 0.209008
         8         9        10        11     9        0.000000       -0.833206         3    ;  uncertainty k = 0.469719
         8         9        10        11     9      180.000000        0.715503         4    ;  uncertainty k = 0.228618
         8         9        10        33     9        0.000000        0.073003         1    ;  uncertainty k = 0.092218
         8         9        10        33     9      180.000000        7.686477         2    ;  uncertainty k = 0.226388
         8         9        10        33     9        0.000000        1.441639         3    ;  uncertainty k = 0.222119
         8         9        10        33     9      180.000000        1.824713         4    ;  uncertainty k = 0.223132
         9         8         7        19     9        0.000000       -0.260091         1    ;  uncertainty k = 0.254872
         9         8         7        19     9      180.000000       11.993080         2    ;  uncertainty k = 0.377952
         9         8         7        19     9        0.000000       -0.566841         3    ;  uncertainty k = 0.170088
         9         8         7        19     9      180.000000        0.840807         4    ;  uncertainty k = 0.275787
         9        10        11        12     9        0.000000        0.048646         1    ;  uncertainty k = 0.213214
         9        10        11        12     9      180.000000        8.977130         2    ;  uncertainty k = 0.559527
         9        10        11        12     9        0.000000        1.185578         3    ;  uncertainty k = 0.437822
         9        10        11        12     9      180.000000        1.738806         4    ;  uncertainty k = 0.176943
         9        10        11        19     9        0.000000        0.113270         1    ;  uncertainty k = 0.182071
         9        10        11        19     9      180.000000       11.156275         2    ;  uncertainty k = 0.222612
         9        10        11        19     9        0.000000       -0.443816         3    ;  uncertainty k = 0.357471
         9        10        11        19     9      180.000000        0.933030         4    ;  uncertainty k = 0.290470
        10         9         8        31     9        0.000000        0.038193         1    ;  uncertainty k = 0.108456
        10         9         8        31     9      180.000000        7.752841         2    ;  uncertainty k = 0.349431
        10         9         8        31     9        0.000000        1.378423         3    ;  uncertainty k = 0.234735
        10         9         8        31     9      180.000000        1.822732         4    ;  uncertainty k = 0.100229
        10        11        12        13     9        0.000000       -0.408943         1    ;  uncertainty k = 0.431281
        10        11        12        13     9      180.000000        3.911355         2    ;  uncertainty k = 0.071432
        10        11        12        13     9        0.000000        0.296409         3    ;  uncertainty k = 0.129704
        10        11        12        13     9      180.000000       -0.086657         4    ;  uncertainty k = 0.061360
        10        11        12        18     9        0.000000       -0.382997         1    ;  uncertainty k = 0.348383
        10        11        12        18     9      180.000000        3.939781         2    ;  uncertainty k = 0.073496
        10        11        12        18     9        0.000000        0.279831         3    ;  uncertainty k = 0.120702
        10        11        12        18     9      180.000000       -0.062526         4    ;  uncertainty k = 0.041938
        10        11        19        38     9        0.000000        0.095245         1    ;  uncertainty k = 0.141029
        10        11        19        38     9      180.000000        7.226699         2    ;  uncertainty k = 0.655920
        10        11        19        38     9        0.000000        1.430823         3    ;  uncertainty k = 0.126113
        10        11        19        38     9      180.000000        1.639597         4    ;  uncertainty k = 0.235604
        11        10         9        32     9        0.000000        0.002540         1    ;  uncertainty k = 0.194872
        11        10         9        32     9      180.000000        7.680839         2    ;  uncertainty k = 0.352642
        11        10         9        32     9        0.000000        1.348342         3    ;  uncertainty k = 0.216572
        11        10         9        32     9      180.000000        1.835663         4    ;  uncertainty k = 0.193189
        11        12        13        14     9        0.000000       -0.014072         1    ;  uncertainty k = 0.229113
        11        12        13        14     9      180.000000        8.760543         2    ;  uncertainty k = 0.611114
        11        12        13        14     9        0.000000        1.208109         3    ;  uncertainty k = 0.406177
        11        12        13        14     9      180.000000        1.773002         4    ;  uncertainty k = 0.159787
        11        12        13        34     9        0.000000       -0.229132         1    ;  uncertainty k = 0.315874
        11        12        13        34     9      180.000000        7.078374         2    ;  uncertainty k = 0.459386
        11        12        13        34     9        0.000000        0.824950         3    ;  uncertainty k = 0.161708
        11        12        13        34     9      180.000000        1.172637         4    ;  uncertainty k = 0.210912
        11        12        18        16     9        0.000000        0.080415         1    ;  uncertainty k = 0.174925
        11        12        18        16     9      180.000000        8.976386         2    ;  uncertainty k = 0.383593
        11        12        18        16     9        0.000000        1.285004         3    ;  uncertainty k = 0.283890
        11        12        18        16     9      180.000000        1.699834         4    ;  uncertainty k = 0.068003
        11        12        18        37     9        0.000000       -0.195808         1    ;  uncertainty k = 0.275759
        11        12        18        37     9      180.000000        7.094854         2    ;  uncertainty k = 0.421141
        11        12        18        37     9        0.000000        0.828181         3    ;  uncertainty k = 0.179949
        11        12        18        37     9      180.000000        1.172264         4    ;  uncertainty k = 0.200539
        12        11        10        33     9        0.000000       -0.141708         1    ;  uncertainty k = 0.277913
        12        11        10        33     9      180.000000        7.157976         2    ;  uncertainty k = 0.462415
        12        11        10        33     9        0.000000        0.829214         3    ;  uncertainty k = 0.119903
        12        11        10        33     9      180.000000        1.194436         4    ;  uncertainty k = 0.179074
        12        11        19        38     9        0.000000       -0.097625         1    ;  uncertainty k = 0.205063
        12        11        19        38     9      180.000000        7.345442         2    ;  uncertainty k = 0.309244
        12        11        19        38     9        0.000000        0.839605         3    ;  uncertainty k = 0.167409
        12        11        19        38     9      180.000000        1.278389         4    ;  uncertainty k = 0.190767
        12        13        14        15     9        0.000000       -0.042208         1    ;  uncertainty k = 0.231516
        12        13        14        15     9      180.000000       14.171992         2    ;  uncertainty k = 0.189515
        12        13        14        15     9        0.000000       -0.870742         3    ;  uncertainty k = 0.485056
        12        13        14        15     9      180.000000        0.699208         4    ;  uncertainty k = 0.253427
        12        13        14        35     9        0.000000        0.022682         1    ;  uncertainty k = 0.242894
        12        13        14        35     9      180.000000        7.703945         2    ;  uncertainty k = 0.339132
        12        13        14        35     9        0.000000        1.372428         3    ;  uncertainty k = 0.261098
        12        13        14        35     9      180.000000        1.835688         4    ;  uncertainty k = 0.149482
        12        18        16        15     9        0.000000       -0.010279         1    ;  uncertainty k = 0.315076
        12        18        16        15     9      180.000000        9.861218         2    ;  uncertainty k = 0.417908
        12        18        16        15     9        0.000000       -0.044172         3    ;  uncertainty k = 0.331365
        12        18        16        15     9      180.000000        1.160540         4    ;  uncertainty k = 0.311928
        12        18        16        17     9        0.000000        0.036466         1    ;  uncertainty k = 0.115484
        12        18        16        17     9      180.000000        9.485434         2    ;  uncertainty k = 0.578648
        12        18        16        17     9        0.000000        1.367643         3    ;  uncertainty k = 0.425703
        12        18        16        17     9      180.000000        1.685065         4    ;  uncertainty k = 0.101287
        13        12        11        19     9        0.000000       -0.180572         1    ;  uncertainty k = 0.444030
        13        12        11        19     9      180.000000        4.179558         2    ;  uncertainty k = 0.149703
        13        12        11        19     9        0.000000        0.280066         3    ;  uncertainty k = 0.154006
        13        12        11        19     9      180.000000       -0.001601         4    ;  uncertainty k = 0.047506
        13        12        18        16     9        0.000000        0.112971         1    ;  uncertainty k = 0.107592
        13        12        18        16     9      180.000000       11.459687         2    ;  uncertainty k = 0.265370
        13        12        18        16     9        0.000000       -0.359029         3    ;  uncertainty k = 0.399359
        13        12        18        16     9      180.000000        0.945001         4    ;  uncertainty k = 0.278886
        13        12        18        37     9        0.000000        0.189437         1    ;  uncertainty k = 0.134814
        13        12        18        37     9      180.000000        6.927558         2    ;  uncertainty k = 0.531255
        13        12        18        37     9        0.000000        1.476130         3    ;  uncertainty k = 0.227216
        13        12        18        37     9      180.000000        1.643456         4    ;  uncertainty k = 0.236170
        13        14        15        16     9        0.000000        0.034101         1    ;  uncertainty k = 0.181604
        13        14        15        16     9      180.000000       14.637857         2    ;  uncertainty k = 0.207905
        13        14        15        16     9        0.000000       -1.037223         3    ;  uncertainty k = 0.574419
        13        14        15        16     9      180.000000        0.689985         4    ;  uncertainty k = 0.252256
        13        14        15        36     9        0.000000        0.080157         1    ;  uncertainty k = 0.044174
        13        14        15        36     9      180.000000        7.631927         2    ;  uncertainty k = 0.319811
        13        14        15        36     9        0.000000        1.497161         3    ;  uncertainty k = 0.267179
        13        14        15        36     9      180.000000        1.800300         4    ;  uncertainty k = 0.165698
        14        13        12        18     9        0.000000       -0.014258         1    ;  uncertainty k = 0.046197
        14        13        12        18     9      180.000000       11.353969         2    ;  uncertainty k = 0.284679
        14        13        12        18     9        0.000000       -0.419125         3    ;  uncertainty k = 0.329524
        14        13        12        18     9      180.000000        0.851477         4    ;  uncertainty k = 0.284931
        14        15        16        17     9        0.000000        0.039415         1    ;  uncertainty k = 0.185710
        14        15        16        17     9      180.000000        9.400893         2    ;  uncertainty k = 0.673917
        14        15        16        17     9        0.000000        1.522713         3    ;  uncertainty k = 0.432767
        14        15        16        17     9      180.000000        1.637619         4    ;  uncertainty k = 0.162550
        14        15        16        18     9        0.000000       -0.035280         1    ;  uncertainty k = 0.114525
        14        15        16        18     9      180.000000       10.458549         2    ;  uncertainty k = 0.352853
        14        15        16        18     9        0.000000       -0.351603         3    ;  uncertainty k = 0.544621
        14        15        16        18     9      180.000000        0.999885         4    ;  uncertainty k = 0.326950
        15        14        13        34     9        0.000000        0.052492         1    ;  uncertainty k = 0.058933
        15        14        13        34     9      180.000000        7.952025         2    ;  uncertainty k = 0.267693
        15        14        13        34     9        0.000000        1.470677         3    ;  uncertainty k = 0.256858
        15        14        13        34     9      180.000000        1.851650         4    ;  uncertainty k = 0.164394
        15        16        18        37     9        0.000000       -0.045893         1    ;  uncertainty k = 0.245307
        15        16        18        37     9      180.000000        6.349827         2    ;  uncertainty k = 0.564330
        15        16        18        37     9        0.000000        1.416183         3    ;  uncertainty k = 0.310677
        15        16        18        37     9      180.000000        1.600595         4    ;  uncertainty k = 0.148712
        16        15        14        35     9        0.000000        0.013468         1    ;  uncertainty k = 0.140073
        16        15        14        35     9      180.000000        7.595964         2    ;  uncertainty k = 0.326738
        16        15        14        35     9        0.000000        1.451185         3    ;  uncertainty k = 0.275083
        16        15        14        35     9      180.000000        1.856285         4    ;  uncertainty k = 0.184737
        17        16        15        36     9        0.000000       -0.148142         1    ;  uncertainty k = 0.212406
        17        16        15        36     9      180.000000        7.328405         2    ;  uncertainty k = 0.291144
        17        16        15        36     9        0.000000        0.580550         3    ;  uncertainty k = 0.353024
        17        16        15        36     9      180.000000        0.942602         4    ;  uncertainty k = 0.155635
        17        16        18        37     9        0.000000       -0.243273         1    ;  uncertainty k = 0.262026
        17        16        18        37     9      180.000000        7.505922         2    ;  uncertainty k = 0.286010
        17        16        18        37     9        0.000000        0.606748         3    ;  uncertainty k = 0.290520
        17        16        18        37     9      180.000000        1.026416         4    ;  uncertainty k = 0.149534
        18        12        11        19     9        0.000000       -0.139769         1    ;  uncertainty k = 0.355790
        18        12        11        19     9      180.000000        4.190801         2    ;  uncertainty k = 0.137187
        18        12        11        19     9        0.000000        0.242992         3    ;  uncertainty k = 0.158378
        18        12        11        19     9      180.000000        0.020721         4    ;  uncertainty k = 0.043489
        18        12        13        34     9        0.000000        0.134271         1    ;  uncertainty k = 0.144927
        18        12        13        34     9      180.000000        6.905300         2    ;  uncertainty k = 0.558345
        18        12        13        34     9        0.000000        1.477109         3    ;  uncertainty k = 0.223699
        18        12        13        34     9      180.000000        1.638260         4    ;  uncertainty k = 0.236471
        18        16        15        36     9        0.000000        0.008768         1    ;  uncertainty k = 0.120181
        18        16        15        36     9      180.000000        6.217604         2    ;  uncertainty k = 0.626406
        18        16        15        36     9        0.000000        1.411019         3    ;  uncertainty k = 0.350782
        18        16        15        36     9      180.000000        1.518245         4    ;  uncertainty k = 0.154069
        19         7         6        20     9        0.000000       -0.318644         1    ;  uncertainty k = 0.548646
        19         7         6        20     9      180.000000        2.164924         2    ;  uncertainty k = 0.188279
        19         7         6        20     9        0.000000        0.314688         3    ;  uncertainty k = 0.273168
        19         7         6        20     9      180.000000        0.205480         4    ;  uncertainty k = 0.058002
        19         7         6        24     9        0.000000        0.234965         1    ;  uncertainty k = 1.441436
        19         7         6        24     9      180.000000        1.002107         2    ;  uncertainty k = 0.253101
        19         7         6        24     9        0.000000        0.454512         3    ;  uncertainty k = 0.180338
        19         7         6        24     9      180.000000        0.279303         4    ;  uncertainty k = 0.183247
        19         7         8        31     9        0.000000        0.240591         1    ;  uncertainty k = 0.150804
        19         7         8        31     9      180.000000        7.547019         2    ;  uncertainty k = 0.496079
        19         7         8        31     9        0.000000        1.329054         3    ;  uncertainty k = 0.352731
        19         7         8        31     9      180.000000        1.656182         4    ;  uncertainty k = 0.214689
        19        11        10        33     9        0.000000        0.193639         1    ;  uncertainty k = 0.180575
        19        11        10        33     9      180.000000        7.024354         2    ;  uncertainty k = 0.450965
        19        11        10        33     9        0.000000        1.408099         3    ;  uncertainty k = 0.245324
        19        11        10        33     9      180.000000        1.607843         4    ;  uncertainty k = 0.255488
        20         6         5        30     9        0.000000        2.078466         1    ;  uncertainty k = 1.213327
        20         6         5        30     9      180.000000       -0.098473         2    ;  uncertainty k = 1.303732
        20         6         5        30     9        0.000000        0.575233         3    ;  uncertainty k = 0.178894
        20         6         5        30     9      180.000000        0.032438         4    ;  uncertainty k = 0.160757
        20         6        24        25     9        0.000000       -1.643709         1    ;  uncertainty k = 1.230643
        20         6        24        25     9      180.000000        4.071410         2    ;  uncertainty k = 1.164445
        20         6        24        25     9        0.000000        0.211905         3    ;  uncertainty k = 0.275003
        20         6        24        25     9      180.000000       -0.026751         4    ;  uncertainty k = 0.169130
        20        21        22        23     9        0.000000        1.485998         1    ;  uncertainty k = 2.201993
        20        21        22        23     9      180.000000       22.725065         2    ;  uncertainty k = 0.308367
        20        21        22        23     9        0.000000       -1.170638         3    ;  uncertainty k = 0.650076
        20        21        22        23     9      180.000000        0.017228         4    ;  uncertainty k = 0.447122
        20        21        22        42     9        0.000000        0.248738         1    ;  uncertainty k = 0.784999
        20        21        22        42     9      180.000000        0.136027         2    ;  uncertainty k = 0.363076
        20        21        22        42     9        0.000000        0.343209         3    ;  uncertainty k = 0.186332
        20        21        22        42     9      180.000000        0.223446         4    ;  uncertainty k = 0.157553
        20        21        22        43     9        0.000000        0.248738         1    ;  uncertainty k = 0.784999
        20        21        22        43     9      180.000000        0.136027         2    ;  uncertainty k = 0.363076
        20        21        22        43     9        0.000000        0.343209         3    ;  uncertainty k = 0.186332
        20        21        22        43     9      180.000000        0.223446         4    ;  uncertainty k = 0.157553
        20        23        22        21     9        0.000000        1.485998         1    ;  uncertainty k = 2.201993
        20        23        22        21     9      180.000000       22.725065         2    ;  uncertainty k = 0.308367
        20        23        22        21     9        0.000000       -1.170638         3    ;  uncertainty k = 0.650076
        20        23        22        21     9      180.000000        0.017228         4    ;  uncertainty k = 0.447122
        20        23        22        42     9        0.000000        0.248738         1    ;  uncertainty k = 0.784999
        20        23        22        42     9      180.000000        0.136027         2    ;  uncertainty k = 0.363076
        20        23        22        42     9        0.000000        0.343209         3    ;  uncertainty k = 0.186332
        20        23        22        42     9      180.000000        0.223446         4    ;  uncertainty k = 0.157553
        20        23        22        43     9        0.000000        0.248738         1    ;  uncertainty k = 0.784999
        20        23        22        43     9      180.000000        0.136027         2    ;  uncertainty k = 0.363076
        20        23        22        43     9        0.000000        0.343209         3    ;  uncertainty k = 0.186332
        20        23        22        43     9      180.000000        0.223446         4    ;  uncertainty k = 0.157553
        21        20         6        24     9        0.000000       -0.685420         1    ;  uncertainty k = 0.816921
        21        20         6        24     9      180.000000       -0.056329         2    ;  uncertainty k = 0.363207
        21        20         6        24     9        0.000000        0.334019         3    ;  uncertainty k = 0.202939
        21        20         6        24     9      180.000000       -0.125059         4    ;  uncertainty k = 0.141948
        21        20        23        22     9        0.000000        1.139914         1    ;  uncertainty k = 2.091594
        21        20        23        22     9      180.000000       19.463627         2    ;  uncertainty k = 0.283476
        21        20        23        22     9        0.000000       -1.325574         3    ;  uncertainty k = 0.641835
        21        20        23        22     9      180.000000        1.517736         4    ;  uncertainty k = 0.374355
        21        20        23        44     9        0.000000        0.273683         1    ;  uncertainty k = 0.621908
        21        20        23        44     9      180.000000        0.346271         2    ;  uncertainty k = 0.326740
        21        20        23        44     9        0.000000        0.305683         3    ;  uncertainty k = 0.175124
        21        20        23        44     9      180.000000        0.199407         4    ;  uncertainty k = 0.170850
        21        20        23        45     9        0.000000        0.273683         1    ;  uncertainty k = 0.621908
        21        20        23        45     9      180.000000        0.346271         2    ;  uncertainty k = 0.326740
        21        20        23        45     9        0.000000        0.305683         3    ;  uncertainty k = 0.175124
        21        20        23        45     9      180.000000        0.199407         4    ;  uncertainty k = 0.170850
        21        22        23        44     9        0.000000        0.043799         1    ;  uncertainty k = 0.929373
        21        22        23        44     9      180.000000        0.403037         2    ;  uncertainty k = 0.246580
        21        22        23        44     9        0.000000        0.460305         3    ;  uncertainty k = 0.284980
        21        22        23        44     9      180.000000        0.306782         4    ;  uncertainty k = 0.203606
        21        22        23        45     9        0.000000        0.043799         1    ;  uncertainty k = 0.929373
        21        22        23        45     9      180.000000        0.403037         2    ;  uncertainty k = 0.246580
        21        22        23        45     9        0.000000        0.460305         3    ;  uncertainty k = 0.284980
        21        22        23        45     9      180.000000        0.306782         4    ;  uncertainty k = 0.203606
        22        21        20        23     9        0.000000        1.139914         1    ;  uncertainty k = 2.091594
        22        21        20        23     9      180.000000       19.463627         2    ;  uncertainty k = 0.283476
        22        21        20        23     9        0.000000       -1.325574         3    ;  uncertainty k = 0.641835
        22        21        20        23     9      180.000000        1.517736         4    ;  uncertainty k = 0.374355
        22        21        20        39     9        0.000000       -0.202108         1    ;  uncertainty k = 0.888047
        22        21        20        39     9      180.000000        1.469449         2    ;  uncertainty k = 0.812214
        22        21        20        39     9        0.000000        0.619826         3    ;  uncertainty k = 0.143711
        22        21        20        39     9      180.000000        0.312736         4    ;  uncertainty k = 0.223039
        22        23        20        39     9        0.000000       -0.202108         1    ;  uncertainty k = 0.888047
        22        23        20        39     9      180.000000        1.469449         2    ;  uncertainty k = 0.812214
        22        23        20        39     9        0.000000        0.619826         3    ;  uncertainty k = 0.143711
        22        23        20        39     9      180.000000        0.312736         4    ;  uncertainty k = 0.223039
        23        20         6        24     9        0.000000       -0.685420         1    ;  uncertainty k = 0.816921
        23        20         6        24     9      180.000000       -0.056329         2    ;  uncertainty k = 0.363207
        23        20         6        24     9        0.000000        0.334019         3    ;  uncertainty k = 0.202939
        23        20         6        24     9      180.000000       -0.125059         4    ;  uncertainty k = 0.141948
        23        20        21        40     9        0.000000        0.273683         1    ;  uncertainty k = 0.621908
        23        20        21        40     9      180.000000        0.346271         2    ;  uncertainty k = 0.326740
        23        20        21        40     9        0.000000        0.305683         3    ;  uncertainty k = 0.175124
        23        20        21        40     9      180.000000        0.199407         4    ;  uncertainty k = 0.170850
        23        20        21        41     9        0.000000        0.273683         1    ;  uncertainty k = 0.621908
        23        20        21        41     9      180.000000        0.346271         2    ;  uncertainty k = 0.326740
        23        20        21        41     9        0.000000        0.305683         3    ;  uncertainty k = 0.175124
        23        20        21        41     9      180.000000        0.199407         4    ;  uncertainty k = 0.170850
        23        22        21        40     9        0.000000        0.043799         1    ;  uncertainty k = 0.929373
        23        22        21        40     9      180.000000        0.403037         2    ;  uncertainty k = 0.246580
        23        22        21        40     9        0.000000        0.460305         3    ;  uncertainty k = 0.284980
        23        22        21        40     9      180.000000        0.306782         4    ;  uncertainty k = 0.203606
        23        22        21        41     9        0.000000        0.043799         1    ;  uncertainty k = 0.929373
        23        22        21        41     9      180.000000        0.403037         2    ;  uncertainty k = 0.246580
        23        22        21        41     9        0.000000        0.460305         3    ;  uncertainty k = 0.284980
        23        22        21        41     9      180.000000        0.306782         4    ;  uncertainty k = 0.203606
        24         2         1        26     9        0.000000        0.282188         1    ;  uncertainty k = 0.417389
        24         2         1        26     9      180.000000        0.071689         2    ;  uncertainty k = 0.232881
        24         2         1        26     9        0.000000        0.346320         3    ;  uncertainty k = 0.213564
        24         2         1        26     9      180.000000        0.305854         4    ;  uncertainty k = 0.056406
        24         2         1        27     9        0.000000        0.282188         1    ;  uncertainty k = 0.417389
        24         2         1        27     9      180.000000        0.071689         2    ;  uncertainty k = 0.232881
        24         2         1        27     9        0.000000        0.346320         3    ;  uncertainty k = 0.213564
        24         2         1        27     9      180.000000        0.305854         4    ;  uncertainty k = 0.056406
        24         2         1        28     9        0.000000        0.282188         1    ;  uncertainty k = 0.417389
        24         2         1        28     9      180.000000        0.071689         2    ;  uncertainty k = 0.232881
        24         2         1        28     9        0.000000        0.346320         3    ;  uncertainty k = 0.213564
        24         2         1        28     9      180.000000        0.305854         4    ;  uncertainty k = 0.056406
        24         6         5        30     9        0.000000        0.071754         1    ;  uncertainty k = 2.692040
        24         6         5        30     9      180.000000       -0.007500         2    ;  uncertainty k = 1.861017
        24         6         5        30     9        0.000000        0.331370         3    ;  uncertainty k = 0.444976
        24         6         5        30     9      180.000000        0.010430         4    ;  uncertainty k = 0.188445
        24         6        20        39     9        0.000000        0.648071         1    ;  uncertainty k = 0.518245
        24         6        20        39     9      180.000000       -0.934802         2    ;  uncertainty k = 0.400117
        24         6        20        39     9        0.000000        0.321872         3    ;  uncertainty k = 0.214725
        24         6        20        39     9      180.000000       -0.089924         4    ;  uncertainty k = 0.082711
        31         8         9        32     9        0.000000       -0.112384         1    ;  uncertainty k = 0.334543
        31         8         9        32     9      180.000000        7.862309         2    ;  uncertainty k = 0.300420
        31         8         9        32     9        0.000000       -0.499833         3    ;  uncertainty k = 0.305481
        31         8         9        32     9      180.000000        0.130568         4    ;  uncertainty k = 0.175199
        32         9        10        33     9        0.000000       -0.099057         1    ;  uncertainty k = 0.195214
        32         9        10        33     9      180.000000        7.958177         2    ;  uncertainty k = 0.293686
        32         9        10        33     9        0.000000       -0.501857         3    ;  uncertainty k = 0.279256
        32         9        10        33     9      180.000000        0.116344         4    ;  uncertainty k = 0.148515
        34        13        14        35     9        0.000000       -0.071839         1    ;  uncertainty k = 0.139578
        34        13        14        35     9      180.000000        7.837294         2    ;  uncertainty k = 0.341150
        34        13        14        35     9        0.000000       -0.474130         3    ;  uncertainty k = 0.274221
        34        13        14        35     9      180.000000        0.116282         4    ;  uncertainty k = 0.133077
        35        14        15        36     9        0.000000       -0.080242         1    ;  uncertainty k = 0.065184
        35        14        15        36     9      180.000000        7.728195         2    ;  uncertainty k = 0.460598
        35        14        15        36     9        0.000000       -0.435761         3    ;  uncertainty k = 0.241594
        35        14        15        36     9      180.000000        0.035510         4    ;  uncertainty k = 0.167623
        39        20        21        40     9        0.000000       -0.336492         1    ;  uncertainty k = 0.511133
        39        20        21        40     9      180.000000       -1.965032         2    ;  uncertainty k = 0.321618
        39        20        21        40     9        0.000000        1.414666         3    ;  uncertainty k = 0.360859
        39        20        21        40     9      180.000000        0.272287         4    ;  uncertainty k = 0.195643
        39        20        21        41     9        0.000000       -0.336492         1    ;  uncertainty k = 0.511133
        39        20        21        41     9      180.000000       -1.965032         2    ;  uncertainty k = 0.321618
        39        20        21        41     9        0.000000        1.414666         3    ;  uncertainty k = 0.360859
        39        20        21        41     9      180.000000        0.272287         4    ;  uncertainty k = 0.195643
        39        20        23        44     9        0.000000       -0.336492         1    ;  uncertainty k = 0.511133
        39        20        23        44     9      180.000000       -1.965032         2    ;  uncertainty k = 0.321618
        39        20        23        44     9        0.000000        1.414666         3    ;  uncertainty k = 0.360859
        39        20        23        44     9      180.000000        0.272287         4    ;  uncertainty k = 0.195643
        39        20        23        45     9        0.000000       -0.336492         1    ;  uncertainty k = 0.511133
        39        20        23        45     9      180.000000       -1.965032         2    ;  uncertainty k = 0.321618
        39        20        23        45     9        0.000000        1.414666         3    ;  uncertainty k = 0.360859
        39        20        23        45     9      180.000000        0.272287         4    ;  uncertainty k = 0.195643
        40        21        22        42     9        0.000000        0.101869         1    ;  uncertainty k = 0.370236
        40        21        22        42     9      180.000000       -1.478057         2    ;  uncertainty k = 0.510329
        40        21        22        42     9        0.000000        1.683808         3    ;  uncertainty k = 0.177602
        40        21        22        42     9      180.000000        0.138302         4    ;  uncertainty k = 0.093452
        40        21        22        43     9        0.000000        0.101869         1    ;  uncertainty k = 0.370236
        40        21        22        43     9      180.000000       -1.478057         2    ;  uncertainty k = 0.510329
        40        21        22        43     9        0.000000        1.683808         3    ;  uncertainty k = 0.177602
        40        21        22        43     9      180.000000        0.138302         4    ;  uncertainty k = 0.093452
        41        21        22        42     9        0.000000        0.101869         1    ;  uncertainty k = 0.370236
        41        21        22        42     9      180.000000       -1.478057         2    ;  uncertainty k = 0.510329
        41        21        22        42     9        0.000000        1.683808         3    ;  uncertainty k = 0.177602
        41        21        22        42     9      180.000000        0.138302         4    ;  uncertainty k = 0.093452
        41        21        22        43     9        0.000000        0.101869         1    ;  uncertainty k = 0.370236
        41        21        22        43     9      180.000000       -1.478057         2    ;  uncertainty k = 0.510329
        41        21        22        43     9        0.000000        1.683808         3    ;  uncertainty k = 0.177602
        41        21        22        43     9      180.000000        0.138302         4    ;  uncertainty k = 0.093452
        42        22        23        44     9        0.000000        0.101869         1    ;  uncertainty k = 0.370236
        42        22        23        44     9      180.000000       -1.478057         2    ;  uncertainty k = 0.510329
        42        22        23        44     9        0.000000        1.683808         3    ;  uncertainty k = 0.177602
        42        22        23        44     9      180.000000        0.138302         4    ;  uncertainty k = 0.093452
        42        22        23        45     9        0.000000        0.101869         1    ;  uncertainty k = 0.370236
        42        22        23        45     9      180.000000       -1.478057         2    ;  uncertainty k = 0.510329
        42        22        23        45     9        0.000000        1.683808         3    ;  uncertainty k = 0.177602
        42        22        23        45     9      180.000000        0.138302         4    ;  uncertainty k = 0.093452
        43        22        23        44     9        0.000000        0.101869         1    ;  uncertainty k = 0.370236
        43        22        23        44     9      180.000000       -1.478057         2    ;  uncertainty k = 0.510329
        43        22        23        44     9        0.000000        1.683808         3    ;  uncertainty k = 0.177602
        43        22        23        44     9      180.000000        0.138302         4    ;  uncertainty k = 0.093452
        43        22        23        45     9        0.000000        0.101869         1    ;  uncertainty k = 0.370236
        43        22        23        45     9      180.000000       -1.478057         2    ;  uncertainty k = 0.510329
        43        22        23        45     9        0.000000        1.683808         3    ;  uncertainty k = 0.177602
        43        22        23        45     9      180.000000        0.138302         4    ;  uncertainty k = 0.093452

[ dihedrals ] ; impropers
;       ai        aj        ak        al funct           phase               k        pn
         2         1         3        24     4      180.000000        1.850984         2    ;  uncertainty k = 0.588503
         2         3        24         1     4      180.000000        1.850984         2    ;  uncertainty k = 0.588503
         2        24         1         3     4      180.000000        1.850984         2    ;  uncertainty k = 0.588503
         3         2         4         5     4      180.000000       30.611977         2    ;  uncertainty k = 0.133301
         3         4         5         2     4      180.000000       30.611977         2    ;  uncertainty k = 0.133301
         3         5         2         4     4      180.000000       30.611977         2    ;  uncertainty k = 0.133301
         4         3        29        46     4      180.000000        0.174594         2    ;  uncertainty k = 0.390405
         4        29        46         3     4      180.000000        0.174594         2    ;  uncertainty k = 0.390405
         4        46         3        29     4      180.000000        0.174594         2    ;  uncertainty k = 0.390405
         7         6         8        19     4      180.000000       10.805987         2    ;  uncertainty k = 0.216330
         7         8        19         6     4      180.000000       10.805987         2    ;  uncertainty k = 0.216330
         7        19         6         8     4      180.000000       10.805987         2    ;  uncertainty k = 0.216330
         8         7         9        31     4      180.000000        3.726603         2    ;  uncertainty k = 0.243182
         8         9        31         7     4      180.000000        3.726603         2    ;  uncertainty k = 0.243182
         8        31         7         9     4      180.000000        3.726603         2    ;  uncertainty k = 0.243182
         9         8        10        32     4      180.000000        3.999618         2    ;  uncertainty k = 0.135945
         9        10        32         8     4      180.000000        3.999618         2    ;  uncertainty k = 0.135945
         9        32         8        10     4      180.000000        3.999618         2    ;  uncertainty k = 0.135945
        10         9        11        33     4      180.000000        4.488276         2    ;  uncertainty k = 0.114651
        10        11        33         9     4      180.000000        4.488276         2    ;  uncertainty k = 0.114651
        10        33         9        11     4      180.000000        4.488276         2    ;  uncertainty k = 0.114651
        11        10        12        19     4      180.000000       15.079337         2    ;  uncertainty k = 0.048211
        11        12        19        10     4      180.000000       15.079337         2    ;  uncertainty k = 0.048211
        11        19        10        12     4      180.000000       15.079337         2    ;  uncertainty k = 0.048211
        12        11        13        18     4      180.000000       14.807046         2    ;  uncertainty k = 0.055946
        12        13        18        11     4      180.000000       14.807046         2    ;  uncertainty k = 0.055946
        12        18        11        13     4      180.000000       14.807046         2    ;  uncertainty k = 0.055946
        13        12        14        34     4      180.000000        3.700190         2    ;  uncertainty k = 0.086941
        13        14        34        12     4      180.000000        3.700190         2    ;  uncertainty k = 0.086941
        13        34        12        14     4      180.000000        3.700190         2    ;  uncertainty k = 0.086941
        14        13        15        35     4      180.000000        4.249201         2    ;  uncertainty k = 0.103732
        14        15        35        13     4      180.000000        4.249201         2    ;  uncertainty k = 0.103732
        14        35        13        15     4      180.000000        4.249201         2    ;  uncertainty k = 0.103732
        15        14        16        36     4      180.000000        3.525381         2    ;  uncertainty k = 0.172936
        15        16        36        14     4      180.000000        3.525381         2    ;  uncertainty k = 0.172936
        15        36        14        16     4      180.000000        3.525381         2    ;  uncertainty k = 0.172936
        16        15        17        18     4      180.000000       13.371882         2    ;  uncertainty k = 0.047246
        16        17        18        15     4      180.000000       13.371882         2    ;  uncertainty k = 0.047246
        16        18        15        17     4      180.000000       13.371882         2    ;  uncertainty k = 0.047246
        18        12        16        37     4      180.000000        3.443516         2    ;  uncertainty k = 0.143384
        18        16        37        12     4      180.000000        3.443516         2    ;  uncertainty k = 0.143384
        18        37        12        16     4      180.000000        3.443516         2    ;  uncertainty k = 0.143384
        19         7        11        38     4      180.000000        4.272448         2    ;  uncertainty k = 0.283576
        19        11        38         7     4      180.000000        4.272448         2    ;  uncertainty k = 0.283576
        19        38         7        11     4      180.000000        4.272448         2    ;  uncertainty k = 0.283576
        24         2         6        25     4      180.000000       50.501991         2    ;  uncertainty k = 0.041663
        24         6        25         2     4      180.000000       50.501991         2    ;  uncertainty k = 0.041663
        24        25         2         6     4      180.000000       50.501991         2    ;  uncertainty k = 0.041663

[ pairs ]
;       ai        aj funct
         1         4     1
         1         5     1
         1         6     1
         1        25     1
         2         7     1
         2        20     1
         2        29     1
         2        30     1
         2        46     1
         3         7     1
         3        20     1
         3        25     1
         3        26     1
         3        27     1
         3        28     1
         4         6     1
         4        24     1
         4        30     1
         5         8     1
         5        19     1
         5        21     1
         5        23     1
         5        25     1
         5        29     1
         5        39     1
         5        46     1
         6         9     1
         6        11     1
         6        22     1
         6        31     1
         6        38     1
         6        40     1
         6        41     1
         6        44     1
         6        45     1
         7        10     1
         7        12     1
         7        21     1
         7        23     1
         7        25     1
         7        30     1
         7        32     1
         7        39     1
         8        11     1
         8        20     1
         8        24     1
         8        33     1
         8        38     1
         9        12     1
         9        19     1
        10        13     1
        10        18     1
        10        31     1
        10        38     1
        11        14     1
        11        16     1
        11        32     1
        11        34     1
        11        37     1
        12        15     1
        12        17     1
        12        33     1
        12        35     1
        12        38     1
        13        16     1
        13        19     1
        13        36     1
        13        37     1
        14        17     1
        14        18     1
        15        34     1
        15        37     1
        16        35     1
        17        36     1
        17        37     1
        18        19     1
        18        34     1
        18        36     1
        19        20     1
        19        24     1
        19        31     1
        19        33     1
        20        25     1
        20        30     1
        20        42     1
        20        43     1
        21        24     1
        21        44     1
        21        45     1
        22        39     1
        23        24     1
        23        40     1
        23        41     1
        24        26     1
        24        27     1
        24        28     1
        24        30     1
        24        39     1
        31        32     1
        32        33     1
        34        35     1
        35        36     1
        39        40     1
        39        41     1
        39        44     1
        39        45     1
        40        42     1
        40        43     1
        41        42     1
        41        43     1
        42        44     1
        42        45     1
        43        44     1
        43        45     1
