; ITP file created by ByteFF-joint-25, 2026-03-14 15:19:10.497143

[ atomtypes ]
;name           bonded.type        at.num        mass        charge   ptype           sigma         epsilon
 c0bf                                   6      0.0000       0.00000       A     3.31493e-01     4.13392e-01    ;  uncertainty sigma = 0.000011, epsilon = 0.000425
 c1bf                                   6      0.0000       0.00000       A     3.31511e-01     4.13435e-01    ;  uncertainty sigma = 0.000006, epsilon = 0.000528
 h2bf                                   1      0.0000       0.00000       A     2.62563e-01     6.71382e-02    ;  uncertainty sigma = 0.000008, epsilon = 0.000500
 c3bf                                   6      0.0000       0.00000       A     3.31523e-01     4.13778e-01    ;  uncertainty sigma = 0.000003, epsilon = 0.000961
 h4bf                                   1      0.0000       0.00000       A     2.62561e-01     6.68067e-02    ;  uncertainty sigma = 0.000012, epsilon = 0.000527
 c5bf                                   6      0.0000       0.00000       A     3.31562e-01     4.13129e-01    ;  uncertainty sigma = 0.000021, epsilon = 0.000953
 c6bf                                   6      0.0000       0.00000       A     3.31604e-01     4.12991e-01    ;  uncertainty sigma = 0.000053, epsilon = 0.001665
 c7bf                                   6      0.0000       0.00000       A     3.31541e-01     4.13363e-01    ;  uncertainty sigma = 0.000018, epsilon = 0.001199
 h8bf                                   1      0.0000       0.00000       A     2.62555e-01     6.73758e-02    ;  uncertainty sigma = 0.000015, epsilon = 0.000633
 o9bf                                   8      0.0000       0.00000       A     3.15675e-01     3.03349e-01    ;  uncertainty sigma = 0.000037, epsilon = 0.000709
 c10bf                                  6      0.0000       0.00000       A     3.39754e-01     4.50298e-01    ;  uncertainty sigma = 0.000022, epsilon = 0.001818
 c11bf                                  6      0.0000       0.00000       A     3.39729e-01     4.51261e-01    ;  uncertainty sigma = 0.000015, epsilon = 0.001388
 h12bf                                  1      0.0000       0.00000       A     2.60113e-01     8.69260e-02    ;  uncertainty sigma = 0.000018, epsilon = 0.001362
 h13bf                                  1      0.0000       0.00000       A     2.60113e-01     8.69260e-02    ;  uncertainty sigma = 0.000018, epsilon = 0.001362
 c14bf                                  6      0.0000       0.00000       A     3.39922e-01     4.52078e-01    ;  uncertainty sigma = 0.000044, epsilon = 0.005050
 c15bf                                  6      0.0000       0.00000       A     3.31534e-01     4.13061e-01    ;  uncertainty sigma = 0.000023, epsilon = 0.000770
 n16bf                                  7      0.0000       0.00000       A     3.18159e-01     6.82058e-01    ;  uncertainty sigma = 0.000074, epsilon = 0.006526
 c17bf                                  6      0.0000       0.00000       A     3.31516e-01     4.13029e-01    ;  uncertainty sigma = 0.000046, epsilon = 0.002102
 n18bf                                  7      0.0000       0.00000       A     3.27895e-01     6.51183e-01    ;  uncertainty sigma = 0.000198, epsilon = 0.011723
 h19bf                                  1      0.0000       0.00000       A     1.10796e-01     4.19443e-02    ;  uncertainty sigma = 0.000445, epsilon = 0.001840
 c20bf                                  6      0.0000       0.00000       A     3.31519e-01     4.13340e-01    ;  uncertainty sigma = 0.000008, epsilon = 0.000522
 c21bf                                  6      0.0000       0.00000       A     3.39747e-01     4.51374e-01    ;  uncertainty sigma = 0.000011, epsilon = 0.001160
 h22bf                                  1      0.0000       0.00000       A     2.42212e-01     8.67416e-02    ;  uncertainty sigma = 0.000033, epsilon = 0.000677
 h23bf                                  1      0.0000       0.00000       A     2.42212e-01     8.67416e-02    ;  uncertainty sigma = 0.000033, epsilon = 0.000677
 h24bf                                  1      0.0000       0.00000       A     2.42212e-01     8.67416e-02    ;  uncertainty sigma = 0.000033, epsilon = 0.000677
 n25bf                                  7      0.0000       0.00000       A     3.36518e-01     4.71691e-01    ;  uncertainty sigma = 0.000108, epsilon = 0.006012
 h26bf                                  1      0.0000       0.00000       A     1.10696e-01     4.11175e-02    ;  uncertainty sigma = 0.000127, epsilon = 0.001410
 h27bf                                  1      0.0000       0.00000       A     1.10696e-01     4.11175e-02    ;  uncertainty sigma = 0.000127, epsilon = 0.001410
 c28bf                                  6      0.0000       0.00000       A     3.31514e-01     4.13268e-01    ;  uncertainty sigma = 0.000005, epsilon = 0.000642
 h29bf                                  1      0.0000       0.00000       A     2.62562e-01     6.70410e-02    ;  uncertainty sigma = 0.000012, epsilon = 0.000507
 c30bf                                  6      0.0000       0.00000       A     3.31520e-01     4.13375e-01    ;  uncertainty sigma = 0.000002, epsilon = 0.000634
 h31bf                                  1      0.0000       0.00000       A     2.62559e-01     6.70251e-02    ;  uncertainty sigma = 0.000010, epsilon = 0.000440
 c32bf                                  6      0.0000       0.00000       A     3.31518e-01     4.13340e-01    ;  uncertainty sigma = 0.000003, epsilon = 0.000579
 h33bf                                  1      0.0000       0.00000       A     2.62552e-01     6.70645e-02    ;  uncertainty sigma = 0.000011, epsilon = 0.000453
 c34bf                                  6      0.0000       0.00000       A     3.31520e-01     4.13375e-01    ;  uncertainty sigma = 0.000002, epsilon = 0.000634
 h35bf                                  1      0.0000       0.00000       A     2.62559e-01     6.70250e-02    ;  uncertainty sigma = 0.000010, epsilon = 0.000440
 c36bf                                  6      0.0000       0.00000       A     3.31514e-01     4.13268e-01    ;  uncertainty sigma = 0.000005, epsilon = 0.000641
 h37bf                                  1      0.0000       0.00000       A     2.62562e-01     6.70409e-02    ;  uncertainty sigma = 0.000012, epsilon = 0.000507
 o38bf                                  8      0.0000       0.00000       A     3.04746e-01     6.12575e-01    ;  uncertainty sigma = 0.000054, epsilon = 0.002454
 c39bf                                  6      0.0000       0.00000       A     3.39769e-01     4.50351e-01    ;  uncertainty sigma = 0.000003, epsilon = 0.001331
 h40bf                                  1      0.0000       0.00000       A     2.60031e-01     8.68009e-02    ;  uncertainty sigma = 0.000006, epsilon = 0.000320
 h41bf                                  1      0.0000       0.00000       A     2.60031e-01     8.68009e-02    ;  uncertainty sigma = 0.000006, epsilon = 0.000320
 h42bf                                  1      0.0000       0.00000       A     2.60031e-01     8.68009e-02    ;  uncertainty sigma = 0.000006, epsilon = 0.000320
 c43bf                                  6      0.0000       0.00000       A     3.39769e-01     4.50351e-01    ;  uncertainty sigma = 0.000003, epsilon = 0.001331
 h44bf                                  1      0.0000       0.00000       A     2.60031e-01     8.68009e-02    ;  uncertainty sigma = 0.000006, epsilon = 0.000320
 h45bf                                  1      0.0000       0.00000       A     2.60031e-01     8.68009e-02    ;  uncertainty sigma = 0.000006, epsilon = 0.000320
 h46bf                                  1      0.0000       0.00000       A     2.60031e-01     8.68009e-02    ;  uncertainty sigma = 0.000006, epsilon = 0.000320

[ moleculetype ]
;name             nrexcl
 MOL                   3

[ atoms ]
;       nr            type      resi   res      atom      cgnr      charge          mass ; qtot
         1            c0bf         1   UNL        c0         1    -0.03016       12.0110 ; qtot   -0.030
         2            c1bf         1   UNL        c1         2    -0.06828       12.0110 ; qtot   -0.098
         3            h2bf         1   UNL        h2         3     0.13936        1.0080 ; qtot    0.041
         4            c3bf         1   UNL        c3         4    -0.14994       12.0110 ; qtot   -0.109
         5            h4bf         1   UNL        h4         5     0.15718        1.0080 ; qtot    0.048
         6            c5bf         1   UNL        c5         6     0.18249       12.0110 ; qtot    0.231
         7            c6bf         1   UNL        c6         7    -0.20467       12.0110 ; qtot    0.026
         8            c7bf         1   UNL        c7         8    -0.06644       12.0110 ; qtot   -0.040
         9            h8bf         1   UNL        h8         9     0.14970        1.0080 ; qtot    0.109
        10            o9bf         1   UNL        o9        10    -0.32527       15.9990 ; qtot   -0.216
        11           c10bf         1   UNL       c10        11     0.16563       12.0110 ; qtot   -0.050
        12           c11bf         1   UNL       c11        12    -0.09875       12.0110 ; qtot   -0.149
        13           h12bf         1   UNL       h12        13     0.09101        1.0080 ; qtot   -0.058
        14           h13bf         1   UNL       h13        14     0.09101        1.0080 ; qtot    0.033
        15           c14bf         1   UNL       c14        15     0.04015       12.0110 ; qtot    0.073
        16           c15bf         1   UNL       c15        16     0.70447       12.0110 ; qtot    0.777
        17           n16bf         1   UNL       n16        17    -0.41729       14.0070 ; qtot    0.360
        18           c17bf         1   UNL       c17        18     0.47248       12.0110 ; qtot    0.833
        19           n18bf         1   UNL       n18        19    -0.37461       14.0070 ; qtot    0.458
        20           h19bf         1   UNL       h19        20     0.35504        1.0080 ; qtot    0.813
        21           c20bf         1   UNL       c20        21    -0.04763       12.0110 ; qtot    0.765
        22           c21bf         1   UNL       c21        22     0.07530       12.0110 ; qtot    0.841
        23           h22bf         1   UNL       h22        23     0.09109        1.0080 ; qtot    0.932
        24           h23bf         1   UNL       h23        24     0.09109        1.0080 ; qtot    1.023
        25           h24bf         1   UNL       h24        25     0.09109        1.0080 ; qtot    1.114
        26           n25bf         1   UNL       n25        26    -0.48596       14.0070 ; qtot    0.628
        27           h26bf         1   UNL       h26        27     0.33929        1.0080 ; qtot    0.967
        28           h27bf         1   UNL       h27        28     0.33929        1.0080 ; qtot    1.307
        29           c28bf         1   UNL       c28        29    -0.11813       12.0110 ; qtot    1.189
        30           h29bf         1   UNL       h29        30     0.13411        1.0080 ; qtot    1.323
        31           c30bf         1   UNL       c30        31    -0.13193       12.0110 ; qtot    1.191
        32           h31bf         1   UNL       h31        32     0.13308        1.0080 ; qtot    1.324
        33           c32bf         1   UNL       c32        33    -0.12215       12.0110 ; qtot    1.202
        34           h33bf         1   UNL       h33        34     0.13373        1.0080 ; qtot    1.335
        35           c34bf         1   UNL       c34        35    -0.13193       12.0110 ; qtot    1.203
        36           h35bf         1   UNL       h35        36     0.13308        1.0080 ; qtot    1.337
        37           c36bf         1   UNL       c36        37    -0.11813       12.0110 ; qtot    1.218
        38           h37bf         1   UNL       h37        38     0.13411        1.0080 ; qtot    1.353
        39           o38bf         1   UNL       o38        39    -0.45182       15.9990 ; qtot    0.901
        40           c39bf         1   UNL       c39        40    -0.10337       12.0110 ; qtot    0.797
        41           h40bf         1   UNL       h40        41     0.05101        1.0080 ; qtot    0.848
        42           h41bf         1   UNL       h41        42     0.05101        1.0080 ; qtot    0.899
        43           h42bf         1   UNL       h42        43     0.05101        1.0080 ; qtot    0.950
        44           c43bf         1   UNL       c43        44    -0.10337       12.0110 ; qtot    0.847
        45           h44bf         1   UNL       h44        45     0.05101        1.0080 ; qtot    0.898
        46           h45bf         1   UNL       h45        46     0.05101        1.0080 ; qtot    0.949
        47           h46bf         1   UNL       h46        47     0.05100        1.0080 ; qtot    1.000

[ bonds ]
;       ai        aj funct               r               k
         1         2     1        0.140381   345302.169531    ;  uncertainty r = 0.000047, k = 3.642980
         1         8     1        0.139623   338284.418652    ;  uncertainty r = 0.000097, k = 6.334857
         1        21     1        0.147837   271225.731494    ;  uncertainty r = 0.000091, k = 2.983426
         2         3     1        0.108747   334332.550977    ;  uncertainty r = 0.000025, k = 1.658246
         2         4     1        0.138720   376507.214795    ;  uncertainty r = 0.000065, k = 3.290766
         4         5     1        0.108788   336617.637061    ;  uncertainty r = 0.000017, k = 1.411956
         4         6     1        0.140086   362230.540576    ;  uncertainty r = 0.000052, k = 3.404710
         6         7     1        0.139987   328983.803418    ;  uncertainty r = 0.000163, k = 7.293716
         6        10     1        0.136368   303578.797510    ;  uncertainty r = 0.000194, k = 10.538317
         7         8     1        0.139607   346320.921436    ;  uncertainty r = 0.000123, k = 6.940488
         7        15     1        0.150678   205784.156250    ;  uncertainty r = 0.000110, k = 20.274094
         8         9     1        0.108767   335454.804785    ;  uncertainty r = 0.000067, k = 4.149507
        10        11     1        0.145422   203859.641382    ;  uncertainty r = 0.000221, k = 9.275520
        11        12     1        0.152936   192803.911694    ;  uncertainty r = 0.000262, k = 11.274596
        11        40     1        0.152325   205847.654272    ;  uncertainty r = 0.000037, k = 5.592256
        11        44     1        0.152325   205847.654272    ;  uncertainty r = 0.000037, k = 5.592256
        12        13     1        0.109477   309561.503809    ;  uncertainty r = 0.000048, k = 2.448473
        12        14     1        0.109477   309561.503809    ;  uncertainty r = 0.000048, k = 2.448473
        12        15     1        0.153041   191194.026782    ;  uncertainty r = 0.000126, k = 21.513846
        15        16     1        0.153598   171646.122900    ;  uncertainty r = 0.000173, k = 14.753170
        15        19     1        0.149698   232215.907178    ;  uncertainty r = 0.000407, k = 51.570456
        16        17     1        0.142413   302839.344971    ;  uncertainty r = 0.000236, k = 75.996174
        16        39     1        0.120112   608584.455469    ;  uncertainty r = 0.000161, k = 10.569144
        17        18     1        0.135836   286250.770703    ;  uncertainty r = 0.000260, k = 52.766102
        17        22     1        0.146741   261825.572607    ;  uncertainty r = 0.000154, k = 17.700649
        18        19     1        0.133610   531287.609180    ;  uncertainty r = 0.000191, k = 37.526813
        18        26     1        0.133101   320485.564160    ;  uncertainty r = 0.000146, k = 40.823703
        19        20     1        0.101578   423262.955127    ;  uncertainty r = 0.000083, k = 11.557068
        21        29     1        0.140295   344499.972314    ;  uncertainty r = 0.000014, k = 2.778071
        21        37     1        0.140295   344500.023389    ;  uncertainty r = 0.000014, k = 2.778077
        22        23     1        0.109172   309495.286084    ;  uncertainty r = 0.000053, k = 3.597993
        22        24     1        0.109172   309495.286084    ;  uncertainty r = 0.000053, k = 3.597993
        22        25     1        0.109172   309495.286084    ;  uncertainty r = 0.000053, k = 3.597993
        26        27     1        0.101405   421785.735498    ;  uncertainty r = 0.000064, k = 13.590763
        26        28     1        0.101405   421785.735498    ;  uncertainty r = 0.000064, k = 13.590763
        29        30     1        0.108843   334921.487793    ;  uncertainty r = 0.000021, k = 0.850269
        29        31     1        0.139483   365898.078076    ;  uncertainty r = 0.000026, k = 1.632690
        31        32     1        0.108846   333796.297217    ;  uncertainty r = 0.000013, k = 0.671768
        31        33     1        0.139635   371417.694434    ;  uncertainty r = 0.000019, k = 0.651008
        33        34     1        0.108841   334518.869727    ;  uncertainty r = 0.000012, k = 0.635578
        33        35     1        0.139635   371417.694434    ;  uncertainty r = 0.000019, k = 0.651004
        35        36     1        0.108846   333796.297217    ;  uncertainty r = 0.000013, k = 0.671761
        35        37     1        0.139483   365898.078076    ;  uncertainty r = 0.000026, k = 1.632687
        37        38     1        0.108843   334921.487793    ;  uncertainty r = 0.000021, k = 0.850254
        40        41     1        0.109545   310467.177393    ;  uncertainty r = 0.000018, k = 1.787242
        40        42     1        0.109545   310467.177393    ;  uncertainty r = 0.000018, k = 1.787242
        40        43     1        0.109545   310467.177393    ;  uncertainty r = 0.000018, k = 1.787242
        44        45     1        0.109545   310467.177393    ;  uncertainty r = 0.000018, k = 1.787242
        44        46     1        0.109545   310467.151855    ;  uncertainty r = 0.000018, k = 1.787227
        44        47     1        0.109545   310467.177393    ;  uncertainty r = 0.000018, k = 1.787234

[ angles ]
;       ai        aj        ak funct           theta             cth
         1         2         3     1      119.021996      278.072435    ;  uncertainty theta = 0.000573, k = 0.103008
         1         2         4     1      120.584045      528.921896    ;  uncertainty theta = 0.003185, k = 0.079250
         1         8         7     1      123.270126      508.640292    ;  uncertainty theta = 0.004752, k = 0.245535
         1         8         9     1      118.933495      283.428620    ;  uncertainty theta = 0.002796, k = 0.021710
         1        21        29     1      120.337379      412.206102    ;  uncertainty theta = 0.002237, k = 0.015814
         1        21        37     1      120.337379      412.206102    ;  uncertainty theta = 0.002237, k = 0.015814
         2         1         8     1      119.117775      424.165545    ;  uncertainty theta = 0.003355, k = 0.159404
         2         1        21     1      121.393738      418.821203    ;  uncertainty theta = 0.001294, k = 0.130816
         2         4         5     1      121.420326      280.298154    ;  uncertainty theta = 0.001178, k = 0.034437
         2         4         6     1      119.575096      505.135962    ;  uncertainty theta = 0.002692, k = 0.150532
         3         2         4     1      119.338806      289.601067    ;  uncertainty theta = 0.001318, k = 0.062224
         4         6         7     1      120.988113      370.564749    ;  uncertainty theta = 0.002805, k = 0.132341
         4         6        10     1      118.414932      539.304551    ;  uncertainty theta = 0.003186, k = 0.119404
         5         4         6     1      120.029160      275.838512    ;  uncertainty theta = 0.003388, k = 0.140058
         6         7         8     1      121.646706      436.471335    ;  uncertainty theta = 0.004275, k = 0.120813
         6         7        15     1      120.067566      415.396868    ;  uncertainty theta = 0.008782, k = 0.219694
         6        10        11     1      114.537888      453.333553    ;  uncertainty theta = 0.006687, k = 0.093698
         7         6        10     1      123.896896      494.205441    ;  uncertainty theta = 0.004024, k = 0.262919
         7         8         9     1      117.552780      269.249044    ;  uncertainty theta = 0.003488, k = 0.141356
         7        15        12     1      110.372864      539.933530    ;  uncertainty theta = 0.001408, k = 0.155688
         7        15        16     1      108.946983      466.381260    ;  uncertainty theta = 0.003845, k = 0.382761
         7        15        19     1      110.459412      616.078039    ;  uncertainty theta = 0.004076, k = 0.312915
         8         1        21     1      120.392906      412.398205    ;  uncertainty theta = 0.001980, k = 0.214678
         8         7        15     1      118.179955      406.555665    ;  uncertainty theta = 0.004331, k = 0.175151
        10        11        12     1      109.104774      651.855785    ;  uncertainty theta = 0.004859, k = 0.084503
        10        11        40     1      107.605125      619.338362    ;  uncertainty theta = 0.001081, k = 0.064685
        10        11        44     1      107.605125      619.338362    ;  uncertainty theta = 0.001081, k = 0.064685
        11        12        13     1      107.678444      386.201185    ;  uncertainty theta = 0.003165, k = 0.032000
        11        12        14     1      107.678444      386.201185    ;  uncertainty theta = 0.003165, k = 0.032000
        11        12        15     1      109.859573      530.089421    ;  uncertainty theta = 0.006963, k = 0.198376
        11        40        41     1      107.221069      387.594393    ;  uncertainty theta = 0.001065, k = 0.069193
        11        40        42     1      107.221069      387.594393    ;  uncertainty theta = 0.001065, k = 0.069193
        11        40        43     1      107.221069      387.594393    ;  uncertainty theta = 0.001065, k = 0.069193
        11        44        45     1      107.221069      387.594393    ;  uncertainty theta = 0.001065, k = 0.069193
        11        44        46     1      107.221069      387.594393    ;  uncertainty theta = 0.001065, k = 0.069193
        11        44        47     1      107.221069      387.594393    ;  uncertainty theta = 0.001065, k = 0.069193
        12        11        40     1      109.374954      548.046988    ;  uncertainty theta = 0.004356, k = 0.115347
        12        11        44     1      109.374954      548.046988    ;  uncertainty theta = 0.004356, k = 0.115347
        12        15        16     1      107.815041      449.614456    ;  uncertainty theta = 0.007030, k = 0.162708
        12        15        19     1      109.812546      627.822301    ;  uncertainty theta = 0.007991, k = 0.271564
        13        12        14     1      106.986496      321.844700    ;  uncertainty theta = 0.004263, k = 0.066652
        13        12        15     1      106.651634      397.354709    ;  uncertainty theta = 0.003140, k = 0.080198
        14        12        15     1      106.651634      397.354709    ;  uncertainty theta = 0.003140, k = 0.080198
        15        16        17     1      110.177444      536.173382    ;  uncertainty theta = 0.011689, k = 0.712083
        15        16        39     1      125.836937      424.636737    ;  uncertainty theta = 0.006696, k = 0.210364
        15        19        18     1      111.019447      602.235713    ;  uncertainty theta = 0.016031, k = 0.385577
        15        19        20     1      118.127907      280.649416    ;  uncertainty theta = 0.015278, k = 0.121870
        16        15        19     1      103.837784      815.585174    ;  uncertainty theta = 0.012174, k = 0.852513
        16        17        18     1      110.293701      728.609291    ;  uncertainty theta = 0.010426, k = 0.320486
        16        17        22     1      119.398109      397.513773    ;  uncertainty theta = 0.006832, k = 0.281808
        17        16        39     1      125.307961      629.051912    ;  uncertainty theta = 0.008036, k = 0.165829
        17        18        19     1      113.250023      720.106327    ;  uncertainty theta = 0.006756, k = 0.305315
        17        18        26     1      125.598953      549.524885    ;  uncertainty theta = 0.008546, k = 0.324469
        17        22        23     1      107.360855      470.851946    ;  uncertainty theta = 0.002522, k = 0.203983
        17        22        24     1      107.360855      470.851946    ;  uncertainty theta = 0.002522, k = 0.203983
        17        22        25     1      107.360855      470.851946    ;  uncertainty theta = 0.002522, k = 0.203983
        18        17        22     1      118.646042      371.786540    ;  uncertainty theta = 0.007230, k = 0.373049
        18        19        20     1      119.824707      355.581520    ;  uncertainty theta = 0.006083, k = 0.153034
        18        26        27     1      114.903091      371.138312    ;  uncertainty theta = 0.001582, k = 0.210952
        18        26        28     1      114.903091      371.138312    ;  uncertainty theta = 0.001582, k = 0.210952
        19        18        26     1      128.730377      637.313550    ;  uncertainty theta = 0.008927, k = 0.256741
        21        29        30     1      119.072281      279.061455    ;  uncertainty theta = 0.001628, k = 0.049329
        21        29        31     1      120.981117      523.368660    ;  uncertainty theta = 0.001622, k = 0.042234
        21        37        35     1      120.981117      523.368692    ;  uncertainty theta = 0.001622, k = 0.042234
        21        37        38     1      119.072281      279.061455    ;  uncertainty theta = 0.001628, k = 0.049329
        23        22        24     1      107.634499      325.466948    ;  uncertainty theta = 0.003233, k = 0.098676
        23        22        25     1      107.634499      325.466948    ;  uncertainty theta = 0.003233, k = 0.098676
        24        22        25     1      107.634499      325.466948    ;  uncertainty theta = 0.003233, k = 0.098676
        27        26        28     1      112.323524      263.743259    ;  uncertainty theta = 0.015210, k = 0.362876
        29        21        37     1      119.993546      419.696870    ;  uncertainty theta = 0.003166, k = 0.107569
        29        31        32     1      120.155777      284.454478    ;  uncertainty theta = 0.001315, k = 0.011851
        29        31        33     1      119.773582      515.332834    ;  uncertainty theta = 0.001343, k = 0.013114
        30        29        31     1      120.270752      293.338455    ;  uncertainty theta = 0.001046, k = 0.019820
        31        33        34     1      120.637001      288.903585    ;  uncertainty theta = 0.001584, k = 0.007453
        31        33        35     1      118.290138      528.095164    ;  uncertainty theta = 0.001610, k = 0.009475
        32        31        33     1      120.625977      288.164254    ;  uncertainty theta = 0.001231, k = 0.016572
        33        35        36     1      120.625977      288.164254    ;  uncertainty theta = 0.001231, k = 0.016572
        33        35        37     1      119.773582      515.332834    ;  uncertainty theta = 0.001343, k = 0.013114
        34        33        35     1      120.636986      288.903585    ;  uncertainty theta = 0.001584, k = 0.007453
        35        37        38     1      120.270752      293.338455    ;  uncertainty theta = 0.001046, k = 0.019820
        36        35        37     1      120.155777      284.454542    ;  uncertainty theta = 0.001315, k = 0.011851
        40        11        44     1      110.900230      580.347218    ;  uncertainty theta = 0.002949, k = 0.067890
        41        40        42     1      106.043396      316.610518    ;  uncertainty theta = 0.000878, k = 0.018252
        41        40        43     1      106.043396      316.610518    ;  uncertainty theta = 0.000878, k = 0.018252
        42        40        43     1      106.043396      316.610518    ;  uncertainty theta = 0.000878, k = 0.018252
        45        44        46     1      106.043396      316.610518    ;  uncertainty theta = 0.000878, k = 0.018252
        45        44        47     1      106.043396      316.610518    ;  uncertainty theta = 0.000878, k = 0.018252
        46        44        47     1      106.043396      316.610518    ;  uncertainty theta = 0.000878, k = 0.018252

[ dihedrals ] ; propers for gromacs 4.5 or higher, use funct 9
;       ai        aj        ak        al funct           phase               k        pn
         1         2         4         5     9        0.000000        0.057858         1    ;  uncertainty k = 0.057905
         1         2         4         5     9      180.000000        8.382353         2    ;  uncertainty k = 0.437823
         1         2         4         5     9        0.000000        1.358877         3    ;  uncertainty k = 0.283959
         1         2         4         5     9      180.000000        1.907803         4    ;  uncertainty k = 0.250626
         1         2         4         6     9        0.000000       -0.060633         1    ;  uncertainty k = 0.388586
         1         2         4         6     9      180.000000       14.215589         2    ;  uncertainty k = 0.237350
         1         2         4         6     9        0.000000       -0.338184         3    ;  uncertainty k = 0.407876
         1         2         4         6     9      180.000000        0.927780         4    ;  uncertainty k = 0.222873
         1         8         7         6     9        0.000000       -0.302413         1    ;  uncertainty k = 0.192299
         1         8         7         6     9      180.000000       11.018186         2    ;  uncertainty k = 0.455456
         1         8         7         6     9        0.000000       -0.049794         3    ;  uncertainty k = 0.115731
         1         8         7         6     9      180.000000        1.155561         4    ;  uncertainty k = 0.327579
         1         8         7        15     9        0.000000        0.403228         1    ;  uncertainty k = 0.248011
         1         8         7        15     9      180.000000        8.863890         2    ;  uncertainty k = 0.410786
         1         8         7        15     9        0.000000        1.647694         3    ;  uncertainty k = 0.210552
         1         8         7        15     9      180.000000        1.928260         4    ;  uncertainty k = 0.364825
         1        21        29        30     9        0.000000       -0.262026         1    ;  uncertainty k = 0.303911
         1        21        29        30     9      180.000000        7.145949         2    ;  uncertainty k = 0.424785
         1        21        29        30     9        0.000000        0.820236         3    ;  uncertainty k = 0.134504
         1        21        29        30     9      180.000000        1.165259         4    ;  uncertainty k = 0.210590
         1        21        29        31     9        0.000000       -0.051458         1    ;  uncertainty k = 0.215217
         1        21        29        31     9      180.000000        8.739415         2    ;  uncertainty k = 0.524322
         1        21        29        31     9        0.000000        1.213382         3    ;  uncertainty k = 0.401602
         1        21        29        31     9      180.000000        1.758881         4    ;  uncertainty k = 0.138791
         1        21        37        35     9        0.000000       -0.051458         1    ;  uncertainty k = 0.215217
         1        21        37        35     9      180.000000        8.739415         2    ;  uncertainty k = 0.524323
         1        21        37        35     9        0.000000        1.213382         3    ;  uncertainty k = 0.401602
         1        21        37        35     9      180.000000        1.758881         4    ;  uncertainty k = 0.138790
         1        21        37        38     9        0.000000       -0.262026         1    ;  uncertainty k = 0.303911
         1        21        37        38     9      180.000000        7.145949         2    ;  uncertainty k = 0.424785
         1        21        37        38     9        0.000000        0.820236         3    ;  uncertainty k = 0.134504
         1        21        37        38     9      180.000000        1.165260         4    ;  uncertainty k = 0.210590
         2         1         8         7     9        0.000000        0.208226         1    ;  uncertainty k = 0.503365
         2         1         8         7     9      180.000000       10.461306         2    ;  uncertainty k = 0.396416
         2         1         8         7     9        0.000000       -0.138057         3    ;  uncertainty k = 0.314509
         2         1         8         7     9      180.000000        1.177442         4    ;  uncertainty k = 0.391299
         2         1         8         9     9        0.000000        0.147764         1    ;  uncertainty k = 0.290765
         2         1         8         9     9      180.000000        7.407617         2    ;  uncertainty k = 0.624851
         2         1         8         9     9        0.000000        1.354061         3    ;  uncertainty k = 0.196497
         2         1         8         9     9      180.000000        1.671471         4    ;  uncertainty k = 0.258063
         2         1        21        29     9        0.000000       -0.373015         1    ;  uncertainty k = 0.364889
         2         1        21        29     9      180.000000        4.026161         2    ;  uncertainty k = 0.075635
         2         1        21        29     9        0.000000        0.332123         3    ;  uncertainty k = 0.126848
         2         1        21        29     9      180.000000       -0.029213         4    ;  uncertainty k = 0.024452
         2         1        21        37     9        0.000000       -0.373015         1    ;  uncertainty k = 0.364889
         2         1        21        37     9      180.000000        4.026162         2    ;  uncertainty k = 0.075634
         2         1        21        37     9        0.000000        0.332122         3    ;  uncertainty k = 0.126847
         2         1        21        37     9      180.000000       -0.029213         4    ;  uncertainty k = 0.024452
         2         4         6         7     9        0.000000        0.214863         1    ;  uncertainty k = 0.437118
         2         4         6         7     9      180.000000        7.808154         2    ;  uncertainty k = 0.549355
         2         4         6         7     9        0.000000        0.200021         3    ;  uncertainty k = 0.543484
         2         4         6         7     9      180.000000        1.302184         4    ;  uncertainty k = 0.240864
         2         4         6        10     9        0.000000        0.371444         1    ;  uncertainty k = 0.218852
         2         4         6        10     9      180.000000       11.420675         2    ;  uncertainty k = 0.283685
         2         4         6        10     9        0.000000        1.317991         3    ;  uncertainty k = 0.223096
         2         4         6        10     9      180.000000        1.545231         4    ;  uncertainty k = 0.131504
         3         2         1         8     9        0.000000        0.189386         1    ;  uncertainty k = 0.277795
         3         2         1         8     9      180.000000        6.772453         2    ;  uncertainty k = 0.482299
         3         2         1         8     9        0.000000        1.321265         3    ;  uncertainty k = 0.248878
         3         2         1         8     9      180.000000        1.545798         4    ;  uncertainty k = 0.273469
         3         2         1        21     9        0.000000       -0.212509         1    ;  uncertainty k = 0.378972
         3         2         1        21     9      180.000000        7.144679         2    ;  uncertainty k = 0.372678
         3         2         1        21     9        0.000000        0.807435         3    ;  uncertainty k = 0.147828
         3         2         1        21     9      180.000000        1.159937         4    ;  uncertainty k = 0.185253
         3         2         4         5     9        0.000000        0.025279         1    ;  uncertainty k = 0.361523
         3         2         4         5     9      180.000000        7.978306         2    ;  uncertainty k = 0.296130
         3         2         4         5     9        0.000000       -0.407095         3    ;  uncertainty k = 0.351032
         3         2         4         5     9      180.000000        0.202278         4    ;  uncertainty k = 0.133160
         3         2         4         6     9        0.000000        0.287758         1    ;  uncertainty k = 0.249638
         3         2         4         6     9      180.000000        8.768124         2    ;  uncertainty k = 0.408739
         3         2         4         6     9        0.000000        1.325866         3    ;  uncertainty k = 0.304196
         3         2         4         6     9      180.000000        1.727245         4    ;  uncertainty k = 0.217766
         4         2         1         8     9        0.000000        0.069917         1    ;  uncertainty k = 0.285260
         4         2         1         8     9      180.000000       10.527515         2    ;  uncertainty k = 0.256135
         4         2         1         8     9        0.000000       -0.391742         3    ;  uncertainty k = 0.269001
         4         2         1         8     9      180.000000        1.040864         4    ;  uncertainty k = 0.182002
         4         2         1        21     9        0.000000        0.036120         1    ;  uncertainty k = 0.267948
         4         2         1        21     9      180.000000        8.363604         2    ;  uncertainty k = 0.542154
         4         2         1        21     9        0.000000        1.087315         3    ;  uncertainty k = 0.419866
         4         2         1        21     9      180.000000        1.790968         4    ;  uncertainty k = 0.151956
         4         6         7         8     9        0.000000       -0.024302         1    ;  uncertainty k = 0.185564
         4         6         7         8     9      180.000000        6.939175         2    ;  uncertainty k = 0.467225
         4         6         7         8     9        0.000000        0.361257         3    ;  uncertainty k = 0.294715
         4         6         7         8     9      180.000000        1.357296         4    ;  uncertainty k = 0.258045
         4         6         7        15     9        0.000000        0.348935         1    ;  uncertainty k = 0.173791
         4         6         7        15     9      180.000000        5.007786         2    ;  uncertainty k = 0.411251
         4         6         7        15     9        0.000000        1.468368         3    ;  uncertainty k = 0.261774
         4         6         7        15     9      180.000000        1.669236         4    ;  uncertainty k = 0.209865
         4         6        10        11     9        0.000000       -0.006126         1    ;  uncertainty k = 0.860183
         4         6        10        11     9      180.000000        1.463692         2    ;  uncertainty k = 0.468672
         4         6        10        11     9        0.000000        0.942767         3    ;  uncertainty k = 0.141382
         4         6        10        11     9      180.000000        0.269400         4    ;  uncertainty k = 0.169428
         5         4         6         7     9        0.000000        0.319226         1    ;  uncertainty k = 0.558349
         5         4         6         7     9      180.000000        5.772399         2    ;  uncertainty k = 0.428881
         5         4         6         7     9        0.000000        1.337220         3    ;  uncertainty k = 0.195636
         5         4         6         7     9      180.000000        1.401976         4    ;  uncertainty k = 0.132735
         5         4         6        10     9        0.000000       -0.143362         1    ;  uncertainty k = 0.595170
         5         4         6        10     9      180.000000        8.971333         2    ;  uncertainty k = 0.422660
         5         4         6        10     9        0.000000        0.767158         3    ;  uncertainty k = 0.278987
         5         4         6        10     9      180.000000        1.249859         4    ;  uncertainty k = 0.280971
         6         7         8         9     9        0.000000        0.261142         1    ;  uncertainty k = 0.444638
         6         7         8         9     9      180.000000        7.886567         2    ;  uncertainty k = 0.701412
         6         7         8         9     9        0.000000        1.275188         3    ;  uncertainty k = 0.213636
         6         7         8         9     9      180.000000        1.656070         4    ;  uncertainty k = 0.156100
         6         7        15        12     9        0.000000       -0.553827         1    ;  uncertainty k = 1.466850
         6         7        15        12     9      180.000000        0.634513         2    ;  uncertainty k = 0.585096
         6         7        15        12     9        0.000000        0.297861         3    ;  uncertainty k = 0.330860
         6         7        15        12     9      180.000000        0.274107         4    ;  uncertainty k = 0.208342
         6         7        15        16     9        0.000000        2.102711         1    ;  uncertainty k = 2.528116
         6         7        15        16     9      180.000000        0.546699         2    ;  uncertainty k = 1.018066
         6         7        15        16     9        0.000000        0.457521         3    ;  uncertainty k = 0.289759
         6         7        15        16     9      180.000000        0.336866         4    ;  uncertainty k = 0.183129
         6         7        15        19     9        0.000000       -1.847814         1    ;  uncertainty k = 1.697255
         6         7        15        19     9      180.000000        1.430867         2    ;  uncertainty k = 0.383929
         6         7        15        19     9        0.000000        0.601224         3    ;  uncertainty k = 0.476577
         6         7        15        19     9      180.000000        0.025936         4    ;  uncertainty k = 0.174309
         6        10        11        12     9        0.000000        4.367103         1    ;  uncertainty k = 0.568223
         6        10        11        12     9      180.000000       -1.721484         2    ;  uncertainty k = 1.273232
         6        10        11        12     9        0.000000       -0.456864         3    ;  uncertainty k = 0.472174
         6        10        11        12     9      180.000000        0.328459         4    ;  uncertainty k = 0.236646
         6        10        11        40     9        0.000000       -1.366437         1    ;  uncertainty k = 0.443902
         6        10        11        40     9      180.000000        1.117988         2    ;  uncertainty k = 0.670204
         6        10        11        40     9        0.000000        0.420512         3    ;  uncertainty k = 0.232671
         6        10        11        40     9      180.000000        0.169724         4    ;  uncertainty k = 0.171412
         6        10        11        44     9        0.000000       -1.366437         1    ;  uncertainty k = 0.443902
         6        10        11        44     9      180.000000        1.117988         2    ;  uncertainty k = 0.670204
         6        10        11        44     9        0.000000        0.420512         3    ;  uncertainty k = 0.232671
         6        10        11        44     9      180.000000        0.169724         4    ;  uncertainty k = 0.171412
         7         6        10        11     9        0.000000        4.306085         1    ;  uncertainty k = 1.768454
         7         6        10        11     9      180.000000       -1.360043         2    ;  uncertainty k = 1.430515
         7         6        10        11     9        0.000000       -0.393905         3    ;  uncertainty k = 0.710259
         7         6        10        11     9      180.000000        0.655625         4    ;  uncertainty k = 0.252123
         7         8         1        21     9        0.000000        0.468036         1    ;  uncertainty k = 0.457852
         7         8         1        21     9      180.000000        8.769242         2    ;  uncertainty k = 0.338204
         7         8         1        21     9        0.000000        1.279768         3    ;  uncertainty k = 0.340050
         7         8         1        21     9      180.000000        1.671940         4    ;  uncertainty k = 0.111962
         7        15        12        11     9        0.000000        1.962873         1    ;  uncertainty k = 1.227301
         7        15        12        11     9      180.000000       -1.078194         2    ;  uncertainty k = 0.502447
         7        15        12        11     9        0.000000        0.369332         3    ;  uncertainty k = 0.176636
         7        15        12        11     9      180.000000       -0.278407         4    ;  uncertainty k = 0.249392
         7        15        12        13     9        0.000000       -0.179115         1    ;  uncertainty k = 0.140621
         7        15        12        13     9      180.000000        0.089626         2    ;  uncertainty k = 0.458905
         7        15        12        13     9        0.000000        0.456477         3    ;  uncertainty k = 0.237033
         7        15        12        13     9      180.000000       -0.095026         4    ;  uncertainty k = 0.141404
         7        15        12        14     9        0.000000       -0.179115         1    ;  uncertainty k = 0.140621
         7        15        12        14     9      180.000000        0.089626         2    ;  uncertainty k = 0.458905
         7        15        12        14     9        0.000000        0.456477         3    ;  uncertainty k = 0.237033
         7        15        12        14     9      180.000000       -0.095026         4    ;  uncertainty k = 0.141404
         7        15        16        17     9        0.000000       -2.280414         1    ;  uncertainty k = 2.717069
         7        15        16        17     9      180.000000        2.456410         2    ;  uncertainty k = 1.222701
         7        15        16        17     9        0.000000        1.453247         3    ;  uncertainty k = 0.188385
         7        15        16        17     9      180.000000        0.681716         4    ;  uncertainty k = 0.441731
         7        15        16        39     9        0.000000       -0.746001         1    ;  uncertainty k = 2.339485
         7        15        16        39     9      180.000000        3.144072         2    ;  uncertainty k = 0.500306
         7        15        16        39     9        0.000000        0.221997         3    ;  uncertainty k = 0.280086
         7        15        16        39     9      180.000000        0.150864         4    ;  uncertainty k = 0.276471
         7        15        19        18     9        0.000000        0.863485         1    ;  uncertainty k = 1.247541
         7        15        19        18     9      180.000000        0.544771         2    ;  uncertainty k = 0.542404
         7        15        19        18     9        0.000000        0.864493         3    ;  uncertainty k = 0.370882
         7        15        19        18     9      180.000000        0.387104         4    ;  uncertainty k = 0.143944
         7        15        19        20     9        0.000000        0.953248         1    ;  uncertainty k = 2.750545
         7        15        19        20     9      180.000000       -1.060847         2    ;  uncertainty k = 1.247199
         7        15        19        20     9        0.000000        0.527755         3    ;  uncertainty k = 0.498974
         7        15        19        20     9      180.000000       -0.043717         4    ;  uncertainty k = 0.110691
         8         1        21        29     9        0.000000       -0.407871         1    ;  uncertainty k = 0.396814
         8         1        21        29     9      180.000000        4.242611         2    ;  uncertainty k = 0.178647
         8         1        21        29     9        0.000000        0.294725         3    ;  uncertainty k = 0.184686
         8         1        21        29     9      180.000000        0.068407         4    ;  uncertainty k = 0.071607
         8         1        21        37     9        0.000000       -0.407871         1    ;  uncertainty k = 0.396814
         8         1        21        37     9      180.000000        4.242610         2    ;  uncertainty k = 0.178647
         8         1        21        37     9        0.000000        0.294725         3    ;  uncertainty k = 0.184686
         8         1        21        37     9      180.000000        0.068407         4    ;  uncertainty k = 0.071607
         8         7         6        10     9        0.000000        0.502288         1    ;  uncertainty k = 0.334285
         8         7         6        10     9      180.000000        8.131837         2    ;  uncertainty k = 0.246810
         8         7         6        10     9        0.000000        1.516209         3    ;  uncertainty k = 0.284264
         8         7         6        10     9      180.000000        1.564323         4    ;  uncertainty k = 0.188848
         8         7        15        12     9        0.000000       -0.691333         1    ;  uncertainty k = 1.137398
         8         7        15        12     9      180.000000        0.985400         2    ;  uncertainty k = 0.405711
         8         7        15        12     9        0.000000       -0.289961         3    ;  uncertainty k = 0.374786
         8         7        15        12     9      180.000000        0.164090         4    ;  uncertainty k = 0.189301
         8         7        15        16     9        0.000000        0.853117         1    ;  uncertainty k = 1.974013
         8         7        15        16     9      180.000000        0.166248         2    ;  uncertainty k = 0.609933
         8         7        15        16     9        0.000000        0.128488         3    ;  uncertainty k = 0.275120
         8         7        15        16     9      180.000000        0.312202         4    ;  uncertainty k = 0.133232
         8         7        15        19     9        0.000000       -0.405631         1    ;  uncertainty k = 0.831937
         8         7        15        19     9      180.000000        1.964315         2    ;  uncertainty k = 0.372178
         8         7        15        19     9        0.000000       -0.051018         3    ;  uncertainty k = 0.360156
         8         7        15        19     9      180.000000        0.092103         4    ;  uncertainty k = 0.251996
         9         8         1        21     9        0.000000       -0.106827         1    ;  uncertainty k = 0.325185
         9         8         1        21     9      180.000000        7.458381         2    ;  uncertainty k = 0.355978
         9         8         1        21     9        0.000000        0.876873         3    ;  uncertainty k = 0.170625
         9         8         1        21     9      180.000000        1.318411         4    ;  uncertainty k = 0.135611
         9         8         7        15     9        0.000000       -0.372295         1    ;  uncertainty k = 0.437955
         9         8         7        15     9      180.000000        6.783379         2    ;  uncertainty k = 0.317440
         9         8         7        15     9        0.000000        0.965065         3    ;  uncertainty k = 0.301999
         9         8         7        15     9      180.000000        1.269073         4    ;  uncertainty k = 0.233090
        10         6         7        15     9        0.000000        0.498340         1    ;  uncertainty k = 0.988077
        10         6         7        15     9      180.000000        5.670085         2    ;  uncertainty k = 0.712561
        10         6         7        15     9        0.000000        1.748936         3    ;  uncertainty k = 0.456836
        10         6         7        15     9      180.000000        1.062497         4    ;  uncertainty k = 0.416588
        10        11        12        13     9        0.000000       -1.286357         1    ;  uncertainty k = 0.418982
        10        11        12        13     9      180.000000       -0.843338         2    ;  uncertainty k = 0.564486
        10        11        12        13     9        0.000000        0.398057         3    ;  uncertainty k = 0.233267
        10        11        12        13     9      180.000000       -0.189590         4    ;  uncertainty k = 0.165011
        10        11        12        14     9        0.000000       -1.286357         1    ;  uncertainty k = 0.418982
        10        11        12        14     9      180.000000       -0.843338         2    ;  uncertainty k = 0.564486
        10        11        12        14     9        0.000000        0.398057         3    ;  uncertainty k = 0.233267
        10        11        12        14     9      180.000000       -0.189590         4    ;  uncertainty k = 0.165011
        10        11        12        15     9        0.000000        7.476955         1    ;  uncertainty k = 0.712372
        10        11        12        15     9      180.000000       -4.264126         2    ;  uncertainty k = 1.996417
        10        11        12        15     9        0.000000       -0.268865         3    ;  uncertainty k = 0.560592
        10        11        12        15     9      180.000000       -0.018620         4    ;  uncertainty k = 0.403705
        10        11        40        41     9        0.000000       -0.556685         1    ;  uncertainty k = 0.641512
        10        11        40        41     9      180.000000       -2.127823         2    ;  uncertainty k = 0.599046
        10        11        40        41     9        0.000000        0.863808         3    ;  uncertainty k = 0.110663
        10        11        40        41     9      180.000000       -0.195070         4    ;  uncertainty k = 0.150407
        10        11        40        42     9        0.000000       -0.556685         1    ;  uncertainty k = 0.641512
        10        11        40        42     9      180.000000       -2.127823         2    ;  uncertainty k = 0.599046
        10        11        40        42     9        0.000000        0.863808         3    ;  uncertainty k = 0.110663
        10        11        40        42     9      180.000000       -0.195070         4    ;  uncertainty k = 0.150407
        10        11        40        43     9        0.000000       -0.556685         1    ;  uncertainty k = 0.641512
        10        11        40        43     9      180.000000       -2.127823         2    ;  uncertainty k = 0.599046
        10        11        40        43     9        0.000000        0.863808         3    ;  uncertainty k = 0.110663
        10        11        40        43     9      180.000000       -0.195070         4    ;  uncertainty k = 0.150407
        10        11        44        45     9        0.000000       -0.556685         1    ;  uncertainty k = 0.641512
        10        11        44        45     9      180.000000       -2.127823         2    ;  uncertainty k = 0.599046
        10        11        44        45     9        0.000000        0.863808         3    ;  uncertainty k = 0.110663
        10        11        44        45     9      180.000000       -0.195070         4    ;  uncertainty k = 0.150407
        10        11        44        46     9        0.000000       -0.556685         1    ;  uncertainty k = 0.641512
        10        11        44        46     9      180.000000       -2.127823         2    ;  uncertainty k = 0.599046
        10        11        44        46     9        0.000000        0.863808         3    ;  uncertainty k = 0.110663
        10        11        44        46     9      180.000000       -0.195070         4    ;  uncertainty k = 0.150407
        10        11        44        47     9        0.000000       -0.556685         1    ;  uncertainty k = 0.641512
        10        11        44        47     9      180.000000       -2.127823         2    ;  uncertainty k = 0.599046
        10        11        44        47     9        0.000000        0.863808         3    ;  uncertainty k = 0.110663
        10        11        44        47     9      180.000000       -0.195070         4    ;  uncertainty k = 0.150407
        11        12        15        16     9        0.000000       -1.228978         1    ;  uncertainty k = 1.347491
        11        12        15        16     9      180.000000       -0.515847         2    ;  uncertainty k = 0.500826
        11        12        15        16     9        0.000000        0.433214         3    ;  uncertainty k = 0.247206
        11        12        15        16     9      180.000000       -0.080465         4    ;  uncertainty k = 0.226810
        11        12        15        19     9        0.000000       -2.978697         1    ;  uncertainty k = 1.009148
        11        12        15        19     9      180.000000       -1.349811         2    ;  uncertainty k = 1.012802
        11        12        15        19     9        0.000000        1.198772         3    ;  uncertainty k = 0.505781
        11        12        15        19     9      180.000000        0.002053         4    ;  uncertainty k = 0.225805
        12        11        40        41     9        0.000000       -0.810618         1    ;  uncertainty k = 0.476463
        12        11        40        41     9      180.000000       -0.740441         2    ;  uncertainty k = 0.208398
        12        11        40        41     9        0.000000        0.585176         3    ;  uncertainty k = 0.093112
        12        11        40        41     9      180.000000       -0.179618         4    ;  uncertainty k = 0.029902
        12        11        40        42     9        0.000000       -0.810618         1    ;  uncertainty k = 0.476463
        12        11        40        42     9      180.000000       -0.740441         2    ;  uncertainty k = 0.208398
        12        11        40        42     9        0.000000        0.585176         3    ;  uncertainty k = 0.093112
        12        11        40        42     9      180.000000       -0.179618         4    ;  uncertainty k = 0.029902
        12        11        40        43     9        0.000000       -0.810618         1    ;  uncertainty k = 0.476463
        12        11        40        43     9      180.000000       -0.740441         2    ;  uncertainty k = 0.208398
        12        11        40        43     9        0.000000        0.585176         3    ;  uncertainty k = 0.093112
        12        11        40        43     9      180.000000       -0.179618         4    ;  uncertainty k = 0.029902
        12        11        44        45     9        0.000000       -0.810618         1    ;  uncertainty k = 0.476463
        12        11        44        45     9      180.000000       -0.740441         2    ;  uncertainty k = 0.208398
        12        11        44        45     9        0.000000        0.585176         3    ;  uncertainty k = 0.093112
        12        11        44        45     9      180.000000       -0.179618         4    ;  uncertainty k = 0.029902
        12        11        44        46     9        0.000000       -0.810618         1    ;  uncertainty k = 0.476463
        12        11        44        46     9      180.000000       -0.740441         2    ;  uncertainty k = 0.208398
        12        11        44        46     9        0.000000        0.585176         3    ;  uncertainty k = 0.093112
        12        11        44        46     9      180.000000       -0.179618         4    ;  uncertainty k = 0.029902
        12        11        44        47     9        0.000000       -0.810618         1    ;  uncertainty k = 0.476463
        12        11        44        47     9      180.000000       -0.740441         2    ;  uncertainty k = 0.208398
        12        11        44        47     9        0.000000        0.585176         3    ;  uncertainty k = 0.093112
        12        11        44        47     9      180.000000       -0.179618         4    ;  uncertainty k = 0.029902
        12        15        16        17     9        0.000000       -3.062352         1    ;  uncertainty k = 1.276839
        12        15        16        17     9      180.000000        2.894127         2    ;  uncertainty k = 0.258588
        12        15        16        17     9        0.000000        0.860445         3    ;  uncertainty k = 0.091746
        12        15        16        17     9      180.000000        0.587117         4    ;  uncertainty k = 0.338989
        12        15        16        39     9        0.000000       -0.574292         1    ;  uncertainty k = 2.046094
        12        15        16        39     9      180.000000        3.928919         2    ;  uncertainty k = 1.075276
        12        15        16        39     9        0.000000        0.161227         3    ;  uncertainty k = 0.381109
        12        15        16        39     9      180.000000        0.057219         4    ;  uncertainty k = 0.338212
        12        15        19        18     9        0.000000       -0.720185         1    ;  uncertainty k = 0.363424
        12        15        19        18     9      180.000000        1.466373         2    ;  uncertainty k = 0.671881
        12        15        19        18     9        0.000000        0.362475         3    ;  uncertainty k = 0.242092
        12        15        19        18     9      180.000000        0.276221         4    ;  uncertainty k = 0.143829
        12        15        19        20     9        0.000000        1.014477         1    ;  uncertainty k = 3.207549
        12        15        19        20     9      180.000000       -0.447187         2    ;  uncertainty k = 0.880594
        12        15        19        20     9        0.000000        0.406773         3    ;  uncertainty k = 0.479851
        12        15        19        20     9      180.000000        0.075628         4    ;  uncertainty k = 0.078933
        13        12        11        40     9        0.000000       -0.868529         1    ;  uncertainty k = 0.359708
        13        12        11        40     9      180.000000        0.339049         2    ;  uncertainty k = 0.271426
        13        12        11        40     9        0.000000        0.030221         3    ;  uncertainty k = 0.169820
        13        12        11        40     9      180.000000       -0.198172         4    ;  uncertainty k = 0.102797
        13        12        11        44     9        0.000000       -0.868529         1    ;  uncertainty k = 0.359708
        13        12        11        44     9      180.000000        0.339049         2    ;  uncertainty k = 0.271426
        13        12        11        44     9        0.000000        0.030221         3    ;  uncertainty k = 0.169820
        13        12        11        44     9      180.000000       -0.198172         4    ;  uncertainty k = 0.102797
        13        12        15        16     9        0.000000        0.636692         1    ;  uncertainty k = 0.443881
        13        12        15        16     9      180.000000       -1.082831         2    ;  uncertainty k = 0.432291
        13        12        15        16     9        0.000000        0.083911         3    ;  uncertainty k = 0.203429
        13        12        15        16     9      180.000000       -0.053905         4    ;  uncertainty k = 0.095175
        13        12        15        19     9        0.000000       -1.014378         1    ;  uncertainty k = 0.666770
        13        12        15        19     9      180.000000       -0.206347         2    ;  uncertainty k = 0.431023
        13        12        15        19     9        0.000000        0.529827         3    ;  uncertainty k = 0.228576
        13        12        15        19     9      180.000000       -0.286824         4    ;  uncertainty k = 0.129461
        14        12        11        40     9        0.000000       -0.868529         1    ;  uncertainty k = 0.359708
        14        12        11        40     9      180.000000        0.339049         2    ;  uncertainty k = 0.271426
        14        12        11        40     9        0.000000        0.030221         3    ;  uncertainty k = 0.169820
        14        12        11        40     9      180.000000       -0.198172         4    ;  uncertainty k = 0.102797
        14        12        11        44     9        0.000000       -0.868529         1    ;  uncertainty k = 0.359708
        14        12        11        44     9      180.000000        0.339049         2    ;  uncertainty k = 0.271426
        14        12        11        44     9        0.000000        0.030221         3    ;  uncertainty k = 0.169820
        14        12        11        44     9      180.000000       -0.198172         4    ;  uncertainty k = 0.102797
        14        12        15        16     9        0.000000        0.636692         1    ;  uncertainty k = 0.443881
        14        12        15        16     9      180.000000       -1.082831         2    ;  uncertainty k = 0.432291
        14        12        15        16     9        0.000000        0.083911         3    ;  uncertainty k = 0.203429
        14        12        15        16     9      180.000000       -0.053905         4    ;  uncertainty k = 0.095175
        14        12        15        19     9        0.000000       -1.014378         1    ;  uncertainty k = 0.666770
        14        12        15        19     9      180.000000       -0.206347         2    ;  uncertainty k = 0.431023
        14        12        15        19     9        0.000000        0.529827         3    ;  uncertainty k = 0.228576
        14        12        15        19     9      180.000000       -0.286824         4    ;  uncertainty k = 0.129461
        15        12        11        40     9        0.000000       -0.394043         1    ;  uncertainty k = 0.952250
        15        12        11        40     9      180.000000       -0.298782         2    ;  uncertainty k = 0.210060
        15        12        11        40     9        0.000000        0.102279         3    ;  uncertainty k = 0.252570
        15        12        11        40     9      180.000000       -0.158350         4    ;  uncertainty k = 0.062640
        15        12        11        44     9        0.000000       -0.394043         1    ;  uncertainty k = 0.952250
        15        12        11        44     9      180.000000       -0.298782         2    ;  uncertainty k = 0.210060
        15        12        11        44     9        0.000000        0.102279         3    ;  uncertainty k = 0.252570
        15        12        11        44     9      180.000000       -0.158350         4    ;  uncertainty k = 0.062640
        15        16        17        18     9        0.000000        3.190561         1    ;  uncertainty k = 2.129280
        15        16        17        18     9      180.000000        4.165517         2    ;  uncertainty k = 2.103257
        15        16        17        18     9        0.000000       -0.163634         3    ;  uncertainty k = 0.825879
        15        16        17        18     9      180.000000        0.629686         4    ;  uncertainty k = 0.355315
        15        16        17        22     9        0.000000        4.948397         1    ;  uncertainty k = 2.742747
        15        16        17        22     9      180.000000        3.665594         2    ;  uncertainty k = 2.655463
        15        16        17        22     9        0.000000        1.132039         3    ;  uncertainty k = 0.860258
        15        16        17        22     9      180.000000        0.328976         4    ;  uncertainty k = 0.593115
        15        19        18        17     9        0.000000        1.152349         1    ;  uncertainty k = 2.624977
        15        19        18        17     9      180.000000       15.352878         2    ;  uncertainty k = 0.482589
        15        19        18        17     9        0.000000       -0.706328         3    ;  uncertainty k = 1.011989
        15        19        18        17     9      180.000000       -0.606107         4    ;  uncertainty k = 0.206718
        15        19        18        26     9        0.000000        3.692759         1    ;  uncertainty k = 0.866356
        15        19        18        26     9      180.000000       11.333780         2    ;  uncertainty k = 0.611404
        15        19        18        26     9        0.000000        0.314850         3    ;  uncertainty k = 0.239643
        15        19        18        26     9      180.000000       -0.482788         4    ;  uncertainty k = 0.513934
        16        15        19        18     9        0.000000        1.075899         1    ;  uncertainty k = 0.686753
        16        15        19        18     9      180.000000        2.337056         2    ;  uncertainty k = 0.668402
        16        15        19        18     9        0.000000        0.174345         3    ;  uncertainty k = 0.624028
        16        15        19        18     9      180.000000        0.491041         4    ;  uncertainty k = 0.337525
        16        15        19        20     9        0.000000        1.870130         1    ;  uncertainty k = 2.124003
        16        15        19        20     9      180.000000       -0.788361         2    ;  uncertainty k = 0.765206
        16        15        19        20     9        0.000000        0.063928         3    ;  uncertainty k = 0.474210
        16        15        19        20     9      180.000000        0.018852         4    ;  uncertainty k = 0.243518
        16        17        18        19     9        0.000000       -0.598871         1    ;  uncertainty k = 1.517512
        16        17        18        19     9      180.000000        9.023777         2    ;  uncertainty k = 0.890262
        16        17        18        19     9        0.000000       -1.321226         3    ;  uncertainty k = 1.261849
        16        17        18        19     9      180.000000       -0.043685         4    ;  uncertainty k = 0.510427
        16        17        18        26     9        0.000000       -0.742539         1    ;  uncertainty k = 0.884320
        16        17        18        26     9      180.000000        6.821150         2    ;  uncertainty k = 1.300514
        16        17        18        26     9        0.000000        0.216631         3    ;  uncertainty k = 0.558836
        16        17        18        26     9      180.000000       -0.098970         4    ;  uncertainty k = 0.493923
        16        17        22        23     9        0.000000        0.297431         1    ;  uncertainty k = 0.338022
        16        17        22        23     9      180.000000        0.087168         2    ;  uncertainty k = 0.381934
        16        17        22        23     9        0.000000        0.347193         3    ;  uncertainty k = 0.232215
        16        17        22        23     9      180.000000        0.291096         4    ;  uncertainty k = 0.074538
        16        17        22        24     9        0.000000        0.297431         1    ;  uncertainty k = 0.338022
        16        17        22        24     9      180.000000        0.087168         2    ;  uncertainty k = 0.381934
        16        17        22        24     9        0.000000        0.347193         3    ;  uncertainty k = 0.232215
        16        17        22        24     9      180.000000        0.291096         4    ;  uncertainty k = 0.074538
        16        17        22        25     9        0.000000        0.297431         1    ;  uncertainty k = 0.338022
        16        17        22        25     9      180.000000        0.087168         2    ;  uncertainty k = 0.381934
        16        17        22        25     9        0.000000        0.347193         3    ;  uncertainty k = 0.232215
        16        17        22        25     9      180.000000        0.291096         4    ;  uncertainty k = 0.074538
        17        16        15        19     9        0.000000       -0.734672         1    ;  uncertainty k = 2.407400
        17        16        15        19     9      180.000000        6.965369         2    ;  uncertainty k = 1.234531
        17        16        15        19     9        0.000000        0.624658         3    ;  uncertainty k = 0.577006
        17        16        15        19     9      180.000000        0.290059         4    ;  uncertainty k = 0.846479
        17        18        19        20     9        0.000000        4.051322         1    ;  uncertainty k = 3.391115
        17        18        19        20     9      180.000000       10.697180         2    ;  uncertainty k = 0.526601
        17        18        19        20     9        0.000000        1.093668         3    ;  uncertainty k = 0.752546
        17        18        19        20     9      180.000000       -0.389374         4    ;  uncertainty k = 0.265720
        17        18        26        27     9        0.000000        8.080941         1    ;  uncertainty k = 2.061712
        17        18        26        27     9      180.000000        9.353073         2    ;  uncertainty k = 0.455751
        17        18        26        27     9        0.000000        0.960301         3    ;  uncertainty k = 0.478476
        17        18        26        27     9      180.000000       -0.922267         4    ;  uncertainty k = 0.215681
        17        18        26        28     9        0.000000        8.080941         1    ;  uncertainty k = 2.061712
        17        18        26        28     9      180.000000        9.353073         2    ;  uncertainty k = 0.455751
        17        18        26        28     9        0.000000        0.960301         3    ;  uncertainty k = 0.478476
        17        18        26        28     9      180.000000       -0.922267         4    ;  uncertainty k = 0.215681
        18        17        16        39     9        0.000000       -0.225774         1    ;  uncertainty k = 3.237560
        18        17        16        39     9      180.000000        7.660703         2    ;  uncertainty k = 0.931236
        18        17        16        39     9        0.000000        0.373526         3    ;  uncertainty k = 0.816132
        18        17        16        39     9      180.000000        0.053274         4    ;  uncertainty k = 0.298389
        18        17        22        23     9        0.000000       -0.260671         1    ;  uncertainty k = 0.510831
        18        17        22        23     9      180.000000       -1.123799         2    ;  uncertainty k = 0.505443
        18        17        22        23     9        0.000000        0.381297         3    ;  uncertainty k = 0.163929
        18        17        22        23     9      180.000000        0.194836         4    ;  uncertainty k = 0.041789
        18        17        22        24     9        0.000000       -0.260671         1    ;  uncertainty k = 0.510831
        18        17        22        24     9      180.000000       -1.123799         2    ;  uncertainty k = 0.505443
        18        17        22        24     9        0.000000        0.381297         3    ;  uncertainty k = 0.163929
        18        17        22        24     9      180.000000        0.194836         4    ;  uncertainty k = 0.041789
        18        17        22        25     9        0.000000       -0.260671         1    ;  uncertainty k = 0.510831
        18        17        22        25     9      180.000000       -1.123799         2    ;  uncertainty k = 0.505443
        18        17        22        25     9        0.000000        0.381297         3    ;  uncertainty k = 0.163929
        18        17        22        25     9      180.000000        0.194836         4    ;  uncertainty k = 0.041789
        19        15        16        39     9        0.000000        0.024534         1    ;  uncertainty k = 2.213974
        19        15        16        39     9      180.000000        4.149250         2    ;  uncertainty k = 1.312392
        19        15        16        39     9        0.000000        0.407424         3    ;  uncertainty k = 0.206510
        19        15        16        39     9      180.000000        0.443240         4    ;  uncertainty k = 0.158688
        19        18        17        22     9        0.000000       -0.380136         1    ;  uncertainty k = 2.913081
        19        18        17        22     9      180.000000        8.267784         2    ;  uncertainty k = 0.403615
        19        18        17        22     9        0.000000        0.435757         3    ;  uncertainty k = 0.320054
        19        18        17        22     9      180.000000       -0.156996         4    ;  uncertainty k = 0.291188
        19        18        26        27     9        0.000000        6.366443         1    ;  uncertainty k = 1.644722
        19        18        26        27     9      180.000000       10.049531         2    ;  uncertainty k = 0.349760
        19        18        26        27     9        0.000000        1.357511         3    ;  uncertainty k = 0.507490
        19        18        26        27     9      180.000000       -0.656591         4    ;  uncertainty k = 0.287459
        19        18        26        28     9        0.000000        6.366443         1    ;  uncertainty k = 1.644722
        19        18        26        28     9      180.000000       10.049531         2    ;  uncertainty k = 0.349760
        19        18        26        28     9        0.000000        1.357511         3    ;  uncertainty k = 0.507490
        19        18        26        28     9      180.000000       -0.656591         4    ;  uncertainty k = 0.287459
        20        19        18        26     9        0.000000        1.886192         1    ;  uncertainty k = 2.633103
        20        19        18        26     9      180.000000        7.784175         2    ;  uncertainty k = 1.209625
        20        19        18        26     9        0.000000        0.956054         3    ;  uncertainty k = 0.197633
        20        19        18        26     9      180.000000       -0.247909         4    ;  uncertainty k = 0.316191
        21        29        31        32     9        0.000000        0.031216         1    ;  uncertainty k = 0.239348
        21        29        31        32     9      180.000000        7.811332         2    ;  uncertainty k = 0.334497
        21        29        31        32     9        0.000000        1.369305         3    ;  uncertainty k = 0.260576
        21        29        31        32     9      180.000000        1.847443         4    ;  uncertainty k = 0.176631
        21        29        31        33     9        0.000000        0.002433         1    ;  uncertainty k = 0.166864
        21        29        31        33     9      180.000000       14.301721         2    ;  uncertainty k = 0.199020
        21        29        31        33     9        0.000000       -0.865296         3    ;  uncertainty k = 0.436066
        21        29        31        33     9      180.000000        0.684014         4    ;  uncertainty k = 0.252894
        21        37        35        33     9        0.000000        0.002434         1    ;  uncertainty k = 0.166863
        21        37        35        33     9      180.000000       14.301723         2    ;  uncertainty k = 0.199020
        21        37        35        33     9        0.000000       -0.865296         3    ;  uncertainty k = 0.436066
        21        37        35        33     9      180.000000        0.684014         4    ;  uncertainty k = 0.252894
        21        37        35        36     9        0.000000        0.031217         1    ;  uncertainty k = 0.239349
        21        37        35        36     9      180.000000        7.811332         2    ;  uncertainty k = 0.334497
        21        37        35        36     9        0.000000        1.369305         3    ;  uncertainty k = 0.260576
        21        37        35        36     9      180.000000        1.847442         4    ;  uncertainty k = 0.176632
        22        17        16        39     9        0.000000       -0.743118         1    ;  uncertainty k = 3.324160
        22        17        16        39     9      180.000000        8.127734         2    ;  uncertainty k = 0.445128
        22        17        16        39     9        0.000000        0.693460         3    ;  uncertainty k = 0.571372
        22        17        16        39     9      180.000000        0.151177         4    ;  uncertainty k = 0.263311
        22        17        18        26     9        0.000000       -0.067505         1    ;  uncertainty k = 0.784520
        22        17        18        26     9      180.000000        6.890792         2    ;  uncertainty k = 0.817474
        22        17        18        26     9        0.000000        0.975121         3    ;  uncertainty k = 0.584566
        22        17        18        26     9      180.000000       -0.011356         4    ;  uncertainty k = 0.268200
        29        21        37        35     9        0.000000        0.059360         1    ;  uncertainty k = 0.073115
        29        21        37        35     9      180.000000       11.390493         2    ;  uncertainty k = 0.271642
        29        21        37        35     9        0.000000       -0.425487         3    ;  uncertainty k = 0.294033
        29        21        37        35     9      180.000000        0.840093         4    ;  uncertainty k = 0.269989
        29        21        37        38     9        0.000000        0.133413         1    ;  uncertainty k = 0.128555
        29        21        37        38     9      180.000000        6.939790         2    ;  uncertainty k = 0.547241
        29        21        37        38     9        0.000000        1.435371         3    ;  uncertainty k = 0.239373
        29        21        37        38     9      180.000000        1.615265         4    ;  uncertainty k = 0.235596
        29        31        33        34     9        0.000000        0.090530         1    ;  uncertainty k = 0.055880
        29        31        33        34     9      180.000000        7.488128         2    ;  uncertainty k = 0.325714
        29        31        33        34     9        0.000000        1.471400         3    ;  uncertainty k = 0.284971
        29        31        33        34     9      180.000000        1.795557         4    ;  uncertainty k = 0.141227
        29        31        33        35     9        0.000000       -0.010727         1    ;  uncertainty k = 0.083691
        29        31        33        35     9      180.000000       14.956505         2    ;  uncertainty k = 0.275593
        29        31        33        35     9        0.000000       -1.173725         3    ;  uncertainty k = 0.516299
        29        31        33        35     9      180.000000        0.531902         4    ;  uncertainty k = 0.277124
        30        29        21        37     9        0.000000        0.133413         1    ;  uncertainty k = 0.128555
        30        29        21        37     9      180.000000        6.939789         2    ;  uncertainty k = 0.547241
        30        29        21        37     9        0.000000        1.435371         3    ;  uncertainty k = 0.239373
        30        29        21        37     9      180.000000        1.615265         4    ;  uncertainty k = 0.235595
        30        29        31        32     9        0.000000       -0.079525         1    ;  uncertainty k = 0.124737
        30        29        31        32     9      180.000000        7.801024         2    ;  uncertainty k = 0.317793
        30        29        31        32     9        0.000000       -0.484903         3    ;  uncertainty k = 0.279183
        30        29        31        32     9      180.000000        0.132684         4    ;  uncertainty k = 0.122602
        30        29        31        33     9        0.000000        0.072931         1    ;  uncertainty k = 0.108224
        30        29        31        33     9      180.000000        7.947868         2    ;  uncertainty k = 0.252525
        30        29        31        33     9        0.000000        1.421564         3    ;  uncertainty k = 0.292042
        30        29        31        33     9      180.000000        1.853611         4    ;  uncertainty k = 0.192707
        31        29        21        37     9        0.000000        0.059360         1    ;  uncertainty k = 0.073115
        31        29        21        37     9      180.000000       11.390493         2    ;  uncertainty k = 0.271642
        31        29        21        37     9        0.000000       -0.425487         3    ;  uncertainty k = 0.294033
        31        29        21        37     9      180.000000        0.840093         4    ;  uncertainty k = 0.269989
        31        33        35        36     9        0.000000        0.072465         1    ;  uncertainty k = 0.048532
        31        33        35        36     9      180.000000        7.567595         2    ;  uncertainty k = 0.302860
        31        33        35        36     9        0.000000        1.437009         3    ;  uncertainty k = 0.328857
        31        33        35        36     9      180.000000        1.801943         4    ;  uncertainty k = 0.135711
        31        33        35        37     9        0.000000       -0.010727         1    ;  uncertainty k = 0.083691
        31        33        35        37     9      180.000000       14.956507         2    ;  uncertainty k = 0.275593
        31        33        35        37     9        0.000000       -1.173725         3    ;  uncertainty k = 0.516299
        31        33        35        37     9      180.000000        0.531902         4    ;  uncertainty k = 0.277124
        32        31        33        34     9        0.000000       -0.054065         1    ;  uncertainty k = 0.098597
        32        31        33        34     9      180.000000        7.627310         2    ;  uncertainty k = 0.408950
        32        31        33        34     9        0.000000       -0.419011         3    ;  uncertainty k = 0.294816
        32        31        33        34     9      180.000000        0.038054         4    ;  uncertainty k = 0.143388
        32        31        33        35     9        0.000000        0.072465         1    ;  uncertainty k = 0.048533
        32        31        33        35     9      180.000000        7.567595         2    ;  uncertainty k = 0.302859
        32        31        33        35     9        0.000000        1.437008         3    ;  uncertainty k = 0.328856
        32        31        33        35     9      180.000000        1.801943         4    ;  uncertainty k = 0.135711
        33        35        37        38     9        0.000000        0.072931         1    ;  uncertainty k = 0.108224
        33        35        37        38     9      180.000000        7.947867         2    ;  uncertainty k = 0.252525
        33        35        37        38     9        0.000000        1.421564         3    ;  uncertainty k = 0.292042
        33        35        37        38     9      180.000000        1.853610         4    ;  uncertainty k = 0.192707
        34        33        35        36     9        0.000000       -0.054064         1    ;  uncertainty k = 0.098598
        34        33        35        36     9      180.000000        7.627309         2    ;  uncertainty k = 0.408951
        34        33        35        36     9        0.000000       -0.419010         3    ;  uncertainty k = 0.294815
        34        33        35        36     9      180.000000        0.038054         4    ;  uncertainty k = 0.143388
        34        33        35        37     9        0.000000        0.090531         1    ;  uncertainty k = 0.055880
        34        33        35        37     9      180.000000        7.488128         2    ;  uncertainty k = 0.325714
        34        33        35        37     9        0.000000        1.471401         3    ;  uncertainty k = 0.284971
        34        33        35        37     9      180.000000        1.795557         4    ;  uncertainty k = 0.141227
        36        35        37        38     9        0.000000       -0.079526         1    ;  uncertainty k = 0.124737
        36        35        37        38     9      180.000000        7.801025         2    ;  uncertainty k = 0.317793
        36        35        37        38     9        0.000000       -0.484903         3    ;  uncertainty k = 0.279182
        36        35        37        38     9      180.000000        0.132684         4    ;  uncertainty k = 0.122602
        40        11        44        45     9        0.000000       -1.168308         1    ;  uncertainty k = 0.299692
        40        11        44        45     9      180.000000        0.150758         2    ;  uncertainty k = 0.296599
        40        11        44        45     9        0.000000        0.668939         3    ;  uncertainty k = 0.064920
        40        11        44        45     9      180.000000       -0.104414         4    ;  uncertainty k = 0.091599
        40        11        44        46     9        0.000000       -1.168308         1    ;  uncertainty k = 0.299692
        40        11        44        46     9      180.000000        0.150758         2    ;  uncertainty k = 0.296599
        40        11        44        46     9        0.000000        0.668939         3    ;  uncertainty k = 0.064920
        40        11        44        46     9      180.000000       -0.104414         4    ;  uncertainty k = 0.091599
        40        11        44        47     9        0.000000       -1.168308         1    ;  uncertainty k = 0.299692
        40        11        44        47     9      180.000000        0.150758         2    ;  uncertainty k = 0.296599
        40        11        44        47     9        0.000000        0.668939         3    ;  uncertainty k = 0.064920
        40        11        44        47     9      180.000000       -0.104414         4    ;  uncertainty k = 0.091599
        41        40        11        44     9        0.000000       -1.168308         1    ;  uncertainty k = 0.299692
        41        40        11        44     9      180.000000        0.150758         2    ;  uncertainty k = 0.296599
        41        40        11        44     9        0.000000        0.668939         3    ;  uncertainty k = 0.064920
        41        40        11        44     9      180.000000       -0.104414         4    ;  uncertainty k = 0.091599
        42        40        11        44     9        0.000000       -1.168308         1    ;  uncertainty k = 0.299692
        42        40        11        44     9      180.000000        0.150758         2    ;  uncertainty k = 0.296599
        42        40        11        44     9        0.000000        0.668939         3    ;  uncertainty k = 0.064920
        42        40        11        44     9      180.000000       -0.104414         4    ;  uncertainty k = 0.091599
        43        40        11        44     9        0.000000       -1.168308         1    ;  uncertainty k = 0.299692
        43        40        11        44     9      180.000000        0.150758         2    ;  uncertainty k = 0.296599
        43        40        11        44     9        0.000000        0.668939         3    ;  uncertainty k = 0.064920
        43        40        11        44     9      180.000000       -0.104414         4    ;  uncertainty k = 0.091599

[ dihedrals ] ; impropers
;       ai        aj        ak        al funct           phase               k        pn
         1         2         8        21     4      180.000000       14.014018         2    ;  uncertainty k = 0.086666
         1         8        21         2     4      180.000000       14.014018         2    ;  uncertainty k = 0.086666
         1        21         2         8     4      180.000000       14.014018         2    ;  uncertainty k = 0.086666
         2         1         3         4     4      180.000000        4.737189         2    ;  uncertainty k = 0.190438
         2         3         4         1     4      180.000000        4.737189         2    ;  uncertainty k = 0.190438
         2         4         1         3     4      180.000000        4.737189         2    ;  uncertainty k = 0.190438
         4         2         5         6     4      180.000000        1.916582         2    ;  uncertainty k = 0.189189
         4         5         6         2     4      180.000000        1.916582         2    ;  uncertainty k = 0.189189
         4         6         2         5     4      180.000000        1.916582         2    ;  uncertainty k = 0.189189
         6         4         7        10     4      180.000000       22.038012         2    ;  uncertainty k = 0.126561
         6         7        10         4     4      180.000000       22.038012         2    ;  uncertainty k = 0.126561
         6        10         4         7     4      180.000000       22.038012         2    ;  uncertainty k = 0.126561
         7         6         8        15     4      180.000000       11.758551         2    ;  uncertainty k = 0.248599
         7         8        15         6     4      180.000000       11.758551         2    ;  uncertainty k = 0.248599
         7        15         6         8     4      180.000000       11.758551         2    ;  uncertainty k = 0.248599
         8         1         7         9     4      180.000000        4.841733         2    ;  uncertainty k = 0.394362
         8         7         9         1     4      180.000000        4.841733         2    ;  uncertainty k = 0.394362
         8         9         1         7     4      180.000000        4.841733         2    ;  uncertainty k = 0.394362
        16        15        17        39     4      180.000000       50.512062         2    ;  uncertainty k = 0.072585
        16        17        39        15     4      180.000000       50.512062         2    ;  uncertainty k = 0.072585
        16        39        15        17     4      180.000000       50.512062         2    ;  uncertainty k = 0.072585
        17        16        18        22     4      180.000000        2.066646         2    ;  uncertainty k = 0.825300
        17        18        22        16     4      180.000000        2.066646         2    ;  uncertainty k = 0.825300
        17        22        16        18     4      180.000000        2.066646         2    ;  uncertainty k = 0.825300
        18        17        19        26     4      180.000000       30.892449         2    ;  uncertainty k = 0.146917
        18        19        26        17     4      180.000000       30.892449         2    ;  uncertainty k = 0.146917
        18        26        17        19     4      180.000000       30.892449         2    ;  uncertainty k = 0.146917
        21         1        29        37     4      180.000000       14.150521         2    ;  uncertainty k = 0.071596
        21        29        37         1     4      180.000000       14.150521         2    ;  uncertainty k = 0.071596
        21        37         1        29     4      180.000000       14.150521         2    ;  uncertainty k = 0.071596
        26        18        27        28     4      180.000000        0.184047         2    ;  uncertainty k = 0.411542
        26        27        28        18     4      180.000000        0.184047         2    ;  uncertainty k = 0.411542
        26        28        18        27     4      180.000000        0.184047         2    ;  uncertainty k = 0.411542
        29        21        30        31     4      180.000000        3.822887         2    ;  uncertainty k = 0.059957
        29        30        31        21     4      180.000000        3.822887         2    ;  uncertainty k = 0.059957
        29        31        21        30     4      180.000000        3.822887         2    ;  uncertainty k = 0.059957
        31        29        32        33     4      180.000000        4.104844         2    ;  uncertainty k = 0.085920
        31        32        33        29     4      180.000000        4.104844         2    ;  uncertainty k = 0.085920
        31        33        29        32     4      180.000000        4.104844         2    ;  uncertainty k = 0.085920
        33        31        34        35     4      180.000000        4.364184         2    ;  uncertainty k = 0.168222
        33        34        35        31     4      180.000000        4.364184         2    ;  uncertainty k = 0.168222
        33        35        31        34     4      180.000000        4.364184         2    ;  uncertainty k = 0.168222
        35        33        36        37     4      180.000000        4.104844         2    ;  uncertainty k = 0.085920
        35        36        37        33     4      180.000000        4.104844         2    ;  uncertainty k = 0.085920
        35        37        33        36     4      180.000000        4.104844         2    ;  uncertainty k = 0.085920
        37        21        35        38     4      180.000000        3.822887         2    ;  uncertainty k = 0.059956
        37        35        38        21     4      180.000000        3.822887         2    ;  uncertainty k = 0.059956
        37        38        21        35     4      180.000000        3.822887         2    ;  uncertainty k = 0.059956

[ pairs ]
;       ai        aj funct
         1         5     1
         1         6     1
         1        15     1
         1        30     1
         1        31     1
         1        35     1
         1        38     1
         2         7     1
         2         9     1
         2        10     1
         2        29     1
         2        37     1
         3         5     1
         3         6     1
         3         8     1
         3        21     1
         4         8     1
         4        11     1
         4        15     1
         4        21     1
         5         7     1
         5        10     1
         6         9     1
         6        12     1
         6        16     1
         6        19     1
         6        40     1
         6        44     1
         7        11     1
         7        13     1
         7        14     1
         7        17     1
         7        18     1
         7        20     1
         7        21     1
         7        39     1
         8        10     1
         8        12     1
         8        16     1
         8        19     1
         8        29     1
         8        37     1
         9        15     1
         9        21     1
        10        13     1
        10        14     1
        10        15     1
        10        41     1
        10        42     1
        10        43     1
        10        45     1
        10        46     1
        10        47     1
        11        16     1
        11        19     1
        12        17     1
        12        18     1
        12        20     1
        12        39     1
        12        41     1
        12        42     1
        12        43     1
        12        45     1
        12        46     1
        12        47     1
        13        16     1
        13        19     1
        13        40     1
        13        44     1
        14        16     1
        14        19     1
        14        40     1
        14        44     1
        15        22     1
        15        26     1
        15        40     1
        15        44     1
        16        20     1
        16        23     1
        16        24     1
        16        25     1
        16        26     1
        17        20     1
        17        27     1
        17        28     1
        18        23     1
        18        24     1
        18        25     1
        18        39     1
        19        22     1
        19        27     1
        19        28     1
        19        39     1
        20        26     1
        21        32     1
        21        33     1
        21        36     1
        22        26     1
        22        39     1
        29        34     1
        29        35     1
        29        38     1
        30        32     1
        30        33     1
        30        37     1
        31        36     1
        31        37     1
        32        34     1
        32        35     1
        33        38     1
        34        36     1
        34        37     1
        36        38     1
        40        45     1
        40        46     1
        40        47     1
        41        44     1
        42        44     1
        43        44     1
