; ITP file created by ByteFF-joint-25, 2026-03-14 15:24:20.098430

[ atomtypes ]
;name           bonded.type        at.num        mass        charge   ptype           sigma         epsilon
 c0bf                                   6      0.0000       0.00000       A     3.31502e-01     4.12934e-01    ;  uncertainty sigma = 0.000015, epsilon = 0.000928
 c1bf                                   6      0.0000       0.00000       A     3.31516e-01     4.13413e-01    ;  uncertainty sigma = 0.000004, epsilon = 0.000562
 h2bf                                   1      0.0000       0.00000       A     2.62563e-01     6.71382e-02    ;  uncertainty sigma = 0.000008, epsilon = 0.000500
 c3bf                                   6      0.0000       0.00000       A     3.31523e-01     4.13778e-01    ;  uncertainty sigma = 0.000003, epsilon = 0.000961
 h4bf                                   1      0.0000       0.00000       A     2.62561e-01     6.68067e-02    ;  uncertainty sigma = 0.000012, epsilon = 0.000527
 c5bf                                   6      0.0000       0.00000       A     3.31562e-01     4.13129e-01    ;  uncertainty sigma = 0.000021, epsilon = 0.000953
 c6bf                                   6      0.0000       0.00000       A     3.31604e-01     4.12991e-01    ;  uncertainty sigma = 0.000053, epsilon = 0.001665
 c7bf                                   6      0.0000       0.00000       A     3.31523e-01     4.13439e-01    ;  uncertainty sigma = 0.000012, epsilon = 0.001324
 h8bf                                   1      0.0000       0.00000       A     2.62555e-01     6.73758e-02    ;  uncertainty sigma = 0.000015, epsilon = 0.000633
 o9bf                                   8      0.0000       0.00000       A     3.15675e-01     3.03349e-01    ;  uncertainty sigma = 0.000037, epsilon = 0.000709
 c10bf                                  6      0.0000       0.00000       A     3.39754e-01     4.50298e-01    ;  uncertainty sigma = 0.000022, epsilon = 0.001818
 c11bf                                  6      0.0000       0.00000       A     3.39729e-01     4.51261e-01    ;  uncertainty sigma = 0.000015, epsilon = 0.001388
 h12bf                                  1      0.0000       0.00000       A     2.60113e-01     8.69262e-02    ;  uncertainty sigma = 0.000018, epsilon = 0.001362
 h13bf                                  1      0.0000       0.00000       A     2.60113e-01     8.69262e-02    ;  uncertainty sigma = 0.000018, epsilon = 0.001362
 c14bf                                  6      0.0000       0.00000       A     3.39922e-01     4.52077e-01    ;  uncertainty sigma = 0.000044, epsilon = 0.005050
 c15bf                                  6      0.0000       0.00000       A     3.31534e-01     4.13061e-01    ;  uncertainty sigma = 0.000023, epsilon = 0.000770
 n16bf                                  7      0.0000       0.00000       A     3.18159e-01     6.82058e-01    ;  uncertainty sigma = 0.000074, epsilon = 0.006526
 c17bf                                  6      0.0000       0.00000       A     3.31516e-01     4.13029e-01    ;  uncertainty sigma = 0.000046, epsilon = 0.002102
 n18bf                                  7      0.0000       0.00000       A     3.27895e-01     6.51183e-01    ;  uncertainty sigma = 0.000198, epsilon = 0.011723
 h19bf                                  1      0.0000       0.00000       A     1.10796e-01     4.19443e-02    ;  uncertainty sigma = 0.000445, epsilon = 0.001840
 c20bf                                  6      0.0000       0.00000       A     3.31517e-01     4.13086e-01    ;  uncertainty sigma = 0.000011, epsilon = 0.000876
 c21bf                                  6      0.0000       0.00000       A     3.39747e-01     4.51374e-01    ;  uncertainty sigma = 0.000011, epsilon = 0.001160
 h22bf                                  1      0.0000       0.00000       A     2.42212e-01     8.67416e-02    ;  uncertainty sigma = 0.000033, epsilon = 0.000677
 h23bf                                  1      0.0000       0.00000       A     2.42212e-01     8.67416e-02    ;  uncertainty sigma = 0.000033, epsilon = 0.000677
 h24bf                                  1      0.0000       0.00000       A     2.42212e-01     8.67416e-02    ;  uncertainty sigma = 0.000033, epsilon = 0.000677
 n25bf                                  7      0.0000       0.00000       A     3.36518e-01     4.71691e-01    ;  uncertainty sigma = 0.000108, epsilon = 0.006012
 h26bf                                  1      0.0000       0.00000       A     1.10696e-01     4.11175e-02    ;  uncertainty sigma = 0.000127, epsilon = 0.001410
 h27bf                                  1      0.0000       0.00000       A     1.10696e-01     4.11175e-02    ;  uncertainty sigma = 0.000127, epsilon = 0.001410
 c28bf                                  6      0.0000       0.00000       A     3.31516e-01     4.13389e-01    ;  uncertainty sigma = 0.000005, epsilon = 0.000783
 h29bf                                  1      0.0000       0.00000       A     2.62570e-01     6.70646e-02    ;  uncertainty sigma = 0.000010, epsilon = 0.000348
 c30bf                                  6      0.0000       0.00000       A     3.31518e-01     4.13331e-01    ;  uncertainty sigma = 0.000002, epsilon = 0.000639
 h31bf                                  1      0.0000       0.00000       A     2.62559e-01     6.70251e-02    ;  uncertainty sigma = 0.000010, epsilon = 0.000440
 c32bf                                  6      0.0000       0.00000       A     3.31521e-01     4.13428e-01    ;  uncertainty sigma = 0.000004, epsilon = 0.000568
 h33bf                                  1      0.0000       0.00000       A     2.62562e-01     6.69705e-02    ;  uncertainty sigma = 0.000010, epsilon = 0.000502
 c34bf                                  6      0.0000       0.00000       A     3.31522e-01     4.13185e-01    ;  uncertainty sigma = 0.000006, epsilon = 0.000534
 h35bf                                  1      0.0000       0.00000       A     2.62561e-01     6.70449e-02    ;  uncertainty sigma = 0.000007, epsilon = 0.000347
 c36bf                                  6      0.0000       0.00000       A     3.31529e-01     4.13288e-01    ;  uncertainty sigma = 0.000009, epsilon = 0.000452
 o37bf                                  8      0.0000       0.00000       A     3.15653e-01     3.03701e-01    ;  uncertainty sigma = 0.000007, epsilon = 0.000881
 c38bf                                  6      0.0000       0.00000       A     3.39779e-01     4.50913e-01    ;  uncertainty sigma = 0.000005, epsilon = 0.000420
 h39bf                                  1      0.0000       0.00000       A     2.42205e-01     8.67537e-02    ;  uncertainty sigma = 0.000015, epsilon = 0.000623
 h40bf                                  1      0.0000       0.00000       A     2.42205e-01     8.67537e-02    ;  uncertainty sigma = 0.000015, epsilon = 0.000623
 h41bf                                  1      0.0000       0.00000       A     2.42205e-01     8.67537e-02    ;  uncertainty sigma = 0.000015, epsilon = 0.000623
 o42bf                                  8      0.0000       0.00000       A     3.04746e-01     6.12575e-01    ;  uncertainty sigma = 0.000054, epsilon = 0.002454
 c43bf                                  6      0.0000       0.00000       A     3.39769e-01     4.50351e-01    ;  uncertainty sigma = 0.000003, epsilon = 0.001331
 h44bf                                  1      0.0000       0.00000       A     2.60031e-01     8.68008e-02    ;  uncertainty sigma = 0.000006, epsilon = 0.000319
 h45bf                                  1      0.0000       0.00000       A     2.60031e-01     8.68008e-02    ;  uncertainty sigma = 0.000006, epsilon = 0.000319
 h46bf                                  1      0.0000       0.00000       A     2.60031e-01     8.68008e-02    ;  uncertainty sigma = 0.000006, epsilon = 0.000319
 c47bf                                  6      0.0000       0.00000       A     3.39769e-01     4.50351e-01    ;  uncertainty sigma = 0.000003, epsilon = 0.001331
 h48bf                                  1      0.0000       0.00000       A     2.60031e-01     8.68009e-02    ;  uncertainty sigma = 0.000006, epsilon = 0.000319
 h49bf                                  1      0.0000       0.00000       A     2.60031e-01     8.68009e-02    ;  uncertainty sigma = 0.000006, epsilon = 0.000319
 h50bf                                  1      0.0000       0.00000       A     2.60031e-01     8.68009e-02    ;  uncertainty sigma = 0.000006, epsilon = 0.000319

[ moleculetype ]
;name             nrexcl
 MOL                   3

[ atoms ]
;       nr            type      resi   res      atom      cgnr      charge          mass ; qtot
         1            c0bf         1   UNL        c0         1    -0.02584       12.0110 ; qtot   -0.026
         2            c1bf         1   UNL        c1         2    -0.06736       12.0110 ; qtot   -0.093
         3            h2bf         1   UNL        h2         3     0.14163        1.0080 ; qtot    0.048
         4            c3bf         1   UNL        c3         4    -0.15074       12.0110 ; qtot   -0.102
         5            h4bf         1   UNL        h4         5     0.15718        1.0080 ; qtot    0.055
         6            c5bf         1   UNL        c5         6     0.18249       12.0110 ; qtot    0.237
         7            c6bf         1   UNL        c6         7    -0.20439       12.0110 ; qtot    0.033
         8            c7bf         1   UNL        c7         8    -0.06014       12.0110 ; qtot   -0.027
         9            h8bf         1   UNL        h8         9     0.15255        1.0080 ; qtot    0.125
        10            o9bf         1   UNL        o9        10    -0.32527       15.9990 ; qtot   -0.200
        11           c10bf         1   UNL       c10        11     0.16563       12.0110 ; qtot   -0.034
        12           c11bf         1   UNL       c11        12    -0.09875       12.0110 ; qtot   -0.133
        13           h12bf         1   UNL       h12        13     0.09101        1.0080 ; qtot   -0.042
        14           h13bf         1   UNL       h13        14     0.09101        1.0080 ; qtot    0.049
        15           c14bf         1   UNL       c14        15     0.04015       12.0110 ; qtot    0.089
        16           c15bf         1   UNL       c15        16     0.70447       12.0110 ; qtot    0.794
        17           n16bf         1   UNL       n16        17    -0.41729       14.0070 ; qtot    0.376
        18           c17bf         1   UNL       c17        18     0.47248       12.0110 ; qtot    0.849
        19           n18bf         1   UNL       n18        19    -0.37461       14.0070 ; qtot    0.474
        20           h19bf         1   UNL       h19        20     0.35504        1.0080 ; qtot    0.829
        21           c20bf         1   UNL       c20        21    -0.07865       12.0110 ; qtot    0.751
        22           c21bf         1   UNL       c21        22     0.07530       12.0110 ; qtot    0.826
        23           h22bf         1   UNL       h22        23     0.09109        1.0080 ; qtot    0.917
        24           h23bf         1   UNL       h23        24     0.09109        1.0080 ; qtot    1.008
        25           h24bf         1   UNL       h24        25     0.09109        1.0080 ; qtot    1.099
        26           n25bf         1   UNL       n25        26    -0.48596       14.0070 ; qtot    0.613
        27           h26bf         1   UNL       h26        27     0.33929        1.0080 ; qtot    0.953
        28           h27bf         1   UNL       h27        28     0.33929        1.0080 ; qtot    1.292
        29           c28bf         1   UNL       c28        29    -0.09483       12.0110 ; qtot    1.197
        30           h29bf         1   UNL       h29        30     0.13584        1.0080 ; qtot    1.333
        31           c30bf         1   UNL       c30        31    -0.15367       12.0110 ; qtot    1.179
        32           h31bf         1   UNL       h31        32     0.13719        1.0080 ; qtot    1.316
        33           c32bf         1   UNL       c32        33    -0.09224       12.0110 ; qtot    1.224
        34           h33bf         1   UNL       h33        34     0.13702        1.0080 ; qtot    1.361
        35           c34bf         1   UNL       c34        35    -0.20945       12.0110 ; qtot    1.152
        36           h35bf         1   UNL       h35        36     0.13829        1.0080 ; qtot    1.290
        37           c36bf         1   UNL       c36        37     0.14027       12.0110 ; qtot    1.430
        38           o37bf         1   UNL       o37        38    -0.32989       15.9990 ; qtot    1.100
        39           c38bf         1   UNL       c38        39     0.12050       12.0110 ; qtot    1.221
        40           h39bf         1   UNL       h39        40     0.04389        1.0080 ; qtot    1.265
        41           h40bf         1   UNL       h40        41     0.04389        1.0080 ; qtot    1.309
        42           h41bf         1   UNL       h41        42     0.04389        1.0080 ; qtot    1.352
        43           o42bf         1   UNL       o42        43    -0.45182       15.9990 ; qtot    0.901
        44           c43bf         1   UNL       c43        44    -0.10337       12.0110 ; qtot    0.797
        45           h44bf         1   UNL       h44        45     0.05101        1.0080 ; qtot    0.848
        46           h45bf         1   UNL       h45        46     0.05101        1.0080 ; qtot    0.899
        47           h46bf         1   UNL       h46        47     0.05101        1.0080 ; qtot    0.950
        48           c47bf         1   UNL       c47        48    -0.10337       12.0110 ; qtot    0.847
        49           h48bf         1   UNL       h48        49     0.05101        1.0080 ; qtot    0.898
        50           h49bf         1   UNL       h49        50     0.05101        1.0080 ; qtot    0.949
        51           h50bf         1   UNL       h50        51     0.05102        1.0080 ; qtot    1.000

[ bonds ]
;       ai        aj funct               r               k
         1         2     1        0.140400   346192.214404    ;  uncertainty r = 0.000065, k = 4.707701
         1         8     1        0.139648   338408.860986    ;  uncertainty r = 0.000071, k = 4.873882
         1        21     1        0.148302   277878.608154    ;  uncertainty r = 0.000101, k = 10.518096
         2         3     1        0.108714   334204.686670    ;  uncertainty r = 0.000028, k = 1.794149
         2         4     1        0.138713   375603.150049    ;  uncertainty r = 0.000068, k = 2.287899
         4         5     1        0.108788   336617.637061    ;  uncertainty r = 0.000017, k = 1.411956
         4         6     1        0.140086   362230.540576    ;  uncertainty r = 0.000052, k = 3.404686
         6         7     1        0.139987   328983.803418    ;  uncertainty r = 0.000163, k = 7.293714
         6        10     1        0.136368   303578.797510    ;  uncertainty r = 0.000194, k = 10.538338
         7         8     1        0.139532   345812.426514    ;  uncertainty r = 0.000145, k = 6.354952
         7        15     1        0.150678   205784.156250    ;  uncertainty r = 0.000110, k = 20.274105
         8         9     1        0.108743   334851.924707    ;  uncertainty r = 0.000078, k = 4.115687
        10        11     1        0.145422   203859.654150    ;  uncertainty r = 0.000221, k = 9.275516
        11        12     1        0.152936   192803.911694    ;  uncertainty r = 0.000262, k = 11.274623
        11        44     1        0.152325   205847.654272    ;  uncertainty r = 0.000037, k = 5.592240
        11        48     1        0.152325   205847.654272    ;  uncertainty r = 0.000037, k = 5.592251
        12        13     1        0.109477   309561.503809    ;  uncertainty r = 0.000048, k = 2.448473
        12        14     1        0.109477   309561.503809    ;  uncertainty r = 0.000048, k = 2.448473
        12        15     1        0.153041   191194.052319    ;  uncertainty r = 0.000126, k = 21.513832
        15        16     1        0.153598   171646.122900    ;  uncertainty r = 0.000173, k = 14.753175
        15        19     1        0.149698   232215.907178    ;  uncertainty r = 0.000407, k = 51.570416
        16        17     1        0.142413   302839.344971    ;  uncertainty r = 0.000236, k = 75.996174
        16        43     1        0.120112   608584.455469    ;  uncertainty r = 0.000161, k = 10.569144
        17        18     1        0.135836   286250.770703    ;  uncertainty r = 0.000260, k = 52.766102
        17        22     1        0.146741   261825.572607    ;  uncertainty r = 0.000154, k = 17.700649
        18        19     1        0.133610   531287.609180    ;  uncertainty r = 0.000191, k = 37.526813
        18        26     1        0.133101   320485.564160    ;  uncertainty r = 0.000146, k = 40.823703
        19        20     1        0.101578   423262.955127    ;  uncertainty r = 0.000083, k = 11.557068
        21        29     1        0.140193   345300.816064    ;  uncertainty r = 0.000015, k = 4.912338
        21        37     1        0.141176   328172.259619    ;  uncertainty r = 0.000076, k = 8.835307
        22        23     1        0.109172   309495.286084    ;  uncertainty r = 0.000053, k = 3.597993
        22        24     1        0.109172   309495.286084    ;  uncertainty r = 0.000053, k = 3.597993
        22        25     1        0.109172   309495.286084    ;  uncertainty r = 0.000053, k = 3.597993
        26        27     1        0.101405   421785.735498    ;  uncertainty r = 0.000064, k = 13.590763
        26        28     1        0.101405   421785.735498    ;  uncertainty r = 0.000064, k = 13.590763
        29        30     1        0.108771   334176.519238    ;  uncertainty r = 0.000016, k = 1.277422
        29        31     1        0.139442   369079.593311    ;  uncertainty r = 0.000039, k = 1.055553
        31        32     1        0.108799   333241.299219    ;  uncertainty r = 0.000017, k = 1.244923
        31        33     1        0.139511   376450.343652    ;  uncertainty r = 0.000010, k = 1.067420
        33        34     1        0.108769   333383.668604    ;  uncertainty r = 0.000013, k = 0.882712
        33        35     1        0.139529   374273.356152    ;  uncertainty r = 0.000038, k = 3.079518
        35        36     1        0.108753   337995.210889    ;  uncertainty r = 0.000020, k = 0.781422
        35        37     1        0.139932   348385.775488    ;  uncertainty r = 0.000026, k = 2.035090
        37        38     1        0.136998   322701.342529    ;  uncertainty r = 0.000121, k = 4.576731
        38        39     1        0.142513   247109.277051    ;  uncertainty r = 0.000037, k = 3.167098
        39        40     1        0.109558   311349.561133    ;  uncertainty r = 0.000020, k = 1.367673
        39        41     1        0.109558   311349.561133    ;  uncertainty r = 0.000020, k = 1.367673
        39        42     1        0.109558   311349.561133    ;  uncertainty r = 0.000020, k = 1.367673
        44        45     1        0.109545   310467.228467    ;  uncertainty r = 0.000018, k = 1.787238
        44        46     1        0.109545   310467.228467    ;  uncertainty r = 0.000018, k = 1.787238
        44        47     1        0.109545   310467.228467    ;  uncertainty r = 0.000018, k = 1.787238
        48        49     1        0.109545   310467.177393    ;  uncertainty r = 0.000018, k = 1.787245
        48        50     1        0.109545   310467.177393    ;  uncertainty r = 0.000018, k = 1.787234
        48        51     1        0.109545   310467.177393    ;  uncertainty r = 0.000018, k = 1.787245

[ angles ]
;       ai        aj        ak funct           theta             cth
         1         2         3     1      119.564316      279.490925    ;  uncertainty theta = 0.002525, k = 0.098784
         1         2         4     1      120.294388      528.347981    ;  uncertainty theta = 0.003059, k = 0.100110
         1         8         7     1      123.043968      514.844533    ;  uncertainty theta = 0.004293, k = 0.182584
         1         8         9     1      119.456482      285.542614    ;  uncertainty theta = 0.002713, k = 0.073284
         1        21        29     1      120.627823      421.273052    ;  uncertainty theta = 0.004068, k = 0.139703
         1        21        37     1      119.198288      373.796853    ;  uncertainty theta = 0.003653, k = 0.239875
         2         1         8     1      118.834030      426.270026    ;  uncertainty theta = 0.002351, k = 0.140938
         2         1        21     1      121.576218      408.851866    ;  uncertainty theta = 0.001887, k = 0.145306
         2         4         5     1      121.363327      280.107264    ;  uncertainty theta = 0.001508, k = 0.031442
         2         4         6     1      119.502907      502.154409    ;  uncertainty theta = 0.003039, k = 0.155878
         3         2         4     1      119.444130      290.370404    ;  uncertainty theta = 0.001505, k = 0.061886
         4         6         7     1      120.988113      370.564781    ;  uncertainty theta = 0.002804, k = 0.132341
         4         6        10     1      118.414932      539.304551    ;  uncertainty theta = 0.003186, k = 0.119404
         5         4         6     1      120.029160      275.838512    ;  uncertainty theta = 0.003388, k = 0.140058
         6         7         8     1      121.553040      436.941633    ;  uncertainty theta = 0.004620, k = 0.130722
         6         7        15     1      120.067566      415.396900    ;  uncertainty theta = 0.008782, k = 0.219694
         6        10        11     1      114.537888      453.333553    ;  uncertainty theta = 0.006687, k = 0.093699
         7         6        10     1      123.896896      494.205441    ;  uncertainty theta = 0.004024, k = 0.262919
         7         8         9     1      117.720078      267.281697    ;  uncertainty theta = 0.003130, k = 0.134723
         7        15        12     1      110.372864      539.933530    ;  uncertainty theta = 0.001408, k = 0.155688
         7        15        16     1      108.946983      466.381260    ;  uncertainty theta = 0.003845, k = 0.382761
         7        15        19     1      110.459412      616.078039    ;  uncertainty theta = 0.004076, k = 0.312915
         8         1        21     1      120.686012      401.675045    ;  uncertainty theta = 0.002100, k = 0.088196
         8         7        15     1      118.092186      406.285323    ;  uncertainty theta = 0.004093, k = 0.184789
        10        11        12     1      109.104774      651.855785    ;  uncertainty theta = 0.004859, k = 0.084502
        10        11        44     1      107.605125      619.338426    ;  uncertainty theta = 0.001081, k = 0.064685
        10        11        48     1      107.605125      619.338426    ;  uncertainty theta = 0.001081, k = 0.064685
        11        12        13     1      107.678444      386.201185    ;  uncertainty theta = 0.003165, k = 0.032000
        11        12        14     1      107.678444      386.201185    ;  uncertainty theta = 0.003165, k = 0.032000
        11        12        15     1      109.859573      530.089357    ;  uncertainty theta = 0.006963, k = 0.198376
        11        44        45     1      107.221069      387.594393    ;  uncertainty theta = 0.001065, k = 0.069193
        11        44        46     1      107.221069      387.594393    ;  uncertainty theta = 0.001065, k = 0.069193
        11        44        47     1      107.221069      387.594393    ;  uncertainty theta = 0.001065, k = 0.069193
        11        48        49     1      107.221069      387.594393    ;  uncertainty theta = 0.001065, k = 0.069193
        11        48        50     1      107.221069      387.594393    ;  uncertainty theta = 0.001065, k = 0.069193
        11        48        51     1      107.221069      387.594393    ;  uncertainty theta = 0.001065, k = 0.069193
        12        11        44     1      109.374954      548.047052    ;  uncertainty theta = 0.004356, k = 0.115347
        12        11        48     1      109.374954      548.047052    ;  uncertainty theta = 0.004356, k = 0.115347
        12        15        16     1      107.815041      449.614520    ;  uncertainty theta = 0.007030, k = 0.162708
        12        15        19     1      109.812546      627.822301    ;  uncertainty theta = 0.007991, k = 0.271564
        13        12        14     1      106.986496      321.844700    ;  uncertainty theta = 0.004263, k = 0.066652
        13        12        15     1      106.651634      397.354709    ;  uncertainty theta = 0.003140, k = 0.080198
        14        12        15     1      106.651634      397.354709    ;  uncertainty theta = 0.003140, k = 0.080198
        15        16        17     1      110.177444      536.173382    ;  uncertainty theta = 0.011689, k = 0.712083
        15        16        43     1      125.836937      424.636737    ;  uncertainty theta = 0.006696, k = 0.210364
        15        19        18     1      111.019447      602.235713    ;  uncertainty theta = 0.016031, k = 0.385577
        15        19        20     1      118.127907      280.649416    ;  uncertainty theta = 0.015278, k = 0.121870
        16        15        19     1      103.837784      815.585366    ;  uncertainty theta = 0.012174, k = 0.852513
        16        17        18     1      110.293701      728.609291    ;  uncertainty theta = 0.010426, k = 0.320486
        16        17        22     1      119.398109      397.513773    ;  uncertainty theta = 0.006832, k = 0.281808
        17        16        43     1      125.307961      629.051912    ;  uncertainty theta = 0.008036, k = 0.165829
        17        18        19     1      113.250023      720.106327    ;  uncertainty theta = 0.006756, k = 0.305315
        17        18        26     1      125.598953      549.524885    ;  uncertainty theta = 0.008546, k = 0.324469
        17        22        23     1      107.360855      470.851946    ;  uncertainty theta = 0.002522, k = 0.203983
        17        22        24     1      107.360855      470.851946    ;  uncertainty theta = 0.002522, k = 0.203983
        17        22        25     1      107.360855      470.851946    ;  uncertainty theta = 0.002522, k = 0.203983
        18        17        22     1      118.646042      371.786540    ;  uncertainty theta = 0.007230, k = 0.373049
        18        19        20     1      119.824707      355.581520    ;  uncertainty theta = 0.006083, k = 0.153034
        18        26        27     1      114.903091      371.138312    ;  uncertainty theta = 0.001582, k = 0.210952
        18        26        28     1      114.903091      371.138312    ;  uncertainty theta = 0.001582, k = 0.210952
        19        18        26     1      128.730377      637.313550    ;  uncertainty theta = 0.008927, k = 0.256741
        21        29        30     1      117.859642      276.531653    ;  uncertainty theta = 0.002036, k = 0.091468
        21        29        31     1      122.532059      519.911957    ;  uncertainty theta = 0.001016, k = 0.047074
        21        37        35     1      124.817406      378.814224    ;  uncertainty theta = 0.004266, k = 0.145943
        21        37        38     1      116.576012      455.180843    ;  uncertainty theta = 0.005003, k = 0.174899
        23        22        24     1      107.634499      325.466948    ;  uncertainty theta = 0.003233, k = 0.098676
        23        22        25     1      107.634499      325.466948    ;  uncertainty theta = 0.003233, k = 0.098676
        24        22        25     1      107.634499      325.466948    ;  uncertainty theta = 0.003233, k = 0.098676
        27        26        28     1      112.323524      263.743259    ;  uncertainty theta = 0.015210, k = 0.362876
        29        21        37     1      121.054161      426.236860    ;  uncertainty theta = 0.004709, k = 0.220859
        29        31        32     1      120.402542      286.354662    ;  uncertainty theta = 0.000915, k = 0.033694
        29        31        33     1      118.382545      511.958265    ;  uncertainty theta = 0.001118, k = 0.042548
        30        29        31     1      120.390884      290.931040    ;  uncertainty theta = 0.001247, k = 0.046455
        31        33        34     1      120.803665      286.189948    ;  uncertainty theta = 0.000979, k = 0.004200
        31        33        35     1      119.057236      516.098947    ;  uncertainty theta = 0.001916, k = 0.040424
        32        31        33     1      120.863670      287.941953    ;  uncertainty theta = 0.001292, k = 0.024414
        33        35        36     1      120.807312      284.629630    ;  uncertainty theta = 0.001325, k = 0.016608
        33        35        37     1      120.809227      505.890456    ;  uncertainty theta = 0.000785, k = 0.122105
        34        33        35     1      120.236816      282.021302    ;  uncertainty theta = 0.001585, k = 0.069261
        35        37        38     1      119.009071      422.494173    ;  uncertainty theta = 0.003601, k = 0.185972
        36        35        37     1      118.158752      267.560818    ;  uncertainty theta = 0.002140, k = 0.109740
        37        38        39     1      110.797363      504.758268    ;  uncertainty theta = 0.000740, k = 0.037889
        38        39        40     1      108.901566      441.739386    ;  uncertainty theta = 0.001162, k = 0.031999
        38        39        41     1      108.901566      441.739386    ;  uncertainty theta = 0.001162, k = 0.031999
        38        39        42     1      108.901566      441.739386    ;  uncertainty theta = 0.001162, k = 0.031999
        40        39        41     1      109.089767      330.410964    ;  uncertainty theta = 0.001512, k = 0.022343
        40        39        42     1      109.089767      330.410964    ;  uncertainty theta = 0.001512, k = 0.022343
        41        39        42     1      109.089767      330.410964    ;  uncertainty theta = 0.001512, k = 0.022343
        44        11        48     1      110.900230      580.347282    ;  uncertainty theta = 0.002949, k = 0.067890
        45        44        46     1      106.043396      316.610518    ;  uncertainty theta = 0.000878, k = 0.018253
        45        44        47     1      106.043396      316.610518    ;  uncertainty theta = 0.000878, k = 0.018253
        46        44        47     1      106.043396      316.610518    ;  uncertainty theta = 0.000878, k = 0.018253
        49        48        50     1      106.043396      316.610518    ;  uncertainty theta = 0.000878, k = 0.018252
        49        48        51     1      106.043396      316.610518    ;  uncertainty theta = 0.000878, k = 0.018252
        50        48        51     1      106.043396      316.610518    ;  uncertainty theta = 0.000878, k = 0.018252

[ dihedrals ] ; propers for gromacs 4.5 or higher, use funct 9
;       ai        aj        ak        al funct           phase               k        pn
         1         2         4         5     9        0.000000        0.065802         1    ;  uncertainty k = 0.055244
         1         2         4         5     9      180.000000        8.406899         2    ;  uncertainty k = 0.473162
         1         2         4         5     9        0.000000        1.355070         3    ;  uncertainty k = 0.287300
         1         2         4         5     9      180.000000        1.915297         4    ;  uncertainty k = 0.267931
         1         2         4         6     9        0.000000       -0.063022         1    ;  uncertainty k = 0.241254
         1         2         4         6     9      180.000000       14.345259         2    ;  uncertainty k = 0.301933
         1         2         4         6     9        0.000000       -0.447777         3    ;  uncertainty k = 0.442060
         1         2         4         6     9      180.000000        0.894989         4    ;  uncertainty k = 0.231967
         1         8         7         6     9        0.000000       -0.276240         1    ;  uncertainty k = 0.139274
         1         8         7         6     9      180.000000       11.262092         2    ;  uncertainty k = 0.426689
         1         8         7         6     9        0.000000       -0.087554         3    ;  uncertainty k = 0.144760
         1         8         7         6     9      180.000000        1.151121         4    ;  uncertainty k = 0.348980
         1         8         7        15     9        0.000000        0.412175         1    ;  uncertainty k = 0.373936
         1         8         7        15     9      180.000000        8.890751         2    ;  uncertainty k = 0.311340
         1         8         7        15     9        0.000000        1.620686         3    ;  uncertainty k = 0.277330
         1         8         7        15     9      180.000000        1.920184         4    ;  uncertainty k = 0.347915
         1        21        29        30     9        0.000000        0.000747         1    ;  uncertainty k = 0.041816
         1        21        29        30     9      180.000000        7.697824         2    ;  uncertainty k = 0.321251
         1        21        29        30     9        0.000000        0.904966         3    ;  uncertainty k = 0.215099
         1        21        29        30     9      180.000000        1.249885         4    ;  uncertainty k = 0.253893
         1        21        29        31     9        0.000000       -0.001755         1    ;  uncertainty k = 0.343134
         1        21        29        31     9      180.000000        9.439859         2    ;  uncertainty k = 0.613149
         1        21        29        31     9        0.000000        1.217073         3    ;  uncertainty k = 0.430591
         1        21        29        31     9      180.000000        1.787348         4    ;  uncertainty k = 0.199580
         1        21        37        35     9        0.000000        0.126595         1    ;  uncertainty k = 0.306201
         1        21        37        35     9      180.000000        6.513953         2    ;  uncertainty k = 0.187643
         1        21        37        35     9        0.000000        1.243439         3    ;  uncertainty k = 0.312680
         1        21        37        35     9      180.000000        1.532280         4    ;  uncertainty k = 0.233756
         1        21        37        38     9        0.000000       -0.214427         1    ;  uncertainty k = 0.750799
         1        21        37        38     9      180.000000       10.676338         2    ;  uncertainty k = 0.436586
         1        21        37        38     9        0.000000        0.903799         3    ;  uncertainty k = 0.262404
         1        21        37        38     9      180.000000        1.342274         4    ;  uncertainty k = 0.230260
         2         1         8         7     9        0.000000        0.139216         1    ;  uncertainty k = 0.360578
         2         1         8         7     9      180.000000       10.774228         2    ;  uncertainty k = 0.375509
         2         1         8         7     9        0.000000       -0.203454         3    ;  uncertainty k = 0.362478
         2         1         8         7     9      180.000000        1.145572         4    ;  uncertainty k = 0.416014
         2         1         8         9     9        0.000000        0.227742         1    ;  uncertainty k = 0.229848
         2         1         8         9     9      180.000000        7.384946         2    ;  uncertainty k = 0.570060
         2         1         8         9     9        0.000000        1.397669         3    ;  uncertainty k = 0.226351
         2         1         8         9     9      180.000000        1.690891         4    ;  uncertainty k = 0.263536
         2         1        21        29     9        0.000000       -0.451454         1    ;  uncertainty k = 0.164435
         2         1        21        29     9      180.000000        5.019991         2    ;  uncertainty k = 0.112223
         2         1        21        29     9        0.000000        0.294088         3    ;  uncertainty k = 0.115062
         2         1        21        29     9      180.000000        0.493393         4    ;  uncertainty k = 0.067431
         2         1        21        37     9        0.000000        0.765347         1    ;  uncertainty k = 0.409512
         2         1        21        37     9      180.000000        4.965182         2    ;  uncertainty k = 0.126101
         2         1        21        37     9        0.000000        0.357975         3    ;  uncertainty k = 0.127204
         2         1        21        37     9      180.000000        0.639653         4    ;  uncertainty k = 0.170156
         2         4         6         7     9        0.000000        0.222748         1    ;  uncertainty k = 0.436695
         2         4         6         7     9      180.000000        7.815766         2    ;  uncertainty k = 0.525354
         2         4         6         7     9        0.000000        0.215232         3    ;  uncertainty k = 0.531417
         2         4         6         7     9      180.000000        1.311553         4    ;  uncertainty k = 0.239900
         2         4         6        10     9        0.000000        0.340663         1    ;  uncertainty k = 0.237834
         2         4         6        10     9      180.000000       11.484195         2    ;  uncertainty k = 0.290347
         2         4         6        10     9        0.000000        1.308573         3    ;  uncertainty k = 0.230555
         2         4         6        10     9      180.000000        1.530029         4    ;  uncertainty k = 0.151297
         3         2         1         8     9        0.000000        0.285088         1    ;  uncertainty k = 0.273734
         3         2         1         8     9      180.000000        6.736318         2    ;  uncertainty k = 0.510767
         3         2         1         8     9        0.000000        1.374127         3    ;  uncertainty k = 0.249877
         3         2         1         8     9      180.000000        1.587699         4    ;  uncertainty k = 0.304150
         3         2         1        21     9        0.000000       -0.158546         1    ;  uncertainty k = 0.362261
         3         2         1        21     9      180.000000        7.143945         2    ;  uncertainty k = 0.237971
         3         2         1        21     9        0.000000        0.742952         3    ;  uncertainty k = 0.186272
         3         2         1        21     9      180.000000        1.215935         4    ;  uncertainty k = 0.139285
         3         2         4         5     9        0.000000        0.004359         1    ;  uncertainty k = 0.319361
         3         2         4         5     9      180.000000        7.989417         2    ;  uncertainty k = 0.286898
         3         2         4         5     9        0.000000       -0.420759         3    ;  uncertainty k = 0.354829
         3         2         4         5     9      180.000000        0.186915         4    ;  uncertainty k = 0.129193
         3         2         4         6     9        0.000000        0.279253         1    ;  uncertainty k = 0.235379
         3         2         4         6     9      180.000000        8.787234         2    ;  uncertainty k = 0.412660
         3         2         4         6     9        0.000000        1.317726         3    ;  uncertainty k = 0.301995
         3         2         4         6     9      180.000000        1.727583         4    ;  uncertainty k = 0.229664
         4         2         1         8     9        0.000000       -0.023783         1    ;  uncertainty k = 0.147503
         4         2         1         8     9      180.000000       10.560822         2    ;  uncertainty k = 0.214535
         4         2         1         8     9        0.000000       -0.349145         3    ;  uncertainty k = 0.248217
         4         2         1         8     9      180.000000        1.079600         4    ;  uncertainty k = 0.194359
         4         2         1        21     9        0.000000        0.077821         1    ;  uncertainty k = 0.353008
         4         2         1        21     9      180.000000        8.111241         2    ;  uncertainty k = 0.546714
         4         2         1        21     9        0.000000        1.171174         3    ;  uncertainty k = 0.292970
         4         2         1        21     9      180.000000        1.873230         4    ;  uncertainty k = 0.168947
         4         6         7         8     9        0.000000       -0.034312         1    ;  uncertainty k = 0.187253
         4         6         7         8     9      180.000000        6.934932         2    ;  uncertainty k = 0.449138
         4         6         7         8     9        0.000000        0.371193         3    ;  uncertainty k = 0.286673
         4         6         7         8     9      180.000000        1.356800         4    ;  uncertainty k = 0.255499
         4         6         7        15     9        0.000000        0.348936         1    ;  uncertainty k = 0.173792
         4         6         7        15     9      180.000000        5.007785         2    ;  uncertainty k = 0.411252
         4         6         7        15     9        0.000000        1.468368         3    ;  uncertainty k = 0.261774
         4         6         7        15     9      180.000000        1.669236         4    ;  uncertainty k = 0.209865
         4         6        10        11     9        0.000000       -0.006125         1    ;  uncertainty k = 0.860183
         4         6        10        11     9      180.000000        1.463693         2    ;  uncertainty k = 0.468672
         4         6        10        11     9        0.000000        0.942767         3    ;  uncertainty k = 0.141382
         4         6        10        11     9      180.000000        0.269400         4    ;  uncertainty k = 0.169428
         5         4         6         7     9        0.000000        0.319225         1    ;  uncertainty k = 0.558349
         5         4         6         7     9      180.000000        5.772400         2    ;  uncertainty k = 0.428880
         5         4         6         7     9        0.000000        1.337221         3    ;  uncertainty k = 0.195636
         5         4         6         7     9      180.000000        1.401976         4    ;  uncertainty k = 0.132735
         5         4         6        10     9        0.000000       -0.143362         1    ;  uncertainty k = 0.595170
         5         4         6        10     9      180.000000        8.971332         2    ;  uncertainty k = 0.422660
         5         4         6        10     9        0.000000        0.767158         3    ;  uncertainty k = 0.278987
         5         4         6        10     9      180.000000        1.249859         4    ;  uncertainty k = 0.280971
         6         7         8         9     9        0.000000        0.275042         1    ;  uncertainty k = 0.449297
         6         7         8         9     9      180.000000        7.916472         2    ;  uncertainty k = 0.711966
         6         7         8         9     9        0.000000        1.270012         3    ;  uncertainty k = 0.237949
         6         7         8         9     9      180.000000        1.649633         4    ;  uncertainty k = 0.157022
         6         7        15        12     9        0.000000       -0.553827         1    ;  uncertainty k = 1.466850
         6         7        15        12     9      180.000000        0.634513         2    ;  uncertainty k = 0.585095
         6         7        15        12     9        0.000000        0.297861         3    ;  uncertainty k = 0.330860
         6         7        15        12     9      180.000000        0.274107         4    ;  uncertainty k = 0.208341
         6         7        15        16     9        0.000000        2.102713         1    ;  uncertainty k = 2.528118
         6         7        15        16     9      180.000000        0.546699         2    ;  uncertainty k = 1.018066
         6         7        15        16     9        0.000000        0.457522         3    ;  uncertainty k = 0.289759
         6         7        15        16     9      180.000000        0.336866         4    ;  uncertainty k = 0.183129
         6         7        15        19     9        0.000000       -1.847814         1    ;  uncertainty k = 1.697254
         6         7        15        19     9      180.000000        1.430867         2    ;  uncertainty k = 0.383928
         6         7        15        19     9        0.000000        0.601224         3    ;  uncertainty k = 0.476577
         6         7        15        19     9      180.000000        0.025936         4    ;  uncertainty k = 0.174308
         6        10        11        12     9        0.000000        4.367105         1    ;  uncertainty k = 0.568224
         6        10        11        12     9      180.000000       -1.721484         2    ;  uncertainty k = 1.273231
         6        10        11        12     9        0.000000       -0.456864         3    ;  uncertainty k = 0.472174
         6        10        11        12     9      180.000000        0.328459         4    ;  uncertainty k = 0.236646
         6        10        11        44     9        0.000000       -1.366437         1    ;  uncertainty k = 0.443901
         6        10        11        44     9      180.000000        1.117989         2    ;  uncertainty k = 0.670204
         6        10        11        44     9        0.000000        0.420512         3    ;  uncertainty k = 0.232671
         6        10        11        44     9      180.000000        0.169724         4    ;  uncertainty k = 0.171412
         6        10        11        48     9        0.000000       -1.366437         1    ;  uncertainty k = 0.443902
         6        10        11        48     9      180.000000        1.117989         2    ;  uncertainty k = 0.670204
         6        10        11        48     9        0.000000        0.420512         3    ;  uncertainty k = 0.232671
         6        10        11        48     9      180.000000        0.169723         4    ;  uncertainty k = 0.171412
         7         6        10        11     9        0.000000        4.306089         1    ;  uncertainty k = 1.768450
         7         6        10        11     9      180.000000       -1.360043         2    ;  uncertainty k = 1.430513
         7         6        10        11     9        0.000000       -0.393906         3    ;  uncertainty k = 0.710259
         7         6        10        11     9      180.000000        0.655626         4    ;  uncertainty k = 0.252123
         7         8         1        21     9        0.000000        0.448564         1    ;  uncertainty k = 0.472326
         7         8         1        21     9      180.000000        8.735272         2    ;  uncertainty k = 0.371916
         7         8         1        21     9        0.000000        1.403312         3    ;  uncertainty k = 0.263338
         7         8         1        21     9      180.000000        1.738733         4    ;  uncertainty k = 0.071456
         7        15        12        11     9        0.000000        1.962874         1    ;  uncertainty k = 1.227303
         7        15        12        11     9      180.000000       -1.078195         2    ;  uncertainty k = 0.502447
         7        15        12        11     9        0.000000        0.369332         3    ;  uncertainty k = 0.176636
         7        15        12        11     9      180.000000       -0.278406         4    ;  uncertainty k = 0.249392
         7        15        12        13     9        0.000000       -0.179115         1    ;  uncertainty k = 0.140621
         7        15        12        13     9      180.000000        0.089626         2    ;  uncertainty k = 0.458906
         7        15        12        13     9        0.000000        0.456477         3    ;  uncertainty k = 0.237033
         7        15        12        13     9      180.000000       -0.095026         4    ;  uncertainty k = 0.141404
         7        15        12        14     9        0.000000       -0.179115         1    ;  uncertainty k = 0.140621
         7        15        12        14     9      180.000000        0.089626         2    ;  uncertainty k = 0.458906
         7        15        12        14     9        0.000000        0.456477         3    ;  uncertainty k = 0.237033
         7        15        12        14     9      180.000000       -0.095026         4    ;  uncertainty k = 0.141404
         7        15        16        17     9        0.000000       -2.280413         1    ;  uncertainty k = 2.717070
         7        15        16        17     9      180.000000        2.456410         2    ;  uncertainty k = 1.222701
         7        15        16        17     9        0.000000        1.453247         3    ;  uncertainty k = 0.188384
         7        15        16        17     9      180.000000        0.681716         4    ;  uncertainty k = 0.441731
         7        15        16        43     9        0.000000       -0.746003         1    ;  uncertainty k = 2.339484
         7        15        16        43     9      180.000000        3.144072         2    ;  uncertainty k = 0.500305
         7        15        16        43     9        0.000000        0.221997         3    ;  uncertainty k = 0.280086
         7        15        16        43     9      180.000000        0.150864         4    ;  uncertainty k = 0.276471
         7        15        19        18     9        0.000000        0.863487         1    ;  uncertainty k = 1.247542
         7        15        19        18     9      180.000000        0.544771         2    ;  uncertainty k = 0.542404
         7        15        19        18     9        0.000000        0.864494         3    ;  uncertainty k = 0.370882
         7        15        19        18     9      180.000000        0.387103         4    ;  uncertainty k = 0.143944
         7        15        19        20     9        0.000000        0.953249         1    ;  uncertainty k = 2.750545
         7        15        19        20     9      180.000000       -1.060847         2    ;  uncertainty k = 1.247198
         7        15        19        20     9        0.000000        0.527755         3    ;  uncertainty k = 0.498974
         7        15        19        20     9      180.000000       -0.043718         4    ;  uncertainty k = 0.110692
         8         1        21        29     9        0.000000       -0.513339         1    ;  uncertainty k = 0.371195
         8         1        21        29     9      180.000000        5.182502         2    ;  uncertainty k = 0.179434
         8         1        21        29     9        0.000000        0.320036         3    ;  uncertainty k = 0.255816
         8         1        21        29     9      180.000000        0.513732         4    ;  uncertainty k = 0.134576
         8         1        21        37     9        0.000000        0.910788         1    ;  uncertainty k = 0.437189
         8         1        21        37     9      180.000000        5.146865         2    ;  uncertainty k = 0.467390
         8         1        21        37     9        0.000000        0.219994         3    ;  uncertainty k = 0.223327
         8         1        21        37     9      180.000000        0.644491         4    ;  uncertainty k = 0.219272
         8         7         6        10     9        0.000000        0.482118         1    ;  uncertainty k = 0.316373
         8         7         6        10     9      180.000000        8.126281         2    ;  uncertainty k = 0.238138
         8         7         6        10     9        0.000000        1.530439         3    ;  uncertainty k = 0.298190
         8         7         6        10     9      180.000000        1.559432         4    ;  uncertainty k = 0.189588
         8         7        15        12     9        0.000000       -0.653518         1    ;  uncertainty k = 1.123487
         8         7        15        12     9      180.000000        0.996457         2    ;  uncertainty k = 0.427576
         8         7        15        12     9        0.000000       -0.295726         3    ;  uncertainty k = 0.351840
         8         7        15        12     9      180.000000        0.166972         4    ;  uncertainty k = 0.181972
         8         7        15        16     9        0.000000        0.897828         1    ;  uncertainty k = 1.997177
         8         7        15        16     9      180.000000        0.175550         2    ;  uncertainty k = 0.582537
         8         7        15        16     9        0.000000        0.130634         3    ;  uncertainty k = 0.276472
         8         7        15        16     9      180.000000        0.308874         4    ;  uncertainty k = 0.130496
         8         7        15        19     9        0.000000       -0.362363         1    ;  uncertainty k = 0.932079
         8         7        15        19     9      180.000000        1.991794         2    ;  uncertainty k = 0.381023
         8         7        15        19     9        0.000000       -0.064343         3    ;  uncertainty k = 0.357874
         8         7        15        19     9      180.000000        0.089982         4    ;  uncertainty k = 0.243765
         9         8         1        21     9        0.000000       -0.074631         1    ;  uncertainty k = 0.214478
         9         8         1        21     9      180.000000        7.572091         2    ;  uncertainty k = 0.276975
         9         8         1        21     9        0.000000        0.880191         3    ;  uncertainty k = 0.211546
         9         8         1        21     9      180.000000        1.377031         4    ;  uncertainty k = 0.094288
         9         8         7        15     9        0.000000       -0.356901         1    ;  uncertainty k = 0.433640
         9         8         7        15     9      180.000000        6.813677         2    ;  uncertainty k = 0.309641
         9         8         7        15     9        0.000000        0.955233         3    ;  uncertainty k = 0.307984
         9         8         7        15     9      180.000000        1.268812         4    ;  uncertainty k = 0.243795
        10         6         7        15     9        0.000000        0.498339         1    ;  uncertainty k = 0.988076
        10         6         7        15     9      180.000000        5.670085         2    ;  uncertainty k = 0.712561
        10         6         7        15     9        0.000000        1.748936         3    ;  uncertainty k = 0.456836
        10         6         7        15     9      180.000000        1.062497         4    ;  uncertainty k = 0.416589
        10        11        12        13     9        0.000000       -1.286356         1    ;  uncertainty k = 0.418982
        10        11        12        13     9      180.000000       -0.843337         2    ;  uncertainty k = 0.564487
        10        11        12        13     9        0.000000        0.398057         3    ;  uncertainty k = 0.233267
        10        11        12        13     9      180.000000       -0.189590         4    ;  uncertainty k = 0.165011
        10        11        12        14     9        0.000000       -1.286356         1    ;  uncertainty k = 0.418982
        10        11        12        14     9      180.000000       -0.843337         2    ;  uncertainty k = 0.564487
        10        11        12        14     9        0.000000        0.398057         3    ;  uncertainty k = 0.233267
        10        11        12        14     9      180.000000       -0.189590         4    ;  uncertainty k = 0.165011
        10        11        12        15     9        0.000000        7.476953         1    ;  uncertainty k = 0.712372
        10        11        12        15     9      180.000000       -4.264126         2    ;  uncertainty k = 1.996417
        10        11        12        15     9        0.000000       -0.268865         3    ;  uncertainty k = 0.560592
        10        11        12        15     9      180.000000       -0.018620         4    ;  uncertainty k = 0.403704
        10        11        44        45     9        0.000000       -0.556686         1    ;  uncertainty k = 0.641512
        10        11        44        45     9      180.000000       -2.127823         2    ;  uncertainty k = 0.599046
        10        11        44        45     9        0.000000        0.863808         3    ;  uncertainty k = 0.110663
        10        11        44        45     9      180.000000       -0.195070         4    ;  uncertainty k = 0.150406
        10        11        44        46     9        0.000000       -0.556686         1    ;  uncertainty k = 0.641512
        10        11        44        46     9      180.000000       -2.127823         2    ;  uncertainty k = 0.599046
        10        11        44        46     9        0.000000        0.863808         3    ;  uncertainty k = 0.110663
        10        11        44        46     9      180.000000       -0.195070         4    ;  uncertainty k = 0.150406
        10        11        44        47     9        0.000000       -0.556686         1    ;  uncertainty k = 0.641512
        10        11        44        47     9      180.000000       -2.127823         2    ;  uncertainty k = 0.599046
        10        11        44        47     9        0.000000        0.863808         3    ;  uncertainty k = 0.110663
        10        11        44        47     9      180.000000       -0.195070         4    ;  uncertainty k = 0.150406
        10        11        48        49     9        0.000000       -0.556686         1    ;  uncertainty k = 0.641512
        10        11        48        49     9      180.000000       -2.127824         2    ;  uncertainty k = 0.599046
        10        11        48        49     9        0.000000        0.863808         3    ;  uncertainty k = 0.110662
        10        11        48        49     9      180.000000       -0.195070         4    ;  uncertainty k = 0.150407
        10        11        48        50     9        0.000000       -0.556686         1    ;  uncertainty k = 0.641512
        10        11        48        50     9      180.000000       -2.127824         2    ;  uncertainty k = 0.599046
        10        11        48        50     9        0.000000        0.863808         3    ;  uncertainty k = 0.110662
        10        11        48        50     9      180.000000       -0.195070         4    ;  uncertainty k = 0.150407
        10        11        48        51     9        0.000000       -0.556686         1    ;  uncertainty k = 0.641512
        10        11        48        51     9      180.000000       -2.127824         2    ;  uncertainty k = 0.599046
        10        11        48        51     9        0.000000        0.863808         3    ;  uncertainty k = 0.110662
        10        11        48        51     9      180.000000       -0.195070         4    ;  uncertainty k = 0.150407
        11        12        15        16     9        0.000000       -1.228977         1    ;  uncertainty k = 1.347492
        11        12        15        16     9      180.000000       -0.515847         2    ;  uncertainty k = 0.500825
        11        12        15        16     9        0.000000        0.433214         3    ;  uncertainty k = 0.247205
        11        12        15        16     9      180.000000       -0.080465         4    ;  uncertainty k = 0.226810
        11        12        15        19     9        0.000000       -2.978696         1    ;  uncertainty k = 1.009147
        11        12        15        19     9      180.000000       -1.349812         2    ;  uncertainty k = 1.012802
        11        12        15        19     9        0.000000        1.198772         3    ;  uncertainty k = 0.505782
        11        12        15        19     9      180.000000        0.002053         4    ;  uncertainty k = 0.225805
        12        11        44        45     9        0.000000       -0.810618         1    ;  uncertainty k = 0.476463
        12        11        44        45     9      180.000000       -0.740442         2    ;  uncertainty k = 0.208397
        12        11        44        45     9        0.000000        0.585176         3    ;  uncertainty k = 0.093112
        12        11        44        45     9      180.000000       -0.179618         4    ;  uncertainty k = 0.029902
        12        11        44        46     9        0.000000       -0.810618         1    ;  uncertainty k = 0.476463
        12        11        44        46     9      180.000000       -0.740442         2    ;  uncertainty k = 0.208397
        12        11        44        46     9        0.000000        0.585176         3    ;  uncertainty k = 0.093112
        12        11        44        46     9      180.000000       -0.179618         4    ;  uncertainty k = 0.029902
        12        11        44        47     9        0.000000       -0.810618         1    ;  uncertainty k = 0.476463
        12        11        44        47     9      180.000000       -0.740442         2    ;  uncertainty k = 0.208397
        12        11        44        47     9        0.000000        0.585176         3    ;  uncertainty k = 0.093112
        12        11        44        47     9      180.000000       -0.179618         4    ;  uncertainty k = 0.029902
        12        11        48        49     9        0.000000       -0.810618         1    ;  uncertainty k = 0.476463
        12        11        48        49     9      180.000000       -0.740442         2    ;  uncertainty k = 0.208397
        12        11        48        49     9        0.000000        0.585176         3    ;  uncertainty k = 0.093112
        12        11        48        49     9      180.000000       -0.179618         4    ;  uncertainty k = 0.029902
        12        11        48        50     9        0.000000       -0.810618         1    ;  uncertainty k = 0.476463
        12        11        48        50     9      180.000000       -0.740442         2    ;  uncertainty k = 0.208397
        12        11        48        50     9        0.000000        0.585176         3    ;  uncertainty k = 0.093112
        12        11        48        50     9      180.000000       -0.179618         4    ;  uncertainty k = 0.029902
        12        11        48        51     9        0.000000       -0.810618         1    ;  uncertainty k = 0.476463
        12        11        48        51     9      180.000000       -0.740442         2    ;  uncertainty k = 0.208397
        12        11        48        51     9        0.000000        0.585176         3    ;  uncertainty k = 0.093112
        12        11        48        51     9      180.000000       -0.179618         4    ;  uncertainty k = 0.029902
        12        15        16        17     9        0.000000       -3.062352         1    ;  uncertainty k = 1.276838
        12        15        16        17     9      180.000000        2.894126         2    ;  uncertainty k = 0.258588
        12        15        16        17     9        0.000000        0.860445         3    ;  uncertainty k = 0.091746
        12        15        16        17     9      180.000000        0.587117         4    ;  uncertainty k = 0.338989
        12        15        16        43     9        0.000000       -0.574291         1    ;  uncertainty k = 2.046095
        12        15        16        43     9      180.000000        3.928920         2    ;  uncertainty k = 1.075276
        12        15        16        43     9        0.000000        0.161227         3    ;  uncertainty k = 0.381110
        12        15        16        43     9      180.000000        0.057219         4    ;  uncertainty k = 0.338211
        12        15        19        18     9        0.000000       -0.720184         1    ;  uncertainty k = 0.363423
        12        15        19        18     9      180.000000        1.466373         2    ;  uncertainty k = 0.671881
        12        15        19        18     9        0.000000        0.362475         3    ;  uncertainty k = 0.242092
        12        15        19        18     9      180.000000        0.276220         4    ;  uncertainty k = 0.143829
        12        15        19        20     9        0.000000        1.014477         1    ;  uncertainty k = 3.207549
        12        15        19        20     9      180.000000       -0.447186         2    ;  uncertainty k = 0.880593
        12        15        19        20     9        0.000000        0.406773         3    ;  uncertainty k = 0.479851
        12        15        19        20     9      180.000000        0.075628         4    ;  uncertainty k = 0.078934
        13        12        11        44     9        0.000000       -0.868528         1    ;  uncertainty k = 0.359709
        13        12        11        44     9      180.000000        0.339050         2    ;  uncertainty k = 0.271426
        13        12        11        44     9        0.000000        0.030221         3    ;  uncertainty k = 0.169820
        13        12        11        44     9      180.000000       -0.198172         4    ;  uncertainty k = 0.102798
        13        12        11        48     9        0.000000       -0.868529         1    ;  uncertainty k = 0.359708
        13        12        11        48     9      180.000000        0.339049         2    ;  uncertainty k = 0.271427
        13        12        11        48     9        0.000000        0.030221         3    ;  uncertainty k = 0.169820
        13        12        11        48     9      180.000000       -0.198172         4    ;  uncertainty k = 0.102797
        13        12        15        16     9        0.000000        0.636693         1    ;  uncertainty k = 0.443881
        13        12        15        16     9      180.000000       -1.082831         2    ;  uncertainty k = 0.432291
        13        12        15        16     9        0.000000        0.083911         3    ;  uncertainty k = 0.203429
        13        12        15        16     9      180.000000       -0.053905         4    ;  uncertainty k = 0.095175
        13        12        15        19     9        0.000000       -1.014378         1    ;  uncertainty k = 0.666770
        13        12        15        19     9      180.000000       -0.206347         2    ;  uncertainty k = 0.431023
        13        12        15        19     9        0.000000        0.529827         3    ;  uncertainty k = 0.228576
        13        12        15        19     9      180.000000       -0.286824         4    ;  uncertainty k = 0.129461
        14        12        11        44     9        0.000000       -0.868528         1    ;  uncertainty k = 0.359709
        14        12        11        44     9      180.000000        0.339050         2    ;  uncertainty k = 0.271426
        14        12        11        44     9        0.000000        0.030221         3    ;  uncertainty k = 0.169820
        14        12        11        44     9      180.000000       -0.198172         4    ;  uncertainty k = 0.102798
        14        12        11        48     9        0.000000       -0.868529         1    ;  uncertainty k = 0.359708
        14        12        11        48     9      180.000000        0.339049         2    ;  uncertainty k = 0.271427
        14        12        11        48     9        0.000000        0.030221         3    ;  uncertainty k = 0.169820
        14        12        11        48     9      180.000000       -0.198172         4    ;  uncertainty k = 0.102797
        14        12        15        16     9        0.000000        0.636693         1    ;  uncertainty k = 0.443881
        14        12        15        16     9      180.000000       -1.082831         2    ;  uncertainty k = 0.432291
        14        12        15        16     9        0.000000        0.083911         3    ;  uncertainty k = 0.203429
        14        12        15        16     9      180.000000       -0.053905         4    ;  uncertainty k = 0.095175
        14        12        15        19     9        0.000000       -1.014378         1    ;  uncertainty k = 0.666770
        14        12        15        19     9      180.000000       -0.206347         2    ;  uncertainty k = 0.431023
        14        12        15        19     9        0.000000        0.529827         3    ;  uncertainty k = 0.228576
        14        12        15        19     9      180.000000       -0.286824         4    ;  uncertainty k = 0.129461
        15        12        11        44     9        0.000000       -0.394044         1    ;  uncertainty k = 0.952251
        15        12        11        44     9      180.000000       -0.298783         2    ;  uncertainty k = 0.210059
        15        12        11        44     9        0.000000        0.102279         3    ;  uncertainty k = 0.252570
        15        12        11        44     9      180.000000       -0.158350         4    ;  uncertainty k = 0.062640
        15        12        11        48     9        0.000000       -0.394043         1    ;  uncertainty k = 0.952251
        15        12        11        48     9      180.000000       -0.298783         2    ;  uncertainty k = 0.210059
        15        12        11        48     9        0.000000        0.102279         3    ;  uncertainty k = 0.252570
        15        12        11        48     9      180.000000       -0.158350         4    ;  uncertainty k = 0.062640
        15        16        17        18     9        0.000000        3.190561         1    ;  uncertainty k = 2.129281
        15        16        17        18     9      180.000000        4.165519         2    ;  uncertainty k = 2.103256
        15        16        17        18     9        0.000000       -0.163635         3    ;  uncertainty k = 0.825879
        15        16        17        18     9      180.000000        0.629686         4    ;  uncertainty k = 0.355314
        15        16        17        22     9        0.000000        4.948396         1    ;  uncertainty k = 2.742746
        15        16        17        22     9      180.000000        3.665593         2    ;  uncertainty k = 2.655464
        15        16        17        22     9        0.000000        1.132038         3    ;  uncertainty k = 0.860258
        15        16        17        22     9      180.000000        0.328976         4    ;  uncertainty k = 0.593115
        15        19        18        17     9        0.000000        1.152348         1    ;  uncertainty k = 2.624976
        15        19        18        17     9      180.000000       15.352878         2    ;  uncertainty k = 0.482589
        15        19        18        17     9        0.000000       -0.706328         3    ;  uncertainty k = 1.011989
        15        19        18        17     9      180.000000       -0.606107         4    ;  uncertainty k = 0.206718
        15        19        18        26     9        0.000000        3.692759         1    ;  uncertainty k = 0.866357
        15        19        18        26     9      180.000000       11.333779         2    ;  uncertainty k = 0.611404
        15        19        18        26     9        0.000000        0.314849         3    ;  uncertainty k = 0.239644
        15        19        18        26     9      180.000000       -0.482788         4    ;  uncertainty k = 0.513934
        16        15        19        18     9        0.000000        1.075900         1    ;  uncertainty k = 0.686753
        16        15        19        18     9      180.000000        2.337056         2    ;  uncertainty k = 0.668402
        16        15        19        18     9        0.000000        0.174345         3    ;  uncertainty k = 0.624028
        16        15        19        18     9      180.000000        0.491041         4    ;  uncertainty k = 0.337525
        16        15        19        20     9        0.000000        1.870132         1    ;  uncertainty k = 2.124003
        16        15        19        20     9      180.000000       -0.788361         2    ;  uncertainty k = 0.765206
        16        15        19        20     9        0.000000        0.063928         3    ;  uncertainty k = 0.474210
        16        15        19        20     9      180.000000        0.018852         4    ;  uncertainty k = 0.243518
        16        17        18        19     9        0.000000       -0.598871         1    ;  uncertainty k = 1.517512
        16        17        18        19     9      180.000000        9.023777         2    ;  uncertainty k = 0.890262
        16        17        18        19     9        0.000000       -1.321226         3    ;  uncertainty k = 1.261849
        16        17        18        19     9      180.000000       -0.043685         4    ;  uncertainty k = 0.510427
        16        17        18        26     9        0.000000       -0.742539         1    ;  uncertainty k = 0.884320
        16        17        18        26     9      180.000000        6.821150         2    ;  uncertainty k = 1.300514
        16        17        18        26     9        0.000000        0.216631         3    ;  uncertainty k = 0.558836
        16        17        18        26     9      180.000000       -0.098970         4    ;  uncertainty k = 0.493923
        16        17        22        23     9        0.000000        0.297431         1    ;  uncertainty k = 0.338022
        16        17        22        23     9      180.000000        0.087168         2    ;  uncertainty k = 0.381934
        16        17        22        23     9        0.000000        0.347193         3    ;  uncertainty k = 0.232215
        16        17        22        23     9      180.000000        0.291096         4    ;  uncertainty k = 0.074538
        16        17        22        24     9        0.000000        0.297431         1    ;  uncertainty k = 0.338022
        16        17        22        24     9      180.000000        0.087168         2    ;  uncertainty k = 0.381934
        16        17        22        24     9        0.000000        0.347193         3    ;  uncertainty k = 0.232215
        16        17        22        24     9      180.000000        0.291096         4    ;  uncertainty k = 0.074538
        16        17        22        25     9        0.000000        0.297431         1    ;  uncertainty k = 0.338022
        16        17        22        25     9      180.000000        0.087168         2    ;  uncertainty k = 0.381934
        16        17        22        25     9        0.000000        0.347193         3    ;  uncertainty k = 0.232215
        16        17        22        25     9      180.000000        0.291096         4    ;  uncertainty k = 0.074538
        17        16        15        19     9        0.000000       -0.734671         1    ;  uncertainty k = 2.407400
        17        16        15        19     9      180.000000        6.965370         2    ;  uncertainty k = 1.234532
        17        16        15        19     9        0.000000        0.624658         3    ;  uncertainty k = 0.577005
        17        16        15        19     9      180.000000        0.290059         4    ;  uncertainty k = 0.846479
        17        18        19        20     9        0.000000        4.051322         1    ;  uncertainty k = 3.391115
        17        18        19        20     9      180.000000       10.697180         2    ;  uncertainty k = 0.526601
        17        18        19        20     9        0.000000        1.093668         3    ;  uncertainty k = 0.752546
        17        18        19        20     9      180.000000       -0.389374         4    ;  uncertainty k = 0.265720
        17        18        26        27     9        0.000000        8.080941         1    ;  uncertainty k = 2.061712
        17        18        26        27     9      180.000000        9.353073         2    ;  uncertainty k = 0.455751
        17        18        26        27     9        0.000000        0.960301         3    ;  uncertainty k = 0.478476
        17        18        26        27     9      180.000000       -0.922267         4    ;  uncertainty k = 0.215681
        17        18        26        28     9        0.000000        8.080941         1    ;  uncertainty k = 2.061712
        17        18        26        28     9      180.000000        9.353073         2    ;  uncertainty k = 0.455751
        17        18        26        28     9        0.000000        0.960301         3    ;  uncertainty k = 0.478476
        17        18        26        28     9      180.000000       -0.922267         4    ;  uncertainty k = 0.215681
        18        17        16        43     9        0.000000       -0.225774         1    ;  uncertainty k = 3.237560
        18        17        16        43     9      180.000000        7.660703         2    ;  uncertainty k = 0.931236
        18        17        16        43     9        0.000000        0.373526         3    ;  uncertainty k = 0.816132
        18        17        16        43     9      180.000000        0.053274         4    ;  uncertainty k = 0.298389
        18        17        22        23     9        0.000000       -0.260671         1    ;  uncertainty k = 0.510831
        18        17        22        23     9      180.000000       -1.123799         2    ;  uncertainty k = 0.505443
        18        17        22        23     9        0.000000        0.381297         3    ;  uncertainty k = 0.163929
        18        17        22        23     9      180.000000        0.194836         4    ;  uncertainty k = 0.041789
        18        17        22        24     9        0.000000       -0.260671         1    ;  uncertainty k = 0.510831
        18        17        22        24     9      180.000000       -1.123799         2    ;  uncertainty k = 0.505443
        18        17        22        24     9        0.000000        0.381297         3    ;  uncertainty k = 0.163929
        18        17        22        24     9      180.000000        0.194836         4    ;  uncertainty k = 0.041789
        18        17        22        25     9        0.000000       -0.260671         1    ;  uncertainty k = 0.510831
        18        17        22        25     9      180.000000       -1.123799         2    ;  uncertainty k = 0.505443
        18        17        22        25     9        0.000000        0.381297         3    ;  uncertainty k = 0.163929
        18        17        22        25     9      180.000000        0.194836         4    ;  uncertainty k = 0.041789
        19        15        16        43     9        0.000000        0.024535         1    ;  uncertainty k = 2.213975
        19        15        16        43     9      180.000000        4.149250         2    ;  uncertainty k = 1.312393
        19        15        16        43     9        0.000000        0.407423         3    ;  uncertainty k = 0.206510
        19        15        16        43     9      180.000000        0.443239         4    ;  uncertainty k = 0.158688
        19        18        17        22     9        0.000000       -0.380136         1    ;  uncertainty k = 2.913081
        19        18        17        22     9      180.000000        8.267784         2    ;  uncertainty k = 0.403615
        19        18        17        22     9        0.000000        0.435757         3    ;  uncertainty k = 0.320054
        19        18        17        22     9      180.000000       -0.156996         4    ;  uncertainty k = 0.291188
        19        18        26        27     9        0.000000        6.366443         1    ;  uncertainty k = 1.644722
        19        18        26        27     9      180.000000       10.049531         2    ;  uncertainty k = 0.349760
        19        18        26        27     9        0.000000        1.357511         3    ;  uncertainty k = 0.507490
        19        18        26        27     9      180.000000       -0.656591         4    ;  uncertainty k = 0.287459
        19        18        26        28     9        0.000000        6.366443         1    ;  uncertainty k = 1.644722
        19        18        26        28     9      180.000000       10.049531         2    ;  uncertainty k = 0.349760
        19        18        26        28     9        0.000000        1.357511         3    ;  uncertainty k = 0.507490
        19        18        26        28     9      180.000000       -0.656591         4    ;  uncertainty k = 0.287459
        20        19        18        26     9        0.000000        1.886192         1    ;  uncertainty k = 2.633103
        20        19        18        26     9      180.000000        7.784175         2    ;  uncertainty k = 1.209625
        20        19        18        26     9        0.000000        0.956054         3    ;  uncertainty k = 0.197633
        20        19        18        26     9      180.000000       -0.247909         4    ;  uncertainty k = 0.316191
        21        29        31        32     9        0.000000       -0.010786         1    ;  uncertainty k = 0.115417
        21        29        31        32     9      180.000000        7.262159         2    ;  uncertainty k = 0.423927
        21        29        31        32     9        0.000000        1.354008         3    ;  uncertainty k = 0.195254
        21        29        31        32     9      180.000000        1.852478         4    ;  uncertainty k = 0.163636
        21        29        31        33     9        0.000000        0.008111         1    ;  uncertainty k = 0.273090
        21        29        31        33     9      180.000000       13.571330         2    ;  uncertainty k = 0.172063
        21        29        31        33     9        0.000000       -1.028499         3    ;  uncertainty k = 0.569950
        21        29        31        33     9      180.000000        0.744329         4    ;  uncertainty k = 0.222727
        21        37        35        33     9        0.000000        0.263010         1    ;  uncertainty k = 0.233064
        21        37        35        33     9      180.000000        7.967011         2    ;  uncertainty k = 0.393382
        21        37        35        33     9        0.000000        0.342315         3    ;  uncertainty k = 0.110414
        21        37        35        33     9      180.000000        1.443305         4    ;  uncertainty k = 0.218514
        21        37        35        36     9        0.000000        0.178136         1    ;  uncertainty k = 0.201244
        21        37        35        36     9      180.000000        5.991953         2    ;  uncertainty k = 0.569301
        21        37        35        36     9        0.000000        1.516082         3    ;  uncertainty k = 0.202609
        21        37        35        36     9      180.000000        1.684305         4    ;  uncertainty k = 0.115315
        21        37        38        39     9        0.000000        1.111856         1    ;  uncertainty k = 0.404723
        21        37        38        39     9      180.000000        6.113180         2    ;  uncertainty k = 0.181332
        21        37        38        39     9        0.000000        1.125909         3    ;  uncertainty k = 0.166451
        21        37        38        39     9      180.000000        0.365351         4    ;  uncertainty k = 0.187779
        22        17        16        43     9        0.000000       -0.743118         1    ;  uncertainty k = 3.324160
        22        17        16        43     9      180.000000        8.127734         2    ;  uncertainty k = 0.445128
        22        17        16        43     9        0.000000        0.693460         3    ;  uncertainty k = 0.571372
        22        17        16        43     9      180.000000        0.151177         4    ;  uncertainty k = 0.263311
        22        17        18        26     9        0.000000       -0.067505         1    ;  uncertainty k = 0.784520
        22        17        18        26     9      180.000000        6.890792         2    ;  uncertainty k = 0.817474
        22        17        18        26     9        0.000000        0.975121         3    ;  uncertainty k = 0.584566
        22        17        18        26     9      180.000000       -0.011356         4    ;  uncertainty k = 0.268200
        29        21        37        35     9        0.000000       -0.140161         1    ;  uncertainty k = 0.355364
        29        21        37        35     9      180.000000        6.348746         2    ;  uncertainty k = 0.694407
        29        21        37        35     9        0.000000        0.290484         3    ;  uncertainty k = 0.338062
        29        21        37        35     9      180.000000        1.285583         4    ;  uncertainty k = 0.260245
        29        21        37        38     9        0.000000        0.202746         1    ;  uncertainty k = 0.252066
        29        21        37        38     9      180.000000        9.407592         2    ;  uncertainty k = 0.472448
        29        21        37        38     9        0.000000        1.117389         3    ;  uncertainty k = 0.209370
        29        21        37        38     9      180.000000        1.625302         4    ;  uncertainty k = 0.226048
        29        31        33        34     9        0.000000        0.146275         1    ;  uncertainty k = 0.099355
        29        31        33        34     9      180.000000        7.386322         2    ;  uncertainty k = 0.329159
        29        31        33        34     9        0.000000        1.453994         3    ;  uncertainty k = 0.291732
        29        31        33        34     9      180.000000        1.770384         4    ;  uncertainty k = 0.129997
        29        31        33        35     9        0.000000        0.060587         1    ;  uncertainty k = 0.186127
        29        31        33        35     9      180.000000       15.289145         2    ;  uncertainty k = 0.320488
        29        31        33        35     9        0.000000       -1.329503         3    ;  uncertainty k = 0.560564
        29        31        33        35     9      180.000000        0.525663         4    ;  uncertainty k = 0.277736
        30        29        21        37     9        0.000000        0.325543         1    ;  uncertainty k = 0.222033
        30        29        21        37     9      180.000000        7.727565         2    ;  uncertainty k = 0.352627
        30        29        21        37     9        0.000000        1.357455         3    ;  uncertainty k = 0.208267
        30        29        21        37     9      180.000000        1.581554         4    ;  uncertainty k = 0.110163
        30        29        31        32     9        0.000000       -0.073656         1    ;  uncertainty k = 0.169469
        30        29        31        32     9      180.000000        7.657576         2    ;  uncertainty k = 0.334809
        30        29        31        32     9        0.000000       -0.443972         3    ;  uncertainty k = 0.291152
        30        29        31        32     9      180.000000        0.135374         4    ;  uncertainty k = 0.146821
        30        29        31        33     9        0.000000        0.052055         1    ;  uncertainty k = 0.148080
        30        29        31        33     9      180.000000        7.650210         2    ;  uncertainty k = 0.261970
        30        29        31        33     9        0.000000        1.380573         3    ;  uncertainty k = 0.286478
        30        29        31        33     9      180.000000        1.799506         4    ;  uncertainty k = 0.185139
        31        29        21        37     9        0.000000       -0.023315         1    ;  uncertainty k = 0.087741
        31        29        21        37     9      180.000000       10.913093         2    ;  uncertainty k = 0.533337
        31        29        21        37     9        0.000000        0.079098         3    ;  uncertainty k = 0.322248
        31        29        21        37     9      180.000000        1.146245         4    ;  uncertainty k = 0.396771
        31        33        35        36     9        0.000000        0.153961         1    ;  uncertainty k = 0.136506
        31        33        35        36     9      180.000000        7.701918         2    ;  uncertainty k = 0.299971
        31        33        35        36     9        0.000000        1.469463         3    ;  uncertainty k = 0.296252
        31        33        35        36     9      180.000000        1.834838         4    ;  uncertainty k = 0.138203
        31        33        35        37     9        0.000000       -0.086413         1    ;  uncertainty k = 0.186288
        31        33        35        37     9      180.000000       14.039026         2    ;  uncertainty k = 0.272550
        31        33        35        37     9        0.000000       -1.032213         3    ;  uncertainty k = 0.509883
        31        33        35        37     9      180.000000        0.766440         4    ;  uncertainty k = 0.292191
        32        31        33        34     9        0.000000       -0.019550         1    ;  uncertainty k = 0.140173
        32        31        33        34     9      180.000000        7.488236         2    ;  uncertainty k = 0.430415
        32        31        33        34     9        0.000000       -0.396911         3    ;  uncertainty k = 0.303886
        32        31        33        34     9      180.000000        0.020036         4    ;  uncertainty k = 0.169356
        32        31        33        35     9        0.000000        0.179245         1    ;  uncertainty k = 0.160648
        32        31        33        35     9      180.000000        7.726590         2    ;  uncertainty k = 0.450508
        32        31        33        35     9        0.000000        1.439820         3    ;  uncertainty k = 0.273256
        32        31        33        35     9      180.000000        1.810820         4    ;  uncertainty k = 0.124897
        33        35        37        38     9        0.000000        0.000425         1    ;  uncertainty k = 0.256190
        33        35        37        38     9      180.000000       11.526065         2    ;  uncertainty k = 0.317805
        33        35        37        38     9        0.000000        1.252924         3    ;  uncertainty k = 0.239119
        33        35        37        38     9      180.000000        1.689813         4    ;  uncertainty k = 0.148068
        34        33        35        36     9        0.000000       -0.095220         1    ;  uncertainty k = 0.095459
        34        33        35        36     9      180.000000        7.406390         2    ;  uncertainty k = 0.350250
        34        33        35        36     9        0.000000       -0.429914         3    ;  uncertainty k = 0.287060
        34        33        35        36     9      180.000000        0.095768         4    ;  uncertainty k = 0.129378
        34        33        35        37     9        0.000000        0.073535         1    ;  uncertainty k = 0.329988
        34        33        35        37     9      180.000000        7.764166         2    ;  uncertainty k = 0.422478
        34        33        35        37     9        0.000000        1.356384         3    ;  uncertainty k = 0.277544
        34        33        35        37     9      180.000000        1.694931         4    ;  uncertainty k = 0.094070
        35        37        38        39     9        0.000000        2.048876         1    ;  uncertainty k = 0.598907
        35        37        38        39     9      180.000000        6.680933         2    ;  uncertainty k = 0.063081
        35        37        38        39     9        0.000000       -0.063393         3    ;  uncertainty k = 0.117260
        35        37        38        39     9      180.000000        0.069012         4    ;  uncertainty k = 0.071100
        36        35        37        38     9        0.000000       -0.094671         1    ;  uncertainty k = 0.127574
        36        35        37        38     9      180.000000        9.460031         2    ;  uncertainty k = 0.400328
        36        35        37        38     9        0.000000        0.787936         3    ;  uncertainty k = 0.088375
        36        35        37        38     9      180.000000        1.192690         4    ;  uncertainty k = 0.334839
        37        38        39        40     9        0.000000        1.303117         1    ;  uncertainty k = 0.147452
        37        38        39        40     9      180.000000       -1.897041         2    ;  uncertainty k = 0.199251
        37        38        39        40     9        0.000000        0.872352         3    ;  uncertainty k = 0.040507
        37        38        39        40     9      180.000000        0.243250         4    ;  uncertainty k = 0.047344
        37        38        39        41     9        0.000000        1.303117         1    ;  uncertainty k = 0.147452
        37        38        39        41     9      180.000000       -1.897041         2    ;  uncertainty k = 0.199251
        37        38        39        41     9        0.000000        0.872352         3    ;  uncertainty k = 0.040507
        37        38        39        41     9      180.000000        0.243250         4    ;  uncertainty k = 0.047344
        37        38        39        42     9        0.000000        1.303117         1    ;  uncertainty k = 0.147452
        37        38        39        42     9      180.000000       -1.897041         2    ;  uncertainty k = 0.199251
        37        38        39        42     9        0.000000        0.872352         3    ;  uncertainty k = 0.040507
        37        38        39        42     9      180.000000        0.243250         4    ;  uncertainty k = 0.047344
        44        11        48        49     9        0.000000       -1.168307         1    ;  uncertainty k = 0.299692
        44        11        48        49     9      180.000000        0.150758         2    ;  uncertainty k = 0.296599
        44        11        48        49     9        0.000000        0.668939         3    ;  uncertainty k = 0.064920
        44        11        48        49     9      180.000000       -0.104414         4    ;  uncertainty k = 0.091598
        44        11        48        50     9        0.000000       -1.168307         1    ;  uncertainty k = 0.299692
        44        11        48        50     9      180.000000        0.150758         2    ;  uncertainty k = 0.296599
        44        11        48        50     9        0.000000        0.668939         3    ;  uncertainty k = 0.064920
        44        11        48        50     9      180.000000       -0.104414         4    ;  uncertainty k = 0.091598
        44        11        48        51     9        0.000000       -1.168307         1    ;  uncertainty k = 0.299692
        44        11        48        51     9      180.000000        0.150758         2    ;  uncertainty k = 0.296599
        44        11        48        51     9        0.000000        0.668939         3    ;  uncertainty k = 0.064920
        44        11        48        51     9      180.000000       -0.104414         4    ;  uncertainty k = 0.091598
        45        44        11        48     9        0.000000       -1.168308         1    ;  uncertainty k = 0.299692
        45        44        11        48     9      180.000000        0.150758         2    ;  uncertainty k = 0.296599
        45        44        11        48     9        0.000000        0.668939         3    ;  uncertainty k = 0.064920
        45        44        11        48     9      180.000000       -0.104414         4    ;  uncertainty k = 0.091599
        46        44        11        48     9        0.000000       -1.168308         1    ;  uncertainty k = 0.299692
        46        44        11        48     9      180.000000        0.150758         2    ;  uncertainty k = 0.296599
        46        44        11        48     9        0.000000        0.668939         3    ;  uncertainty k = 0.064920
        46        44        11        48     9      180.000000       -0.104414         4    ;  uncertainty k = 0.091599
        47        44        11        48     9        0.000000       -1.168308         1    ;  uncertainty k = 0.299692
        47        44        11        48     9      180.000000        0.150758         2    ;  uncertainty k = 0.296599
        47        44        11        48     9        0.000000        0.668939         3    ;  uncertainty k = 0.064920
        47        44        11        48     9      180.000000       -0.104414         4    ;  uncertainty k = 0.091599

[ dihedrals ] ; impropers
;       ai        aj        ak        al funct           phase               k        pn
         1         2         8        21     4      180.000000       14.644355         2    ;  uncertainty k = 0.041431
         1         8        21         2     4      180.000000       14.644355         2    ;  uncertainty k = 0.041431
         1        21         2         8     4      180.000000       14.644355         2    ;  uncertainty k = 0.041431
         2         1         3         4     4      180.000000        4.622788         2    ;  uncertainty k = 0.170811
         2         3         4         1     4      180.000000        4.622788         2    ;  uncertainty k = 0.170811
         2         4         1         3     4      180.000000        4.622788         2    ;  uncertainty k = 0.170811
         4         2         5         6     4      180.000000        2.048605         2    ;  uncertainty k = 0.215959
         4         5         6         2     4      180.000000        2.048605         2    ;  uncertainty k = 0.215959
         4         6         2         5     4      180.000000        2.048605         2    ;  uncertainty k = 0.215959
         6         4         7        10     4      180.000000       22.038011         2    ;  uncertainty k = 0.126561
         6         7        10         4     4      180.000000       22.038011         2    ;  uncertainty k = 0.126561
         6        10         4         7     4      180.000000       22.038011         2    ;  uncertainty k = 0.126561
         7         6         8        15     4      180.000000       11.877461         2    ;  uncertainty k = 0.241069
         7         8        15         6     4      180.000000       11.877461         2    ;  uncertainty k = 0.241069
         7        15         6         8     4      180.000000       11.877461         2    ;  uncertainty k = 0.241069
         8         1         7         9     4      180.000000        4.818862         2    ;  uncertainty k = 0.377224
         8         7         9         1     4      180.000000        4.818862         2    ;  uncertainty k = 0.377224
         8         9         1         7     4      180.000000        4.818862         2    ;  uncertainty k = 0.377224
        16        15        17        43     4      180.000000       50.512062         2    ;  uncertainty k = 0.072585
        16        17        43        15     4      180.000000       50.512062         2    ;  uncertainty k = 0.072585
        16        43        15        17     4      180.000000       50.512062         2    ;  uncertainty k = 0.072585
        17        16        18        22     4      180.000000        2.066646         2    ;  uncertainty k = 0.825300
        17        18        22        16     4      180.000000        2.066646         2    ;  uncertainty k = 0.825300
        17        22        16        18     4      180.000000        2.066646         2    ;  uncertainty k = 0.825300
        18        17        19        26     4      180.000000       30.892449         2    ;  uncertainty k = 0.146917
        18        19        26        17     4      180.000000       30.892449         2    ;  uncertainty k = 0.146917
        18        26        17        19     4      180.000000       30.892449         2    ;  uncertainty k = 0.146917
        21         1        29        37     4      180.000000       13.280368         2    ;  uncertainty k = 0.118771
        21        29        37         1     4      180.000000       13.280368         2    ;  uncertainty k = 0.118771
        21        37         1        29     4      180.000000       13.280368         2    ;  uncertainty k = 0.118771
        26        18        27        28     4      180.000000        0.184047         2    ;  uncertainty k = 0.411542
        26        27        28        18     4      180.000000        0.184047         2    ;  uncertainty k = 0.411542
        26        28        18        27     4      180.000000        0.184047         2    ;  uncertainty k = 0.411542
        29        21        30        31     4      180.000000        3.980119         2    ;  uncertainty k = 0.103145
        29        30        31        21     4      180.000000        3.980119         2    ;  uncertainty k = 0.103145
        29        31        21        30     4      180.000000        3.980119         2    ;  uncertainty k = 0.103145
        31        29        32        33     4      180.000000        3.242651         2    ;  uncertainty k = 0.138155
        31        32        33        29     4      180.000000        3.242651         2    ;  uncertainty k = 0.138155
        31        33        29        32     4      180.000000        3.242651         2    ;  uncertainty k = 0.138155
        33        31        34        35     4      180.000000        4.308985         2    ;  uncertainty k = 0.139087
        33        34        35        31     4      180.000000        4.308985         2    ;  uncertainty k = 0.139087
        33        35        31        34     4      180.000000        4.308985         2    ;  uncertainty k = 0.139087
        35        33        36        37     4      180.000000        2.133075         2    ;  uncertainty k = 0.281552
        35        36        37        33     4      180.000000        2.133075         2    ;  uncertainty k = 0.281552
        35        37        33        36     4      180.000000        2.133075         2    ;  uncertainty k = 0.281552
        37        21        35        38     4      180.000000       19.123911         2    ;  uncertainty k = 0.062340
        37        35        38        21     4      180.000000       19.123911         2    ;  uncertainty k = 0.062340
        37        38        21        35     4      180.000000       19.123911         2    ;  uncertainty k = 0.062340

[ pairs ]
;       ai        aj funct
         1         5     1
         1         6     1
         1        15     1
         1        30     1
         1        31     1
         1        35     1
         1        38     1
         2         7     1
         2         9     1
         2        10     1
         2        29     1
         2        37     1
         3         5     1
         3         6     1
         3         8     1
         3        21     1
         4         8     1
         4        11     1
         4        15     1
         4        21     1
         5         7     1
         5        10     1
         6         9     1
         6        12     1
         6        16     1
         6        19     1
         6        44     1
         6        48     1
         7        11     1
         7        13     1
         7        14     1
         7        17     1
         7        18     1
         7        20     1
         7        21     1
         7        43     1
         8        10     1
         8        12     1
         8        16     1
         8        19     1
         8        29     1
         8        37     1
         9        15     1
         9        21     1
        10        13     1
        10        14     1
        10        15     1
        10        45     1
        10        46     1
        10        47     1
        10        49     1
        10        50     1
        10        51     1
        11        16     1
        11        19     1
        12        17     1
        12        18     1
        12        20     1
        12        43     1
        12        45     1
        12        46     1
        12        47     1
        12        49     1
        12        50     1
        12        51     1
        13        16     1
        13        19     1
        13        44     1
        13        48     1
        14        16     1
        14        19     1
        14        44     1
        14        48     1
        15        22     1
        15        26     1
        15        44     1
        15        48     1
        16        20     1
        16        23     1
        16        24     1
        16        25     1
        16        26     1
        17        20     1
        17        27     1
        17        28     1
        18        23     1
        18        24     1
        18        25     1
        18        43     1
        19        22     1
        19        27     1
        19        28     1
        19        43     1
        20        26     1
        21        32     1
        21        33     1
        21        36     1
        21        39     1
        22        26     1
        22        43     1
        29        34     1
        29        35     1
        29        38     1
        30        32     1
        30        33     1
        30        37     1
        31        36     1
        31        37     1
        32        34     1
        32        35     1
        33        38     1
        34        36     1
        34        37     1
        35        39     1
        36        38     1
        37        40     1
        37        41     1
        37        42     1
        44        49     1
        44        50     1
        44        51     1
        45        48     1
        46        48     1
        47        48     1
