; ITP file created by ByteFF-joint-25, 2026-03-14 14:43:53.495847

[ atomtypes ]
;name           bonded.type        at.num        mass        charge   ptype           sigma         epsilon
 c0bf                                   6      0.0000       0.00000       A     3.31487e-01     4.13280e-01    ;  uncertainty sigma = 0.000011, epsilon = 0.000570
 c1bf                                   6      0.0000       0.00000       A     3.31511e-01     4.13435e-01    ;  uncertainty sigma = 0.000006, epsilon = 0.000528
 h2bf                                   1      0.0000       0.00000       A     2.62563e-01     6.71382e-02    ;  uncertainty sigma = 0.000008, epsilon = 0.000500
 c3bf                                   6      0.0000       0.00000       A     3.31523e-01     4.13778e-01    ;  uncertainty sigma = 0.000003, epsilon = 0.000961
 h4bf                                   1      0.0000       0.00000       A     2.62561e-01     6.68067e-02    ;  uncertainty sigma = 0.000012, epsilon = 0.000527
 c5bf                                   6      0.0000       0.00000       A     3.31562e-01     4.13129e-01    ;  uncertainty sigma = 0.000021, epsilon = 0.000953
 c6bf                                   6      0.0000       0.00000       A     3.31604e-01     4.12991e-01    ;  uncertainty sigma = 0.000053, epsilon = 0.001665
 c7bf                                   6      0.0000       0.00000       A     3.31541e-01     4.13363e-01    ;  uncertainty sigma = 0.000018, epsilon = 0.001199
 h8bf                                   1      0.0000       0.00000       A     2.62555e-01     6.73758e-02    ;  uncertainty sigma = 0.000015, epsilon = 0.000633
 o9bf                                   8      0.0000       0.00000       A     3.15675e-01     3.03349e-01    ;  uncertainty sigma = 0.000037, epsilon = 0.000709
 c10bf                                  6      0.0000       0.00000       A     3.39754e-01     4.50298e-01    ;  uncertainty sigma = 0.000022, epsilon = 0.001818
 c11bf                                  6      0.0000       0.00000       A     3.39729e-01     4.51261e-01    ;  uncertainty sigma = 0.000015, epsilon = 0.001388
 h12bf                                  1      0.0000       0.00000       A     2.60113e-01     8.69260e-02    ;  uncertainty sigma = 0.000018, epsilon = 0.001362
 h13bf                                  1      0.0000       0.00000       A     2.60113e-01     8.69260e-02    ;  uncertainty sigma = 0.000018, epsilon = 0.001362
 c14bf                                  6      0.0000       0.00000       A     3.39922e-01     4.52078e-01    ;  uncertainty sigma = 0.000044, epsilon = 0.005050
 c15bf                                  6      0.0000       0.00000       A     3.31534e-01     4.13061e-01    ;  uncertainty sigma = 0.000023, epsilon = 0.000770
 n16bf                                  7      0.0000       0.00000       A     3.18159e-01     6.82058e-01    ;  uncertainty sigma = 0.000074, epsilon = 0.006526
 c17bf                                  6      0.0000       0.00000       A     3.31516e-01     4.13029e-01    ;  uncertainty sigma = 0.000046, epsilon = 0.002102
 n18bf                                  7      0.0000       0.00000       A     3.27895e-01     6.51183e-01    ;  uncertainty sigma = 0.000198, epsilon = 0.011723
 h19bf                                  1      0.0000       0.00000       A     1.10796e-01     4.19443e-02    ;  uncertainty sigma = 0.000445, epsilon = 0.001840
 c20bf                                  6      0.0000       0.00000       A     3.31512e-01     4.13148e-01    ;  uncertainty sigma = 0.000008, epsilon = 0.000618
 c21bf                                  6      0.0000       0.00000       A     3.39747e-01     4.51374e-01    ;  uncertainty sigma = 0.000011, epsilon = 0.001160
 h22bf                                  1      0.0000       0.00000       A     2.42212e-01     8.67416e-02    ;  uncertainty sigma = 0.000033, epsilon = 0.000677
 h23bf                                  1      0.0000       0.00000       A     2.42212e-01     8.67416e-02    ;  uncertainty sigma = 0.000033, epsilon = 0.000677
 h24bf                                  1      0.0000       0.00000       A     2.42212e-01     8.67416e-02    ;  uncertainty sigma = 0.000033, epsilon = 0.000677
 n25bf                                  7      0.0000       0.00000       A     3.36518e-01     4.71691e-01    ;  uncertainty sigma = 0.000108, epsilon = 0.006012
 h26bf                                  1      0.0000       0.00000       A     1.10696e-01     4.11175e-02    ;  uncertainty sigma = 0.000127, epsilon = 0.001410
 h27bf                                  1      0.0000       0.00000       A     1.10696e-01     4.11175e-02    ;  uncertainty sigma = 0.000127, epsilon = 0.001410
 c28bf                                  6      0.0000       0.00000       A     3.31523e-01     4.13191e-01    ;  uncertainty sigma = 0.000006, epsilon = 0.000870
 h29bf                                  1      0.0000       0.00000       A     2.62557e-01     6.71598e-02    ;  uncertainty sigma = 0.000013, epsilon = 0.000769
 c30bf                                  6      0.0000       0.00000       A     3.31525e-01     4.13629e-01    ;  uncertainty sigma = 0.000006, epsilon = 0.000540
 c31bf                                  6      0.0000       0.00000       A     3.31517e-01     4.13384e-01    ;  uncertainty sigma = 0.000005, epsilon = 0.000791
 h32bf                                  1      0.0000       0.00000       A     2.62562e-01     6.72494e-02    ;  uncertainty sigma = 0.000005, epsilon = 0.000418
 c33bf                                  6      0.0000       0.00000       A     3.31514e-01     4.13287e-01    ;  uncertainty sigma = 0.000011, epsilon = 0.000597
 f34bf                                  9      0.0000       0.00000       A     3.03424e-01     3.47892e-01    ;  uncertainty sigma = 0.000008, epsilon = 0.000767
 c35bf                                  6      0.0000       0.00000       A     3.31521e-01     4.13605e-01    ;  uncertainty sigma = 0.000007, epsilon = 0.000661
 h36bf                                  1      0.0000       0.00000       A     2.62558e-01     6.71032e-02    ;  uncertainty sigma = 0.000012, epsilon = 0.000603
 o37bf                                  8      0.0000       0.00000       A     3.04746e-01     6.12575e-01    ;  uncertainty sigma = 0.000054, epsilon = 0.002454
 c38bf                                  6      0.0000       0.00000       A     3.39769e-01     4.50351e-01    ;  uncertainty sigma = 0.000003, epsilon = 0.001331
 h39bf                                  1      0.0000       0.00000       A     2.60031e-01     8.68009e-02    ;  uncertainty sigma = 0.000006, epsilon = 0.000320
 h40bf                                  1      0.0000       0.00000       A     2.60031e-01     8.68009e-02    ;  uncertainty sigma = 0.000006, epsilon = 0.000320
 h41bf                                  1      0.0000       0.00000       A     2.60031e-01     8.68009e-02    ;  uncertainty sigma = 0.000006, epsilon = 0.000320
 c42bf                                  6      0.0000       0.00000       A     3.39769e-01     4.50351e-01    ;  uncertainty sigma = 0.000003, epsilon = 0.001331
 h43bf                                  1      0.0000       0.00000       A     2.60031e-01     8.68009e-02    ;  uncertainty sigma = 0.000006, epsilon = 0.000320
 h44bf                                  1      0.0000       0.00000       A     2.60031e-01     8.68009e-02    ;  uncertainty sigma = 0.000006, epsilon = 0.000320
 h45bf                                  1      0.0000       0.00000       A     2.60031e-01     8.68009e-02    ;  uncertainty sigma = 0.000006, epsilon = 0.000320
 o46bf                                  8      0.0000       0.00000       A     3.15632e-01     3.02766e-01    ;  uncertainty sigma = 0.000025, epsilon = 0.001324
 c47bf                                  6      0.0000       0.00000       A     3.39790e-01     4.50985e-01    ;  uncertainty sigma = 0.000004, epsilon = 0.000763
 h48bf                                  1      0.0000       0.00000       A     2.42205e-01     8.67536e-02    ;  uncertainty sigma = 0.000015, epsilon = 0.000623
 h49bf                                  1      0.0000       0.00000       A     2.42205e-01     8.67536e-02    ;  uncertainty sigma = 0.000015, epsilon = 0.000623
 h50bf                                  1      0.0000       0.00000       A     2.42205e-01     8.67536e-02    ;  uncertainty sigma = 0.000015, epsilon = 0.000623

[ moleculetype ]
;name             nrexcl
 MOL                   3

[ atoms ]
;       nr            type      resi   res      atom      cgnr      charge          mass ; qtot
         1            c0bf         1   UNL        c0         1    -0.03750       12.0110 ; qtot   -0.037
         2            c1bf         1   UNL        c1         2    -0.06335       12.0110 ; qtot   -0.101
         3            h2bf         1   UNL        h2         3     0.13936        1.0080 ; qtot    0.039
         4            c3bf         1   UNL        c3         4    -0.14994       12.0110 ; qtot   -0.111
         5            h4bf         1   UNL        h4         5     0.15718        1.0080 ; qtot    0.046
         6            c5bf         1   UNL        c5         6     0.18249       12.0110 ; qtot    0.228
         7            c6bf         1   UNL        c6         7    -0.20467       12.0110 ; qtot    0.024
         8            c7bf         1   UNL        c7         8    -0.06048       12.0110 ; qtot   -0.037
         9            h8bf         1   UNL        h8         9     0.14970        1.0080 ; qtot    0.113
        10            o9bf         1   UNL        o9        10    -0.32527       15.9990 ; qtot   -0.212
        11           c10bf         1   UNL       c10        11     0.16563       12.0110 ; qtot   -0.047
        12           c11bf         1   UNL       c11        12    -0.09875       12.0110 ; qtot   -0.146
        13           h12bf         1   UNL       h12        13     0.09101        1.0080 ; qtot   -0.055
        14           h13bf         1   UNL       h13        14     0.09101        1.0080 ; qtot    0.036
        15           c14bf         1   UNL       c14        15     0.04015       12.0110 ; qtot    0.077
        16           c15bf         1   UNL       c15        16     0.70447       12.0110 ; qtot    0.781
        17           n16bf         1   UNL       n16        17    -0.41729       14.0070 ; qtot    0.364
        18           c17bf         1   UNL       c17        18     0.47248       12.0110 ; qtot    0.836
        19           n18bf         1   UNL       n18        19    -0.37461       14.0070 ; qtot    0.462
        20           h19bf         1   UNL       h19        20     0.35504        1.0080 ; qtot    0.817
        21           c20bf         1   UNL       c20        21     0.01713       12.0110 ; qtot    0.834
        22           c21bf         1   UNL       c21        22     0.07530       12.0110 ; qtot    0.909
        23           h22bf         1   UNL       h22        23     0.09109        1.0080 ; qtot    1.000
        24           h23bf         1   UNL       h23        24     0.09109        1.0080 ; qtot    1.091
        25           h24bf         1   UNL       h24        25     0.09109        1.0080 ; qtot    1.182
        26           n25bf         1   UNL       n25        26    -0.48596       14.0070 ; qtot    0.696
        27           h26bf         1   UNL       h26        27     0.33929        1.0080 ; qtot    1.036
        28           h27bf         1   UNL       h27        28     0.33929        1.0080 ; qtot    1.375
        29           c28bf         1   UNL       c28        29    -0.18913       12.0110 ; qtot    1.186
        30           h29bf         1   UNL       h29        30     0.14705        1.0080 ; qtot    1.333
        31           c30bf         1   UNL       c30        31     0.15866       12.0110 ; qtot    1.492
        32           c31bf         1   UNL       c31        32    -0.22812       12.0110 ; qtot    1.263
        33           h32bf         1   UNL       h32        33     0.16077        1.0080 ; qtot    1.424
        34           c33bf         1   UNL       c33        34     0.16342       12.0110 ; qtot    1.588
        35           f34bf         1   UNL       f34        35    -0.14241       18.9980 ; qtot    1.445
        36           c35bf         1   UNL       c35        36    -0.17840       12.0110 ; qtot    1.267
        37           h36bf         1   UNL       h36        37     0.15702        1.0080 ; qtot    1.424
        38           o37bf         1   UNL       o37        38    -0.45182       15.9990 ; qtot    0.972
        39           c38bf         1   UNL       c38        39    -0.10337       12.0110 ; qtot    0.869
        40           h39bf         1   UNL       h39        40     0.05101        1.0080 ; qtot    0.920
        41           h40bf         1   UNL       h40        41     0.05101        1.0080 ; qtot    0.971
        42           h41bf         1   UNL       h41        42     0.05101        1.0080 ; qtot    1.022
        43           c42bf         1   UNL       c42        43    -0.10337       12.0110 ; qtot    0.918
        44           h43bf         1   UNL       h43        44     0.05101        1.0080 ; qtot    0.969
        45           h44bf         1   UNL       h44        45     0.05101        1.0080 ; qtot    1.020
        46           h45bf         1   UNL       h45        46     0.05101        1.0080 ; qtot    1.071
        47           o46bf         1   UNL       o46        47    -0.32141       15.9990 ; qtot    0.750
        48           c47bf         1   UNL       c47        48     0.12216       12.0110 ; qtot    0.872
        49           h48bf         1   UNL       h48        49     0.04263        1.0080 ; qtot    0.915
        50           h49bf         1   UNL       h49        50     0.04263        1.0080 ; qtot    0.957
        51           h50bf         1   UNL       h50        51     0.04265        1.0080 ; qtot    1.000

[ bonds ]
;       ai        aj funct               r               k
         1         2     1        0.140335   345284.727686    ;  uncertainty r = 0.000044, k = 3.581438
         1         8     1        0.139539   338309.521631    ;  uncertainty r = 0.000099, k = 5.772041
         1        21     1        0.147706   271391.773779    ;  uncertainty r = 0.000051, k = 5.608501
         2         3     1        0.108747   334332.550977    ;  uncertainty r = 0.000025, k = 1.658246
         2         4     1        0.138720   376507.214795    ;  uncertainty r = 0.000065, k = 3.290766
         4         5     1        0.108788   336617.637061    ;  uncertainty r = 0.000017, k = 1.411956
         4         6     1        0.140086   362230.540576    ;  uncertainty r = 0.000052, k = 3.404710
         6         7     1        0.139987   328983.803418    ;  uncertainty r = 0.000163, k = 7.293716
         6        10     1        0.136368   303578.797510    ;  uncertainty r = 0.000194, k = 10.538317
         7         8     1        0.139607   346320.921436    ;  uncertainty r = 0.000123, k = 6.940488
         7        15     1        0.150678   205784.156250    ;  uncertainty r = 0.000110, k = 20.274094
         8         9     1        0.108767   335454.804785    ;  uncertainty r = 0.000067, k = 4.149507
        10        11     1        0.145422   203859.641382    ;  uncertainty r = 0.000221, k = 9.275520
        11        12     1        0.152936   192803.911694    ;  uncertainty r = 0.000262, k = 11.274596
        11        39     1        0.152325   205847.654272    ;  uncertainty r = 0.000037, k = 5.592256
        11        43     1        0.152325   205847.654272    ;  uncertainty r = 0.000037, k = 5.592256
        12        13     1        0.109477   309561.503809    ;  uncertainty r = 0.000048, k = 2.448473
        12        14     1        0.109477   309561.503809    ;  uncertainty r = 0.000048, k = 2.448473
        12        15     1        0.153041   191194.026782    ;  uncertainty r = 0.000126, k = 21.513846
        15        16     1        0.153598   171646.122900    ;  uncertainty r = 0.000173, k = 14.753170
        15        19     1        0.149698   232215.907178    ;  uncertainty r = 0.000407, k = 51.570456
        16        17     1        0.142413   302839.344971    ;  uncertainty r = 0.000236, k = 75.996174
        16        38     1        0.120112   608584.455469    ;  uncertainty r = 0.000161, k = 10.569144
        17        18     1        0.135836   286250.770703    ;  uncertainty r = 0.000260, k = 52.766102
        17        22     1        0.146741   261825.572607    ;  uncertainty r = 0.000154, k = 17.700649
        18        19     1        0.133610   531287.609180    ;  uncertainty r = 0.000191, k = 37.526813
        18        26     1        0.133101   320485.564160    ;  uncertainty r = 0.000146, k = 40.823703
        19        20     1        0.101578   423262.955127    ;  uncertainty r = 0.000083, k = 11.557068
        21        29     1        0.140009   346489.670654    ;  uncertainty r = 0.000052, k = 4.069730
        21        36     1        0.140139   355144.937598    ;  uncertainty r = 0.000071, k = 1.534584
        22        23     1        0.109172   309495.286084    ;  uncertainty r = 0.000053, k = 3.597993
        22        24     1        0.109172   309495.286084    ;  uncertainty r = 0.000053, k = 3.597993
        22        25     1        0.109172   309495.286084    ;  uncertainty r = 0.000053, k = 3.597993
        26        27     1        0.101405   421785.735498    ;  uncertainty r = 0.000064, k = 13.590763
        26        28     1        0.101405   421785.735498    ;  uncertainty r = 0.000064, k = 13.590763
        29        30     1        0.108814   338653.046826    ;  uncertainty r = 0.000044, k = 1.245071
        29        31     1        0.139851   357013.768799    ;  uncertainty r = 0.000039, k = 3.329078
        31        32     1        0.139980   369421.867188    ;  uncertainty r = 0.000046, k = 4.274371
        31        47     1        0.136254   322827.061719    ;  uncertainty r = 0.000034, k = 3.228749
        32        33     1        0.108784   341317.690967    ;  uncertainty r = 0.000020, k = 1.491572
        32        34     1        0.138890   361275.529297    ;  uncertainty r = 0.000040, k = 3.421075
        34        35     1        0.135600   338850.627441    ;  uncertainty r = 0.000058, k = 2.254902
        34        36     1        0.138779   355680.093262    ;  uncertainty r = 0.000034, k = 1.531642
        36        37     1        0.108770   337875.620605    ;  uncertainty r = 0.000032, k = 1.248560
        39        40     1        0.109545   310467.177393    ;  uncertainty r = 0.000018, k = 1.787242
        39        41     1        0.109545   310467.177393    ;  uncertainty r = 0.000018, k = 1.787242
        39        42     1        0.109545   310467.177393    ;  uncertainty r = 0.000018, k = 1.787242
        43        44     1        0.109545   310467.177393    ;  uncertainty r = 0.000018, k = 1.787242
        43        45     1        0.109545   310467.177393    ;  uncertainty r = 0.000018, k = 1.787242
        43        46     1        0.109545   310467.177393    ;  uncertainty r = 0.000018, k = 1.787242
        47        48     1        0.142004   253271.764600    ;  uncertainty r = 0.000055, k = 1.904375
        48        49     1        0.109623   311224.888965    ;  uncertainty r = 0.000009, k = 1.869770
        48        50     1        0.109623   311224.888965    ;  uncertainty r = 0.000009, k = 1.869779
        48        51     1        0.109623   311224.888965    ;  uncertainty r = 0.000009, k = 1.869780

[ angles ]
;       ai        aj        ak funct           theta             cth
         1         2         3     1      118.861740      277.977149    ;  uncertainty theta = 0.001066, k = 0.103556
         1         2         4     1      120.611427      529.212572    ;  uncertainty theta = 0.002905, k = 0.084732
         1         8         7     1      123.299232      507.871721    ;  uncertainty theta = 0.004797, k = 0.250351
         1         8         9     1      118.795181      283.153426    ;  uncertainty theta = 0.002880, k = 0.008787
         1        21        29     1      119.916260      411.074680    ;  uncertainty theta = 0.003075, k = 0.030588
         1        21        36     1      119.979897      412.786241    ;  uncertainty theta = 0.002486, k = 0.077241
         2         1         8     1      119.333374      424.329334    ;  uncertainty theta = 0.003273, k = 0.158675
         2         1        21     1      120.957260      415.097860    ;  uncertainty theta = 0.001198, k = 0.058600
         2         4         5     1      121.420326      280.298154    ;  uncertainty theta = 0.001178, k = 0.034437
         2         4         6     1      119.575096      505.135962    ;  uncertainty theta = 0.002692, k = 0.150532
         3         2         4     1      119.338806      289.601067    ;  uncertainty theta = 0.001318, k = 0.062224
         4         6         7     1      120.988113      370.564749    ;  uncertainty theta = 0.002805, k = 0.132341
         4         6        10     1      118.414932      539.304551    ;  uncertainty theta = 0.003186, k = 0.119404
         5         4         6     1      120.029160      275.838512    ;  uncertainty theta = 0.003388, k = 0.140058
         6         7         8     1      121.646706      436.471335    ;  uncertainty theta = 0.004275, k = 0.120813
         6         7        15     1      120.067566      415.396868    ;  uncertainty theta = 0.008782, k = 0.219694
         6        10        11     1      114.537888      453.333553    ;  uncertainty theta = 0.006687, k = 0.093698
         7         6        10     1      123.896896      494.205441    ;  uncertainty theta = 0.004024, k = 0.262919
         7         8         9     1      117.552780      269.249044    ;  uncertainty theta = 0.003488, k = 0.141356
         7        15        12     1      110.372864      539.933530    ;  uncertainty theta = 0.001408, k = 0.155688
         7        15        16     1      108.946983      466.381260    ;  uncertainty theta = 0.003845, k = 0.382761
         7        15        19     1      110.459412      616.078039    ;  uncertainty theta = 0.004076, k = 0.312915
         8         1        21     1      119.955673      411.690380    ;  uncertainty theta = 0.002378, k = 0.204507
         8         7        15     1      118.179955      406.555665    ;  uncertainty theta = 0.004331, k = 0.175151
        10        11        12     1      109.104774      651.855785    ;  uncertainty theta = 0.004859, k = 0.084503
        10        11        39     1      107.605125      619.338362    ;  uncertainty theta = 0.001081, k = 0.064685
        10        11        43     1      107.605125      619.338362    ;  uncertainty theta = 0.001081, k = 0.064685
        11        12        13     1      107.678444      386.201185    ;  uncertainty theta = 0.003165, k = 0.032000
        11        12        14     1      107.678444      386.201185    ;  uncertainty theta = 0.003165, k = 0.032000
        11        12        15     1      109.859573      530.089421    ;  uncertainty theta = 0.006963, k = 0.198376
        11        39        40     1      107.221069      387.594393    ;  uncertainty theta = 0.001065, k = 0.069193
        11        39        41     1      107.221069      387.594393    ;  uncertainty theta = 0.001065, k = 0.069193
        11        39        42     1      107.221069      387.594393    ;  uncertainty theta = 0.001065, k = 0.069193
        11        43        44     1      107.221069      387.594393    ;  uncertainty theta = 0.001065, k = 0.069193
        11        43        45     1      107.221069      387.594393    ;  uncertainty theta = 0.001065, k = 0.069193
        11        43        46     1      107.221069      387.594393    ;  uncertainty theta = 0.001065, k = 0.069193
        12        11        39     1      109.374954      548.046988    ;  uncertainty theta = 0.004356, k = 0.115347
        12        11        43     1      109.374954      548.046988    ;  uncertainty theta = 0.004356, k = 0.115347
        12        15        16     1      107.815041      449.614456    ;  uncertainty theta = 0.007030, k = 0.162708
        12        15        19     1      109.812546      627.822301    ;  uncertainty theta = 0.007991, k = 0.271564
        13        12        14     1      106.986496      321.844700    ;  uncertainty theta = 0.004263, k = 0.066652
        13        12        15     1      106.651634      397.354709    ;  uncertainty theta = 0.003140, k = 0.080198
        14        12        15     1      106.651634      397.354709    ;  uncertainty theta = 0.003140, k = 0.080198
        15        16        17     1      110.177444      536.173382    ;  uncertainty theta = 0.011689, k = 0.712083
        15        16        38     1      125.836937      424.636737    ;  uncertainty theta = 0.006696, k = 0.210364
        15        19        18     1      111.019447      602.235713    ;  uncertainty theta = 0.016031, k = 0.385577
        15        19        20     1      118.127907      280.649416    ;  uncertainty theta = 0.015278, k = 0.121870
        16        15        19     1      103.837784      815.585174    ;  uncertainty theta = 0.012174, k = 0.852513
        16        17        18     1      110.293701      728.609291    ;  uncertainty theta = 0.010426, k = 0.320486
        16        17        22     1      119.398109      397.513773    ;  uncertainty theta = 0.006832, k = 0.281808
        17        16        38     1      125.307961      629.051912    ;  uncertainty theta = 0.008036, k = 0.165829
        17        18        19     1      113.250023      720.106327    ;  uncertainty theta = 0.006756, k = 0.305315
        17        18        26     1      125.598953      549.524885    ;  uncertainty theta = 0.008546, k = 0.324469
        17        22        23     1      107.360855      470.851946    ;  uncertainty theta = 0.002522, k = 0.203983
        17        22        24     1      107.360855      470.851946    ;  uncertainty theta = 0.002522, k = 0.203983
        17        22        25     1      107.360855      470.851946    ;  uncertainty theta = 0.002522, k = 0.203983
        18        17        22     1      118.646042      371.786540    ;  uncertainty theta = 0.007230, k = 0.373049
        18        19        20     1      119.824707      355.581520    ;  uncertainty theta = 0.006083, k = 0.153034
        18        26        27     1      114.903091      371.138312    ;  uncertainty theta = 0.001582, k = 0.210952
        18        26        28     1      114.903091      371.138312    ;  uncertainty theta = 0.001582, k = 0.210952
        19        18        26     1      128.730377      637.313550    ;  uncertainty theta = 0.008927, k = 0.256741
        21        29        30     1      119.699875      274.670190    ;  uncertainty theta = 0.001184, k = 0.068598
        21        29        31     1      120.075233      526.969424    ;  uncertainty theta = 0.002216, k = 0.083638
        21        36        34     1      118.114517      496.896222    ;  uncertainty theta = 0.001907, k = 0.149858
        21        36        37     1      120.917747      271.854596    ;  uncertainty theta = 0.001104, k = 0.049151
        23        22        24     1      107.634499      325.466948    ;  uncertainty theta = 0.003233, k = 0.098676
        23        22        25     1      107.634499      325.466948    ;  uncertainty theta = 0.003233, k = 0.098676
        24        22        25     1      107.634499      325.466948    ;  uncertainty theta = 0.003233, k = 0.098676
        27        26        28     1      112.323524      263.743259    ;  uncertainty theta = 0.015210, k = 0.362876
        29        21        36     1      121.649551      410.760638    ;  uncertainty theta = 0.001795, k = 0.263304
        29        31        32     1      122.282631      377.450894    ;  uncertainty theta = 0.005928, k = 0.096863
        29        31        47     1      119.224754      428.762448    ;  uncertainty theta = 0.003467, k = 0.151030
        30        29        31     1      119.531479      275.890736    ;  uncertainty theta = 0.002996, k = 0.064565
        31        32        33     1      121.181541      267.706316    ;  uncertainty theta = 0.002762, k = 0.051840
        31        32        34     1      116.751663      497.311041    ;  uncertainty theta = 0.002529, k = 0.135800
        31        47        48     1      109.570900      513.302857    ;  uncertainty theta = 0.001547, k = 0.057656
        32        31        47     1      119.125565      425.009706    ;  uncertainty theta = 0.003834, k = 0.059588
        32        34        35     1      118.529846      512.039122    ;  uncertainty theta = 0.002446, k = 0.104529
        32        34        36     1      124.225327      367.064600    ;  uncertainty theta = 0.005134, k = 0.291046
        33        32        34     1      121.303391      283.108034    ;  uncertainty theta = 0.001748, k = 0.053433
        34        36        37     1      120.778748      289.236110    ;  uncertainty theta = 0.000648, k = 0.066809
        35        34        36     1      118.852562      510.466482    ;  uncertainty theta = 0.002197, k = 0.131579
        39        11        43     1      110.900230      580.347218    ;  uncertainty theta = 0.002949, k = 0.067890
        40        39        41     1      106.043396      316.610518    ;  uncertainty theta = 0.000878, k = 0.018252
        40        39        42     1      106.043396      316.610518    ;  uncertainty theta = 0.000878, k = 0.018252
        41        39        42     1      106.043396      316.610518    ;  uncertainty theta = 0.000878, k = 0.018252
        44        43        45     1      106.043396      316.610518    ;  uncertainty theta = 0.000878, k = 0.018252
        44        43        46     1      106.043396      316.610518    ;  uncertainty theta = 0.000878, k = 0.018252
        45        43        46     1      106.043396      316.610518    ;  uncertainty theta = 0.000878, k = 0.018252
        47        48        49     1      108.720642      446.553386    ;  uncertainty theta = 0.001349, k = 0.022916
        47        48        50     1      108.720642      446.553386    ;  uncertainty theta = 0.001349, k = 0.022916
        47        48        51     1      108.720642      446.553386    ;  uncertainty theta = 0.001349, k = 0.022916
        49        48        50     1      109.081810      330.154380    ;  uncertainty theta = 0.001818, k = 0.013785
        49        48        51     1      109.081810      330.154380    ;  uncertainty theta = 0.001818, k = 0.013785
        50        48        51     1      109.081810      330.154380    ;  uncertainty theta = 0.001818, k = 0.013785

[ dihedrals ] ; propers for gromacs 4.5 or higher, use funct 9
;       ai        aj        ak        al funct           phase               k        pn
         1         2         4         5     9        0.000000        0.041759         1    ;  uncertainty k = 0.062404
         1         2         4         5     9      180.000000        8.344932         2    ;  uncertainty k = 0.451488
         1         2         4         5     9        0.000000        1.374638         3    ;  uncertainty k = 0.278123
         1         2         4         5     9      180.000000        1.907700         4    ;  uncertainty k = 0.252176
         1         2         4         6     9        0.000000       -0.051954         1    ;  uncertainty k = 0.394193
         1         2         4         6     9      180.000000       14.095468         2    ;  uncertainty k = 0.232338
         1         2         4         6     9        0.000000       -0.317761         3    ;  uncertainty k = 0.403047
         1         2         4         6     9      180.000000        0.943997         4    ;  uncertainty k = 0.222424
         1         8         7         6     9        0.000000       -0.288476         1    ;  uncertainty k = 0.179692
         1         8         7         6     9      180.000000       10.948941         2    ;  uncertainty k = 0.447597
         1         8         7         6     9        0.000000       -0.046186         3    ;  uncertainty k = 0.128597
         1         8         7         6     9      180.000000        1.163314         4    ;  uncertainty k = 0.324485
         1         8         7        15     9        0.000000        0.413265         1    ;  uncertainty k = 0.252273
         1         8         7        15     9      180.000000        8.856730         2    ;  uncertainty k = 0.406529
         1         8         7        15     9        0.000000        1.658392         3    ;  uncertainty k = 0.207126
         1         8         7        15     9      180.000000        1.925856         4    ;  uncertainty k = 0.374149
         1        21        29        30     9        0.000000       -0.226089         1    ;  uncertainty k = 0.303492
         1        21        29        30     9      180.000000        7.228264         2    ;  uncertainty k = 0.385360
         1        21        29        30     9        0.000000        0.803602         3    ;  uncertainty k = 0.171320
         1        21        29        30     9      180.000000        1.126105         4    ;  uncertainty k = 0.196340
         1        21        29        31     9        0.000000       -0.038830         1    ;  uncertainty k = 0.243024
         1        21        29        31     9      180.000000        8.913318         2    ;  uncertainty k = 0.619835
         1        21        29        31     9        0.000000        1.205724         3    ;  uncertainty k = 0.298068
         1        21        29        31     9      180.000000        1.642162         4    ;  uncertainty k = 0.166651
         1        21        36        34     9        0.000000       -0.050882         1    ;  uncertainty k = 0.206542
         1        21        36        34     9      180.000000        8.711875         2    ;  uncertainty k = 0.535420
         1        21        36        34     9        0.000000        1.203226         3    ;  uncertainty k = 0.320011
         1        21        36        34     9      180.000000        1.662513         4    ;  uncertainty k = 0.113908
         1        21        36        37     9        0.000000       -0.219144         1    ;  uncertainty k = 0.325079
         1        21        36        37     9      180.000000        6.946627         2    ;  uncertainty k = 0.430140
         1        21        36        37     9        0.000000        0.847526         3    ;  uncertainty k = 0.176063
         1        21        36        37     9      180.000000        1.119429         4    ;  uncertainty k = 0.213317
         2         1         8         7     9        0.000000        0.198831         1    ;  uncertainty k = 0.504793
         2         1         8         7     9      180.000000       10.593431         2    ;  uncertainty k = 0.402202
         2         1         8         7     9        0.000000       -0.172154         3    ;  uncertainty k = 0.295225
         2         1         8         7     9      180.000000        1.158895         4    ;  uncertainty k = 0.388865
         2         1         8         9     9        0.000000        0.140798         1    ;  uncertainty k = 0.311743
         2         1         8         9     9      180.000000        7.451151         2    ;  uncertainty k = 0.634681
         2         1         8         9     9        0.000000        1.341807         3    ;  uncertainty k = 0.185244
         2         1         8         9     9      180.000000        1.669079         4    ;  uncertainty k = 0.262486
         2         1        21        29     9        0.000000       -0.247036         1    ;  uncertainty k = 0.271736
         2         1        21        29     9      180.000000        4.048567         2    ;  uncertainty k = 0.175359
         2         1        21        29     9        0.000000        0.325737         3    ;  uncertainty k = 0.111767
         2         1        21        29     9      180.000000       -0.007260         4    ;  uncertainty k = 0.043206
         2         1        21        36     9        0.000000       -0.317490         1    ;  uncertainty k = 0.282929
         2         1        21        36     9      180.000000        3.997664         2    ;  uncertainty k = 0.130215
         2         1        21        36     9        0.000000        0.343628         3    ;  uncertainty k = 0.077826
         2         1        21        36     9      180.000000       -0.033524         4    ;  uncertainty k = 0.063772
         2         4         6         7     9        0.000000        0.214863         1    ;  uncertainty k = 0.437118
         2         4         6         7     9      180.000000        7.808154         2    ;  uncertainty k = 0.549355
         2         4         6         7     9        0.000000        0.200021         3    ;  uncertainty k = 0.543484
         2         4         6         7     9      180.000000        1.302184         4    ;  uncertainty k = 0.240864
         2         4         6        10     9        0.000000        0.371444         1    ;  uncertainty k = 0.218852
         2         4         6        10     9      180.000000       11.420675         2    ;  uncertainty k = 0.283685
         2         4         6        10     9        0.000000        1.317991         3    ;  uncertainty k = 0.223096
         2         4         6        10     9      180.000000        1.545231         4    ;  uncertainty k = 0.131504
         3         2         1         8     9        0.000000        0.206878         1    ;  uncertainty k = 0.304064
         3         2         1         8     9      180.000000        6.803737         2    ;  uncertainty k = 0.492980
         3         2         1         8     9        0.000000        1.316351         3    ;  uncertainty k = 0.236296
         3         2         1         8     9      180.000000        1.544992         4    ;  uncertainty k = 0.288681
         3         2         1        21     9        0.000000       -0.220223         1    ;  uncertainty k = 0.329375
         3         2         1        21     9      180.000000        7.167371         2    ;  uncertainty k = 0.357859
         3         2         1        21     9        0.000000        0.808906         3    ;  uncertainty k = 0.177950
         3         2         1        21     9      180.000000        1.158406         4    ;  uncertainty k = 0.189604
         3         2         4         5     9        0.000000        0.025279         1    ;  uncertainty k = 0.361523
         3         2         4         5     9      180.000000        7.978306         2    ;  uncertainty k = 0.296130
         3         2         4         5     9        0.000000       -0.407095         3    ;  uncertainty k = 0.351032
         3         2         4         5     9      180.000000        0.202278         4    ;  uncertainty k = 0.133160
         3         2         4         6     9        0.000000        0.287758         1    ;  uncertainty k = 0.249638
         3         2         4         6     9      180.000000        8.768124         2    ;  uncertainty k = 0.408739
         3         2         4         6     9        0.000000        1.325866         3    ;  uncertainty k = 0.304196
         3         2         4         6     9      180.000000        1.727245         4    ;  uncertainty k = 0.217766
         4         2         1         8     9        0.000000        0.069609         1    ;  uncertainty k = 0.293676
         4         2         1         8     9      180.000000       10.632525         2    ;  uncertainty k = 0.253696
         4         2         1         8     9        0.000000       -0.422220         3    ;  uncertainty k = 0.262029
         4         2         1         8     9      180.000000        1.027629         4    ;  uncertainty k = 0.171628
         4         2         1        21     9        0.000000        0.023034         1    ;  uncertainty k = 0.260502
         4         2         1        21     9      180.000000        8.411686         2    ;  uncertainty k = 0.507511
         4         2         1        21     9        0.000000        1.140479         3    ;  uncertainty k = 0.388115
         4         2         1        21     9      180.000000        1.815526         4    ;  uncertainty k = 0.148403
         4         6         7         8     9        0.000000       -0.024302         1    ;  uncertainty k = 0.185564
         4         6         7         8     9      180.000000        6.939175         2    ;  uncertainty k = 0.467225
         4         6         7         8     9        0.000000        0.361257         3    ;  uncertainty k = 0.294715
         4         6         7         8     9      180.000000        1.357296         4    ;  uncertainty k = 0.258045
         4         6         7        15     9        0.000000        0.348935         1    ;  uncertainty k = 0.173791
         4         6         7        15     9      180.000000        5.007786         2    ;  uncertainty k = 0.411251
         4         6         7        15     9        0.000000        1.468368         3    ;  uncertainty k = 0.261774
         4         6         7        15     9      180.000000        1.669236         4    ;  uncertainty k = 0.209865
         4         6        10        11     9        0.000000       -0.006126         1    ;  uncertainty k = 0.860183
         4         6        10        11     9      180.000000        1.463692         2    ;  uncertainty k = 0.468672
         4         6        10        11     9        0.000000        0.942767         3    ;  uncertainty k = 0.141382
         4         6        10        11     9      180.000000        0.269400         4    ;  uncertainty k = 0.169428
         5         4         6         7     9        0.000000        0.319226         1    ;  uncertainty k = 0.558349
         5         4         6         7     9      180.000000        5.772399         2    ;  uncertainty k = 0.428881
         5         4         6         7     9        0.000000        1.337220         3    ;  uncertainty k = 0.195636
         5         4         6         7     9      180.000000        1.401976         4    ;  uncertainty k = 0.132735
         5         4         6        10     9        0.000000       -0.143362         1    ;  uncertainty k = 0.595170
         5         4         6        10     9      180.000000        8.971333         2    ;  uncertainty k = 0.422660
         5         4         6        10     9        0.000000        0.767158         3    ;  uncertainty k = 0.278987
         5         4         6        10     9      180.000000        1.249859         4    ;  uncertainty k = 0.280971
         6         7         8         9     9        0.000000        0.261142         1    ;  uncertainty k = 0.444638
         6         7         8         9     9      180.000000        7.886567         2    ;  uncertainty k = 0.701412
         6         7         8         9     9        0.000000        1.275188         3    ;  uncertainty k = 0.213636
         6         7         8         9     9      180.000000        1.656070         4    ;  uncertainty k = 0.156100
         6         7        15        12     9        0.000000       -0.553827         1    ;  uncertainty k = 1.466850
         6         7        15        12     9      180.000000        0.634513         2    ;  uncertainty k = 0.585096
         6         7        15        12     9        0.000000        0.297861         3    ;  uncertainty k = 0.330860
         6         7        15        12     9      180.000000        0.274107         4    ;  uncertainty k = 0.208342
         6         7        15        16     9        0.000000        2.102711         1    ;  uncertainty k = 2.528116
         6         7        15        16     9      180.000000        0.546699         2    ;  uncertainty k = 1.018066
         6         7        15        16     9        0.000000        0.457521         3    ;  uncertainty k = 0.289759
         6         7        15        16     9      180.000000        0.336866         4    ;  uncertainty k = 0.183129
         6         7        15        19     9        0.000000       -1.847814         1    ;  uncertainty k = 1.697255
         6         7        15        19     9      180.000000        1.430867         2    ;  uncertainty k = 0.383929
         6         7        15        19     9        0.000000        0.601224         3    ;  uncertainty k = 0.476577
         6         7        15        19     9      180.000000        0.025936         4    ;  uncertainty k = 0.174309
         6        10        11        12     9        0.000000        4.367103         1    ;  uncertainty k = 0.568223
         6        10        11        12     9      180.000000       -1.721484         2    ;  uncertainty k = 1.273232
         6        10        11        12     9        0.000000       -0.456864         3    ;  uncertainty k = 0.472174
         6        10        11        12     9      180.000000        0.328459         4    ;  uncertainty k = 0.236646
         6        10        11        39     9        0.000000       -1.366437         1    ;  uncertainty k = 0.443902
         6        10        11        39     9      180.000000        1.117988         2    ;  uncertainty k = 0.670204
         6        10        11        39     9        0.000000        0.420512         3    ;  uncertainty k = 0.232671
         6        10        11        39     9      180.000000        0.169724         4    ;  uncertainty k = 0.171412
         6        10        11        43     9        0.000000       -1.366437         1    ;  uncertainty k = 0.443902
         6        10        11        43     9      180.000000        1.117988         2    ;  uncertainty k = 0.670204
         6        10        11        43     9        0.000000        0.420512         3    ;  uncertainty k = 0.232671
         6        10        11        43     9      180.000000        0.169724         4    ;  uncertainty k = 0.171412
         7         6        10        11     9        0.000000        4.306085         1    ;  uncertainty k = 1.768454
         7         6        10        11     9      180.000000       -1.360043         2    ;  uncertainty k = 1.430515
         7         6        10        11     9        0.000000       -0.393905         3    ;  uncertainty k = 0.710259
         7         6        10        11     9      180.000000        0.655625         4    ;  uncertainty k = 0.252123
         7         8         1        21     9        0.000000        0.467614         1    ;  uncertainty k = 0.454421
         7         8         1        21     9      180.000000        8.821302         2    ;  uncertainty k = 0.266450
         7         8         1        21     9        0.000000        1.340463         3    ;  uncertainty k = 0.312892
         7         8         1        21     9      180.000000        1.694048         4    ;  uncertainty k = 0.107520
         7        15        12        11     9        0.000000        1.962873         1    ;  uncertainty k = 1.227301
         7        15        12        11     9      180.000000       -1.078194         2    ;  uncertainty k = 0.502447
         7        15        12        11     9        0.000000        0.369332         3    ;  uncertainty k = 0.176636
         7        15        12        11     9      180.000000       -0.278407         4    ;  uncertainty k = 0.249392
         7        15        12        13     9        0.000000       -0.179115         1    ;  uncertainty k = 0.140621
         7        15        12        13     9      180.000000        0.089626         2    ;  uncertainty k = 0.458905
         7        15        12        13     9        0.000000        0.456477         3    ;  uncertainty k = 0.237033
         7        15        12        13     9      180.000000       -0.095026         4    ;  uncertainty k = 0.141404
         7        15        12        14     9        0.000000       -0.179115         1    ;  uncertainty k = 0.140621
         7        15        12        14     9      180.000000        0.089626         2    ;  uncertainty k = 0.458905
         7        15        12        14     9        0.000000        0.456477         3    ;  uncertainty k = 0.237033
         7        15        12        14     9      180.000000       -0.095026         4    ;  uncertainty k = 0.141404
         7        15        16        17     9        0.000000       -2.280414         1    ;  uncertainty k = 2.717069
         7        15        16        17     9      180.000000        2.456410         2    ;  uncertainty k = 1.222701
         7        15        16        17     9        0.000000        1.453247         3    ;  uncertainty k = 0.188385
         7        15        16        17     9      180.000000        0.681716         4    ;  uncertainty k = 0.441731
         7        15        16        38     9        0.000000       -0.746001         1    ;  uncertainty k = 2.339485
         7        15        16        38     9      180.000000        3.144072         2    ;  uncertainty k = 0.500306
         7        15        16        38     9        0.000000        0.221997         3    ;  uncertainty k = 0.280086
         7        15        16        38     9      180.000000        0.150864         4    ;  uncertainty k = 0.276471
         7        15        19        18     9        0.000000        0.863485         1    ;  uncertainty k = 1.247541
         7        15        19        18     9      180.000000        0.544771         2    ;  uncertainty k = 0.542404
         7        15        19        18     9        0.000000        0.864493         3    ;  uncertainty k = 0.370882
         7        15        19        18     9      180.000000        0.387104         4    ;  uncertainty k = 0.143944
         7        15        19        20     9        0.000000        0.953248         1    ;  uncertainty k = 2.750545
         7        15        19        20     9      180.000000       -1.060847         2    ;  uncertainty k = 1.247199
         7        15        19        20     9        0.000000        0.527755         3    ;  uncertainty k = 0.498974
         7        15        19        20     9      180.000000       -0.043717         4    ;  uncertainty k = 0.110691
         8         1        21        29     9        0.000000       -0.278972         1    ;  uncertainty k = 0.369929
         8         1        21        29     9      180.000000        4.248731         2    ;  uncertainty k = 0.273321
         8         1        21        29     9        0.000000        0.278521         3    ;  uncertainty k = 0.161208
         8         1        21        29     9      180.000000        0.062115         4    ;  uncertainty k = 0.063903
         8         1        21        36     9        0.000000       -0.325736         1    ;  uncertainty k = 0.372828
         8         1        21        36     9      180.000000        4.209741         2    ;  uncertainty k = 0.225722
         8         1        21        36     9        0.000000        0.284204         3    ;  uncertainty k = 0.164496
         8         1        21        36     9      180.000000        0.043137         4    ;  uncertainty k = 0.083683
         8         7         6        10     9        0.000000        0.502288         1    ;  uncertainty k = 0.334285
         8         7         6        10     9      180.000000        8.131837         2    ;  uncertainty k = 0.246810
         8         7         6        10     9        0.000000        1.516209         3    ;  uncertainty k = 0.284264
         8         7         6        10     9      180.000000        1.564323         4    ;  uncertainty k = 0.188848
         8         7        15        12     9        0.000000       -0.691333         1    ;  uncertainty k = 1.137398
         8         7        15        12     9      180.000000        0.985400         2    ;  uncertainty k = 0.405711
         8         7        15        12     9        0.000000       -0.289961         3    ;  uncertainty k = 0.374786
         8         7        15        12     9      180.000000        0.164090         4    ;  uncertainty k = 0.189301
         8         7        15        16     9        0.000000        0.853117         1    ;  uncertainty k = 1.974013
         8         7        15        16     9      180.000000        0.166248         2    ;  uncertainty k = 0.609933
         8         7        15        16     9        0.000000        0.128488         3    ;  uncertainty k = 0.275120
         8         7        15        16     9      180.000000        0.312202         4    ;  uncertainty k = 0.133232
         8         7        15        19     9        0.000000       -0.405631         1    ;  uncertainty k = 0.831937
         8         7        15        19     9      180.000000        1.964315         2    ;  uncertainty k = 0.372178
         8         7        15        19     9        0.000000       -0.051018         3    ;  uncertainty k = 0.360156
         8         7        15        19     9      180.000000        0.092103         4    ;  uncertainty k = 0.251996
         9         8         1        21     9        0.000000       -0.089166         1    ;  uncertainty k = 0.179498
         9         8         1        21     9      180.000000        7.515614         2    ;  uncertainty k = 0.307058
         9         8         1        21     9        0.000000        0.882566         3    ;  uncertainty k = 0.180731
         9         8         1        21     9      180.000000        1.305637         4    ;  uncertainty k = 0.140237
         9         8         7        15     9        0.000000       -0.372295         1    ;  uncertainty k = 0.437955
         9         8         7        15     9      180.000000        6.783379         2    ;  uncertainty k = 0.317440
         9         8         7        15     9        0.000000        0.965065         3    ;  uncertainty k = 0.301999
         9         8         7        15     9      180.000000        1.269073         4    ;  uncertainty k = 0.233090
        10         6         7        15     9        0.000000        0.498340         1    ;  uncertainty k = 0.988077
        10         6         7        15     9      180.000000        5.670085         2    ;  uncertainty k = 0.712561
        10         6         7        15     9        0.000000        1.748936         3    ;  uncertainty k = 0.456836
        10         6         7        15     9      180.000000        1.062497         4    ;  uncertainty k = 0.416588
        10        11        12        13     9        0.000000       -1.286357         1    ;  uncertainty k = 0.418982
        10        11        12        13     9      180.000000       -0.843338         2    ;  uncertainty k = 0.564486
        10        11        12        13     9        0.000000        0.398057         3    ;  uncertainty k = 0.233267
        10        11        12        13     9      180.000000       -0.189590         4    ;  uncertainty k = 0.165011
        10        11        12        14     9        0.000000       -1.286357         1    ;  uncertainty k = 0.418982
        10        11        12        14     9      180.000000       -0.843338         2    ;  uncertainty k = 0.564486
        10        11        12        14     9        0.000000        0.398057         3    ;  uncertainty k = 0.233267
        10        11        12        14     9      180.000000       -0.189590         4    ;  uncertainty k = 0.165011
        10        11        12        15     9        0.000000        7.476955         1    ;  uncertainty k = 0.712372
        10        11        12        15     9      180.000000       -4.264126         2    ;  uncertainty k = 1.996417
        10        11        12        15     9        0.000000       -0.268865         3    ;  uncertainty k = 0.560592
        10        11        12        15     9      180.000000       -0.018620         4    ;  uncertainty k = 0.403705
        10        11        39        40     9        0.000000       -0.556685         1    ;  uncertainty k = 0.641512
        10        11        39        40     9      180.000000       -2.127823         2    ;  uncertainty k = 0.599046
        10        11        39        40     9        0.000000        0.863808         3    ;  uncertainty k = 0.110663
        10        11        39        40     9      180.000000       -0.195070         4    ;  uncertainty k = 0.150407
        10        11        39        41     9        0.000000       -0.556685         1    ;  uncertainty k = 0.641512
        10        11        39        41     9      180.000000       -2.127823         2    ;  uncertainty k = 0.599046
        10        11        39        41     9        0.000000        0.863808         3    ;  uncertainty k = 0.110663
        10        11        39        41     9      180.000000       -0.195070         4    ;  uncertainty k = 0.150407
        10        11        39        42     9        0.000000       -0.556685         1    ;  uncertainty k = 0.641512
        10        11        39        42     9      180.000000       -2.127823         2    ;  uncertainty k = 0.599046
        10        11        39        42     9        0.000000        0.863808         3    ;  uncertainty k = 0.110663
        10        11        39        42     9      180.000000       -0.195070         4    ;  uncertainty k = 0.150407
        10        11        43        44     9        0.000000       -0.556685         1    ;  uncertainty k = 0.641512
        10        11        43        44     9      180.000000       -2.127823         2    ;  uncertainty k = 0.599046
        10        11        43        44     9        0.000000        0.863808         3    ;  uncertainty k = 0.110663
        10        11        43        44     9      180.000000       -0.195070         4    ;  uncertainty k = 0.150407
        10        11        43        45     9        0.000000       -0.556685         1    ;  uncertainty k = 0.641512
        10        11        43        45     9      180.000000       -2.127823         2    ;  uncertainty k = 0.599046
        10        11        43        45     9        0.000000        0.863808         3    ;  uncertainty k = 0.110663
        10        11        43        45     9      180.000000       -0.195070         4    ;  uncertainty k = 0.150407
        10        11        43        46     9        0.000000       -0.556685         1    ;  uncertainty k = 0.641512
        10        11        43        46     9      180.000000       -2.127823         2    ;  uncertainty k = 0.599046
        10        11        43        46     9        0.000000        0.863808         3    ;  uncertainty k = 0.110663
        10        11        43        46     9      180.000000       -0.195070         4    ;  uncertainty k = 0.150407
        11        12        15        16     9        0.000000       -1.228978         1    ;  uncertainty k = 1.347491
        11        12        15        16     9      180.000000       -0.515847         2    ;  uncertainty k = 0.500826
        11        12        15        16     9        0.000000        0.433214         3    ;  uncertainty k = 0.247206
        11        12        15        16     9      180.000000       -0.080465         4    ;  uncertainty k = 0.226810
        11        12        15        19     9        0.000000       -2.978697         1    ;  uncertainty k = 1.009148
        11        12        15        19     9      180.000000       -1.349811         2    ;  uncertainty k = 1.012802
        11        12        15        19     9        0.000000        1.198772         3    ;  uncertainty k = 0.505781
        11        12        15        19     9      180.000000        0.002053         4    ;  uncertainty k = 0.225805
        12        11        39        40     9        0.000000       -0.810618         1    ;  uncertainty k = 0.476463
        12        11        39        40     9      180.000000       -0.740441         2    ;  uncertainty k = 0.208398
        12        11        39        40     9        0.000000        0.585176         3    ;  uncertainty k = 0.093112
        12        11        39        40     9      180.000000       -0.179618         4    ;  uncertainty k = 0.029902
        12        11        39        41     9        0.000000       -0.810618         1    ;  uncertainty k = 0.476463
        12        11        39        41     9      180.000000       -0.740441         2    ;  uncertainty k = 0.208398
        12        11        39        41     9        0.000000        0.585176         3    ;  uncertainty k = 0.093112
        12        11        39        41     9      180.000000       -0.179618         4    ;  uncertainty k = 0.029902
        12        11        39        42     9        0.000000       -0.810618         1    ;  uncertainty k = 0.476463
        12        11        39        42     9      180.000000       -0.740441         2    ;  uncertainty k = 0.208398
        12        11        39        42     9        0.000000        0.585176         3    ;  uncertainty k = 0.093112
        12        11        39        42     9      180.000000       -0.179618         4    ;  uncertainty k = 0.029902
        12        11        43        44     9        0.000000       -0.810618         1    ;  uncertainty k = 0.476463
        12        11        43        44     9      180.000000       -0.740441         2    ;  uncertainty k = 0.208398
        12        11        43        44     9        0.000000        0.585176         3    ;  uncertainty k = 0.093112
        12        11        43        44     9      180.000000       -0.179618         4    ;  uncertainty k = 0.029902
        12        11        43        45     9        0.000000       -0.810618         1    ;  uncertainty k = 0.476463
        12        11        43        45     9      180.000000       -0.740441         2    ;  uncertainty k = 0.208398
        12        11        43        45     9        0.000000        0.585176         3    ;  uncertainty k = 0.093112
        12        11        43        45     9      180.000000       -0.179618         4    ;  uncertainty k = 0.029902
        12        11        43        46     9        0.000000       -0.810618         1    ;  uncertainty k = 0.476463
        12        11        43        46     9      180.000000       -0.740441         2    ;  uncertainty k = 0.208398
        12        11        43        46     9        0.000000        0.585176         3    ;  uncertainty k = 0.093112
        12        11        43        46     9      180.000000       -0.179618         4    ;  uncertainty k = 0.029902
        12        15        16        17     9        0.000000       -3.062352         1    ;  uncertainty k = 1.276839
        12        15        16        17     9      180.000000        2.894127         2    ;  uncertainty k = 0.258588
        12        15        16        17     9        0.000000        0.860445         3    ;  uncertainty k = 0.091746
        12        15        16        17     9      180.000000        0.587117         4    ;  uncertainty k = 0.338989
        12        15        16        38     9        0.000000       -0.574292         1    ;  uncertainty k = 2.046094
        12        15        16        38     9      180.000000        3.928919         2    ;  uncertainty k = 1.075276
        12        15        16        38     9        0.000000        0.161227         3    ;  uncertainty k = 0.381109
        12        15        16        38     9      180.000000        0.057219         4    ;  uncertainty k = 0.338212
        12        15        19        18     9        0.000000       -0.720185         1    ;  uncertainty k = 0.363424
        12        15        19        18     9      180.000000        1.466373         2    ;  uncertainty k = 0.671881
        12        15        19        18     9        0.000000        0.362475         3    ;  uncertainty k = 0.242092
        12        15        19        18     9      180.000000        0.276221         4    ;  uncertainty k = 0.143829
        12        15        19        20     9        0.000000        1.014477         1    ;  uncertainty k = 3.207549
        12        15        19        20     9      180.000000       -0.447187         2    ;  uncertainty k = 0.880594
        12        15        19        20     9        0.000000        0.406773         3    ;  uncertainty k = 0.479851
        12        15        19        20     9      180.000000        0.075628         4    ;  uncertainty k = 0.078933
        13        12        11        39     9        0.000000       -0.868529         1    ;  uncertainty k = 0.359708
        13        12        11        39     9      180.000000        0.339049         2    ;  uncertainty k = 0.271426
        13        12        11        39     9        0.000000        0.030221         3    ;  uncertainty k = 0.169820
        13        12        11        39     9      180.000000       -0.198172         4    ;  uncertainty k = 0.102797
        13        12        11        43     9        0.000000       -0.868529         1    ;  uncertainty k = 0.359708
        13        12        11        43     9      180.000000        0.339049         2    ;  uncertainty k = 0.271426
        13        12        11        43     9        0.000000        0.030221         3    ;  uncertainty k = 0.169820
        13        12        11        43     9      180.000000       -0.198172         4    ;  uncertainty k = 0.102797
        13        12        15        16     9        0.000000        0.636692         1    ;  uncertainty k = 0.443881
        13        12        15        16     9      180.000000       -1.082831         2    ;  uncertainty k = 0.432291
        13        12        15        16     9        0.000000        0.083911         3    ;  uncertainty k = 0.203429
        13        12        15        16     9      180.000000       -0.053905         4    ;  uncertainty k = 0.095175
        13        12        15        19     9        0.000000       -1.014378         1    ;  uncertainty k = 0.666770
        13        12        15        19     9      180.000000       -0.206347         2    ;  uncertainty k = 0.431023
        13        12        15        19     9        0.000000        0.529827         3    ;  uncertainty k = 0.228576
        13        12        15        19     9      180.000000       -0.286824         4    ;  uncertainty k = 0.129461
        14        12        11        39     9        0.000000       -0.868529         1    ;  uncertainty k = 0.359708
        14        12        11        39     9      180.000000        0.339049         2    ;  uncertainty k = 0.271426
        14        12        11        39     9        0.000000        0.030221         3    ;  uncertainty k = 0.169820
        14        12        11        39     9      180.000000       -0.198172         4    ;  uncertainty k = 0.102797
        14        12        11        43     9        0.000000       -0.868529         1    ;  uncertainty k = 0.359708
        14        12        11        43     9      180.000000        0.339049         2    ;  uncertainty k = 0.271426
        14        12        11        43     9        0.000000        0.030221         3    ;  uncertainty k = 0.169820
        14        12        11        43     9      180.000000       -0.198172         4    ;  uncertainty k = 0.102797
        14        12        15        16     9        0.000000        0.636692         1    ;  uncertainty k = 0.443881
        14        12        15        16     9      180.000000       -1.082831         2    ;  uncertainty k = 0.432291
        14        12        15        16     9        0.000000        0.083911         3    ;  uncertainty k = 0.203429
        14        12        15        16     9      180.000000       -0.053905         4    ;  uncertainty k = 0.095175
        14        12        15        19     9        0.000000       -1.014378         1    ;  uncertainty k = 0.666770
        14        12        15        19     9      180.000000       -0.206347         2    ;  uncertainty k = 0.431023
        14        12        15        19     9        0.000000        0.529827         3    ;  uncertainty k = 0.228576
        14        12        15        19     9      180.000000       -0.286824         4    ;  uncertainty k = 0.129461
        15        12        11        39     9        0.000000       -0.394043         1    ;  uncertainty k = 0.952250
        15        12        11        39     9      180.000000       -0.298782         2    ;  uncertainty k = 0.210060
        15        12        11        39     9        0.000000        0.102279         3    ;  uncertainty k = 0.252570
        15        12        11        39     9      180.000000       -0.158350         4    ;  uncertainty k = 0.062640
        15        12        11        43     9        0.000000       -0.394043         1    ;  uncertainty k = 0.952250
        15        12        11        43     9      180.000000       -0.298782         2    ;  uncertainty k = 0.210060
        15        12        11        43     9        0.000000        0.102279         3    ;  uncertainty k = 0.252570
        15        12        11        43     9      180.000000       -0.158350         4    ;  uncertainty k = 0.062640
        15        16        17        18     9        0.000000        3.190561         1    ;  uncertainty k = 2.129280
        15        16        17        18     9      180.000000        4.165517         2    ;  uncertainty k = 2.103257
        15        16        17        18     9        0.000000       -0.163634         3    ;  uncertainty k = 0.825879
        15        16        17        18     9      180.000000        0.629686         4    ;  uncertainty k = 0.355315
        15        16        17        22     9        0.000000        4.948397         1    ;  uncertainty k = 2.742747
        15        16        17        22     9      180.000000        3.665594         2    ;  uncertainty k = 2.655463
        15        16        17        22     9        0.000000        1.132039         3    ;  uncertainty k = 0.860258
        15        16        17        22     9      180.000000        0.328976         4    ;  uncertainty k = 0.593115
        15        19        18        17     9        0.000000        1.152349         1    ;  uncertainty k = 2.624977
        15        19        18        17     9      180.000000       15.352878         2    ;  uncertainty k = 0.482589
        15        19        18        17     9        0.000000       -0.706328         3    ;  uncertainty k = 1.011989
        15        19        18        17     9      180.000000       -0.606107         4    ;  uncertainty k = 0.206718
        15        19        18        26     9        0.000000        3.692759         1    ;  uncertainty k = 0.866356
        15        19        18        26     9      180.000000       11.333780         2    ;  uncertainty k = 0.611404
        15        19        18        26     9        0.000000        0.314850         3    ;  uncertainty k = 0.239643
        15        19        18        26     9      180.000000       -0.482788         4    ;  uncertainty k = 0.513934
        16        15        19        18     9        0.000000        1.075899         1    ;  uncertainty k = 0.686753
        16        15        19        18     9      180.000000        2.337056         2    ;  uncertainty k = 0.668402
        16        15        19        18     9        0.000000        0.174345         3    ;  uncertainty k = 0.624028
        16        15        19        18     9      180.000000        0.491041         4    ;  uncertainty k = 0.337525
        16        15        19        20     9        0.000000        1.870130         1    ;  uncertainty k = 2.124003
        16        15        19        20     9      180.000000       -0.788361         2    ;  uncertainty k = 0.765206
        16        15        19        20     9        0.000000        0.063928         3    ;  uncertainty k = 0.474210
        16        15        19        20     9      180.000000        0.018852         4    ;  uncertainty k = 0.243518
        16        17        18        19     9        0.000000       -0.598871         1    ;  uncertainty k = 1.517512
        16        17        18        19     9      180.000000        9.023777         2    ;  uncertainty k = 0.890262
        16        17        18        19     9        0.000000       -1.321226         3    ;  uncertainty k = 1.261849
        16        17        18        19     9      180.000000       -0.043685         4    ;  uncertainty k = 0.510427
        16        17        18        26     9        0.000000       -0.742539         1    ;  uncertainty k = 0.884320
        16        17        18        26     9      180.000000        6.821150         2    ;  uncertainty k = 1.300514
        16        17        18        26     9        0.000000        0.216631         3    ;  uncertainty k = 0.558836
        16        17        18        26     9      180.000000       -0.098970         4    ;  uncertainty k = 0.493923
        16        17        22        23     9        0.000000        0.297431         1    ;  uncertainty k = 0.338022
        16        17        22        23     9      180.000000        0.087168         2    ;  uncertainty k = 0.381934
        16        17        22        23     9        0.000000        0.347193         3    ;  uncertainty k = 0.232215
        16        17        22        23     9      180.000000        0.291096         4    ;  uncertainty k = 0.074538
        16        17        22        24     9        0.000000        0.297431         1    ;  uncertainty k = 0.338022
        16        17        22        24     9      180.000000        0.087168         2    ;  uncertainty k = 0.381934
        16        17        22        24     9        0.000000        0.347193         3    ;  uncertainty k = 0.232215
        16        17        22        24     9      180.000000        0.291096         4    ;  uncertainty k = 0.074538
        16        17        22        25     9        0.000000        0.297431         1    ;  uncertainty k = 0.338022
        16        17        22        25     9      180.000000        0.087168         2    ;  uncertainty k = 0.381934
        16        17        22        25     9        0.000000        0.347193         3    ;  uncertainty k = 0.232215
        16        17        22        25     9      180.000000        0.291096         4    ;  uncertainty k = 0.074538
        17        16        15        19     9        0.000000       -0.734672         1    ;  uncertainty k = 2.407400
        17        16        15        19     9      180.000000        6.965369         2    ;  uncertainty k = 1.234531
        17        16        15        19     9        0.000000        0.624658         3    ;  uncertainty k = 0.577006
        17        16        15        19     9      180.000000        0.290059         4    ;  uncertainty k = 0.846479
        17        18        19        20     9        0.000000        4.051322         1    ;  uncertainty k = 3.391115
        17        18        19        20     9      180.000000       10.697180         2    ;  uncertainty k = 0.526601
        17        18        19        20     9        0.000000        1.093668         3    ;  uncertainty k = 0.752546
        17        18        19        20     9      180.000000       -0.389374         4    ;  uncertainty k = 0.265720
        17        18        26        27     9        0.000000        8.080941         1    ;  uncertainty k = 2.061712
        17        18        26        27     9      180.000000        9.353073         2    ;  uncertainty k = 0.455751
        17        18        26        27     9        0.000000        0.960301         3    ;  uncertainty k = 0.478476
        17        18        26        27     9      180.000000       -0.922267         4    ;  uncertainty k = 0.215681
        17        18        26        28     9        0.000000        8.080941         1    ;  uncertainty k = 2.061712
        17        18        26        28     9      180.000000        9.353073         2    ;  uncertainty k = 0.455751
        17        18        26        28     9        0.000000        0.960301         3    ;  uncertainty k = 0.478476
        17        18        26        28     9      180.000000       -0.922267         4    ;  uncertainty k = 0.215681
        18        17        16        38     9        0.000000       -0.225774         1    ;  uncertainty k = 3.237560
        18        17        16        38     9      180.000000        7.660703         2    ;  uncertainty k = 0.931236
        18        17        16        38     9        0.000000        0.373526         3    ;  uncertainty k = 0.816132
        18        17        16        38     9      180.000000        0.053274         4    ;  uncertainty k = 0.298389
        18        17        22        23     9        0.000000       -0.260671         1    ;  uncertainty k = 0.510831
        18        17        22        23     9      180.000000       -1.123799         2    ;  uncertainty k = 0.505443
        18        17        22        23     9        0.000000        0.381297         3    ;  uncertainty k = 0.163929
        18        17        22        23     9      180.000000        0.194836         4    ;  uncertainty k = 0.041789
        18        17        22        24     9        0.000000       -0.260671         1    ;  uncertainty k = 0.510831
        18        17        22        24     9      180.000000       -1.123799         2    ;  uncertainty k = 0.505443
        18        17        22        24     9        0.000000        0.381297         3    ;  uncertainty k = 0.163929
        18        17        22        24     9      180.000000        0.194836         4    ;  uncertainty k = 0.041789
        18        17        22        25     9        0.000000       -0.260671         1    ;  uncertainty k = 0.510831
        18        17        22        25     9      180.000000       -1.123799         2    ;  uncertainty k = 0.505443
        18        17        22        25     9        0.000000        0.381297         3    ;  uncertainty k = 0.163929
        18        17        22        25     9      180.000000        0.194836         4    ;  uncertainty k = 0.041789
        19        15        16        38     9        0.000000        0.024534         1    ;  uncertainty k = 2.213974
        19        15        16        38     9      180.000000        4.149250         2    ;  uncertainty k = 1.312392
        19        15        16        38     9        0.000000        0.407424         3    ;  uncertainty k = 0.206510
        19        15        16        38     9      180.000000        0.443240         4    ;  uncertainty k = 0.158688
        19        18        17        22     9        0.000000       -0.380136         1    ;  uncertainty k = 2.913081
        19        18        17        22     9      180.000000        8.267784         2    ;  uncertainty k = 0.403615
        19        18        17        22     9        0.000000        0.435757         3    ;  uncertainty k = 0.320054
        19        18        17        22     9      180.000000       -0.156996         4    ;  uncertainty k = 0.291188
        19        18        26        27     9        0.000000        6.366443         1    ;  uncertainty k = 1.644722
        19        18        26        27     9      180.000000       10.049531         2    ;  uncertainty k = 0.349760
        19        18        26        27     9        0.000000        1.357511         3    ;  uncertainty k = 0.507490
        19        18        26        27     9      180.000000       -0.656591         4    ;  uncertainty k = 0.287459
        19        18        26        28     9        0.000000        6.366443         1    ;  uncertainty k = 1.644722
        19        18        26        28     9      180.000000       10.049531         2    ;  uncertainty k = 0.349760
        19        18        26        28     9        0.000000        1.357511         3    ;  uncertainty k = 0.507490
        19        18        26        28     9      180.000000       -0.656591         4    ;  uncertainty k = 0.287459
        20        19        18        26     9        0.000000        1.886192         1    ;  uncertainty k = 2.633103
        20        19        18        26     9      180.000000        7.784175         2    ;  uncertainty k = 1.209625
        20        19        18        26     9        0.000000        0.956054         3    ;  uncertainty k = 0.197633
        20        19        18        26     9      180.000000       -0.247909         4    ;  uncertainty k = 0.316191
        21        29        31        32     9        0.000000        0.062393         1    ;  uncertainty k = 0.308314
        21        29        31        32     9      180.000000        9.254329         2    ;  uncertainty k = 0.567458
        21        29        31        32     9        0.000000        0.096613         3    ;  uncertainty k = 0.349824
        21        29        31        32     9      180.000000        1.219642         4    ;  uncertainty k = 0.362524
        21        29        31        47     9        0.000000       -0.007597         1    ;  uncertainty k = 0.294320
        21        29        31        47     9      180.000000       10.649637         2    ;  uncertainty k = 0.499463
        21        29        31        47     9        0.000000        1.035894         3    ;  uncertainty k = 0.236653
        21        29        31        47     9      180.000000        1.566899         4    ;  uncertainty k = 0.105770
        21        36        34        32     9        0.000000        0.044080         1    ;  uncertainty k = 0.419063
        21        36        34        32     9      180.000000        9.485290         2    ;  uncertainty k = 0.634513
        21        36        34        32     9        0.000000       -0.140922         3    ;  uncertainty k = 0.402426
        21        36        34        32     9      180.000000        1.196266         4    ;  uncertainty k = 0.297530
        21        36        34        35     9        0.000000       -0.075616         1    ;  uncertainty k = 0.160553
        21        36        34        35     9      180.000000       12.589378         2    ;  uncertainty k = 0.561945
        21        36        34        35     9        0.000000        1.473662         3    ;  uncertainty k = 0.322505
        21        36        34        35     9      180.000000        1.491949         4    ;  uncertainty k = 0.207185
        22        17        16        38     9        0.000000       -0.743118         1    ;  uncertainty k = 3.324160
        22        17        16        38     9      180.000000        8.127734         2    ;  uncertainty k = 0.445128
        22        17        16        38     9        0.000000        0.693460         3    ;  uncertainty k = 0.571372
        22        17        16        38     9      180.000000        0.151177         4    ;  uncertainty k = 0.263311
        22        17        18        26     9        0.000000       -0.067505         1    ;  uncertainty k = 0.784520
        22        17        18        26     9      180.000000        6.890792         2    ;  uncertainty k = 0.817474
        22        17        18        26     9        0.000000        0.975121         3    ;  uncertainty k = 0.584566
        22        17        18        26     9      180.000000       -0.011356         4    ;  uncertainty k = 0.268200
        29        21        36        34     9        0.000000        0.004850         1    ;  uncertainty k = 0.230245
        29        21        36        34     9      180.000000       11.591924         2    ;  uncertainty k = 0.312563
        29        21        36        34     9        0.000000       -0.435474         3    ;  uncertainty k = 0.436402
        29        21        36        34     9      180.000000        0.928100         4    ;  uncertainty k = 0.298209
        29        21        36        37     9        0.000000        0.185208         1    ;  uncertainty k = 0.168544
        29        21        36        37     9      180.000000        6.924318         2    ;  uncertainty k = 0.611957
        29        21        36        37     9        0.000000        1.535697         3    ;  uncertainty k = 0.272376
        29        21        36        37     9      180.000000        1.640393         4    ;  uncertainty k = 0.230241
        29        31        32        33     9        0.000000        0.273830         1    ;  uncertainty k = 0.338094
        29        31        32        33     9      180.000000        5.748933         2    ;  uncertainty k = 0.453451
        29        31        32        33     9        0.000000        1.432230         3    ;  uncertainty k = 0.249568
        29        31        32        33     9      180.000000        1.582232         4    ;  uncertainty k = 0.077333
        29        31        32        34     9        0.000000        0.032987         1    ;  uncertainty k = 0.186091
        29        31        32        34     9      180.000000        8.981947         2    ;  uncertainty k = 0.664409
        29        31        32        34     9        0.000000        0.058913         3    ;  uncertainty k = 0.473707
        29        31        32        34     9      180.000000        1.258630         4    ;  uncertainty k = 0.303139
        29        31        47        48     9        0.000000       -0.202855         1    ;  uncertainty k = 0.538932
        29        31        47        48     9      180.000000        7.755805         2    ;  uncertainty k = 0.049922
        29        31        47        48     9        0.000000        0.501407         3    ;  uncertainty k = 0.176799
        29        31        47        48     9      180.000000        0.280725         4    ;  uncertainty k = 0.055901
        30        29        21        36     9        0.000000        0.246620         1    ;  uncertainty k = 0.150523
        30        29        21        36     9      180.000000        7.164907         2    ;  uncertainty k = 0.528218
        30        29        21        36     9        0.000000        1.565548         3    ;  uncertainty k = 0.238339
        30        29        21        36     9      180.000000        1.658854         4    ;  uncertainty k = 0.162991
        30        29        31        32     9        0.000000        0.255470         1    ;  uncertainty k = 0.308986
        30        29        31        32     9      180.000000        6.121036         2    ;  uncertainty k = 0.451517
        30        29        31        32     9        0.000000        1.443323         3    ;  uncertainty k = 0.284302
        30        29        31        32     9      180.000000        1.663308         4    ;  uncertainty k = 0.097148
        30        29        31        47     9        0.000000       -0.112277         1    ;  uncertainty k = 0.215848
        30        29        31        47     9      180.000000        8.326947         2    ;  uncertainty k = 0.271555
        30        29        31        47     9        0.000000        0.638701         3    ;  uncertainty k = 0.159743
        30        29        31        47     9      180.000000        1.066546         4    ;  uncertainty k = 0.176665
        31        29        21        36     9        0.000000       -0.085079         1    ;  uncertainty k = 0.234360
        31        29        21        36     9      180.000000       11.239380         2    ;  uncertainty k = 0.323821
        31        29        21        36     9        0.000000       -0.230675         3    ;  uncertainty k = 0.274361
        31        29        21        36     9      180.000000        0.989555         4    ;  uncertainty k = 0.242649
        31        32        34        35     9        0.000000       -0.061973         1    ;  uncertainty k = 0.229830
        31        32        34        35     9      180.000000       12.391609         2    ;  uncertainty k = 0.845404
        31        32        34        35     9        0.000000        1.593238         3    ;  uncertainty k = 0.412025
        31        32        34        35     9      180.000000        1.485697         4    ;  uncertainty k = 0.373650
        31        32        34        36     9        0.000000        0.022709         1    ;  uncertainty k = 0.163161
        31        32        34        36     9      180.000000        9.001502         2    ;  uncertainty k = 0.629996
        31        32        34        36     9        0.000000       -0.074298         3    ;  uncertainty k = 0.467732
        31        32        34        36     9      180.000000        1.235809         4    ;  uncertainty k = 0.209301
        31        47        48        49     9        0.000000        0.697135         1    ;  uncertainty k = 0.250008
        31        47        48        49     9      180.000000       -1.497147         2    ;  uncertainty k = 0.161947
        31        47        48        49     9        0.000000        0.927803         3    ;  uncertainty k = 0.038429
        31        47        48        49     9      180.000000        0.279531         4    ;  uncertainty k = 0.054342
        31        47        48        50     9        0.000000        0.697135         1    ;  uncertainty k = 0.250008
        31        47        48        50     9      180.000000       -1.497147         2    ;  uncertainty k = 0.161947
        31        47        48        50     9        0.000000        0.927803         3    ;  uncertainty k = 0.038429
        31        47        48        50     9      180.000000        0.279531         4    ;  uncertainty k = 0.054342
        31        47        48        51     9        0.000000        0.697135         1    ;  uncertainty k = 0.250008
        31        47        48        51     9      180.000000       -1.497147         2    ;  uncertainty k = 0.161947
        31        47        48        51     9        0.000000        0.927803         3    ;  uncertainty k = 0.038429
        31        47        48        51     9      180.000000        0.279531         4    ;  uncertainty k = 0.054342
        32        31        47        48     9        0.000000        0.498775         1    ;  uncertainty k = 0.544079
        32        31        47        48     9      180.000000        7.745055         2    ;  uncertainty k = 0.111247
        32        31        47        48     9        0.000000        0.634403         3    ;  uncertainty k = 0.169221
        32        31        47        48     9      180.000000        0.288249         4    ;  uncertainty k = 0.030808
        32        34        36        37     9        0.000000       -0.062731         1    ;  uncertainty k = 0.189645
        32        34        36        37     9      180.000000        5.867186         2    ;  uncertainty k = 0.678027
        32        34        36        37     9        0.000000        1.311262         3    ;  uncertainty k = 0.293034
        32        34        36        37     9      180.000000        1.596951         4    ;  uncertainty k = 0.130425
        33        32        31        47     9        0.000000       -0.084070         1    ;  uncertainty k = 0.204872
        33        32        31        47     9      180.000000        7.961356         2    ;  uncertainty k = 0.286931
        33        32        31        47     9        0.000000        0.672033         3    ;  uncertainty k = 0.166926
        33        32        31        47     9      180.000000        0.996937         4    ;  uncertainty k = 0.207438
        33        32        34        35     9        0.000000       -0.233212         1    ;  uncertainty k = 0.257275
        33        32        34        35     9      180.000000        8.650733         2    ;  uncertainty k = 0.353775
        33        32        34        35     9        0.000000        0.832786         3    ;  uncertainty k = 0.275114
        33        32        34        35     9      180.000000        1.000834         4    ;  uncertainty k = 0.203615
        33        32        34        36     9        0.000000        0.141123         1    ;  uncertainty k = 0.090327
        33        32        34        36     9      180.000000        5.688393         2    ;  uncertainty k = 0.582137
        33        32        34        36     9        0.000000        1.374721         3    ;  uncertainty k = 0.270009
        33        32        34        36     9      180.000000        1.522816         4    ;  uncertainty k = 0.058227
        34        32        31        47     9        0.000000       -0.016751         1    ;  uncertainty k = 0.221405
        34        32        31        47     9      180.000000       10.614527         2    ;  uncertainty k = 0.439867
        34        32        31        47     9        0.000000        1.201513         3    ;  uncertainty k = 0.251267
        34        32        31        47     9      180.000000        1.605472         4    ;  uncertainty k = 0.154731
        35        34        36        37     9        0.000000       -0.395373         1    ;  uncertainty k = 0.154432
        35        34        36        37     9      180.000000        8.921328         2    ;  uncertainty k = 0.416106
        35        34        36        37     9        0.000000        0.790440         3    ;  uncertainty k = 0.206485
        35        34        36        37     9      180.000000        1.004239         4    ;  uncertainty k = 0.243928
        39        11        43        44     9        0.000000       -1.168308         1    ;  uncertainty k = 0.299692
        39        11        43        44     9      180.000000        0.150758         2    ;  uncertainty k = 0.296599
        39        11        43        44     9        0.000000        0.668939         3    ;  uncertainty k = 0.064920
        39        11        43        44     9      180.000000       -0.104414         4    ;  uncertainty k = 0.091599
        39        11        43        45     9        0.000000       -1.168308         1    ;  uncertainty k = 0.299692
        39        11        43        45     9      180.000000        0.150758         2    ;  uncertainty k = 0.296599
        39        11        43        45     9        0.000000        0.668939         3    ;  uncertainty k = 0.064920
        39        11        43        45     9      180.000000       -0.104414         4    ;  uncertainty k = 0.091599
        39        11        43        46     9        0.000000       -1.168308         1    ;  uncertainty k = 0.299692
        39        11        43        46     9      180.000000        0.150758         2    ;  uncertainty k = 0.296599
        39        11        43        46     9        0.000000        0.668939         3    ;  uncertainty k = 0.064920
        39        11        43        46     9      180.000000       -0.104414         4    ;  uncertainty k = 0.091599
        40        39        11        43     9        0.000000       -1.168308         1    ;  uncertainty k = 0.299692
        40        39        11        43     9      180.000000        0.150758         2    ;  uncertainty k = 0.296599
        40        39        11        43     9        0.000000        0.668939         3    ;  uncertainty k = 0.064920
        40        39        11        43     9      180.000000       -0.104414         4    ;  uncertainty k = 0.091599
        41        39        11        43     9        0.000000       -1.168308         1    ;  uncertainty k = 0.299692
        41        39        11        43     9      180.000000        0.150758         2    ;  uncertainty k = 0.296599
        41        39        11        43     9        0.000000        0.668939         3    ;  uncertainty k = 0.064920
        41        39        11        43     9      180.000000       -0.104414         4    ;  uncertainty k = 0.091599
        42        39        11        43     9        0.000000       -1.168308         1    ;  uncertainty k = 0.299692
        42        39        11        43     9      180.000000        0.150758         2    ;  uncertainty k = 0.296599
        42        39        11        43     9        0.000000        0.668939         3    ;  uncertainty k = 0.064920
        42        39        11        43     9      180.000000       -0.104414         4    ;  uncertainty k = 0.091599

[ dihedrals ] ; impropers
;       ai        aj        ak        al funct           phase               k        pn
         1         2         8        21     4      180.000000       13.125413         2    ;  uncertainty k = 0.114042
         1         8        21         2     4      180.000000       13.125413         2    ;  uncertainty k = 0.114042
         1        21         2         8     4      180.000000       13.125413         2    ;  uncertainty k = 0.114042
         2         1         3         4     4      180.000000        4.735156         2    ;  uncertainty k = 0.189884
         2         3         4         1     4      180.000000        4.735156         2    ;  uncertainty k = 0.189884
         2         4         1         3     4      180.000000        4.735156         2    ;  uncertainty k = 0.189884
         4         2         5         6     4      180.000000        1.916582         2    ;  uncertainty k = 0.189189
         4         5         6         2     4      180.000000        1.916582         2    ;  uncertainty k = 0.189189
         4         6         2         5     4      180.000000        1.916582         2    ;  uncertainty k = 0.189189
         6         4         7        10     4      180.000000       22.038012         2    ;  uncertainty k = 0.126561
         6         7        10         4     4      180.000000       22.038012         2    ;  uncertainty k = 0.126561
         6        10         4         7     4      180.000000       22.038012         2    ;  uncertainty k = 0.126561
         7         6         8        15     4      180.000000       11.758551         2    ;  uncertainty k = 0.248599
         7         8        15         6     4      180.000000       11.758551         2    ;  uncertainty k = 0.248599
         7        15         6         8     4      180.000000       11.758551         2    ;  uncertainty k = 0.248599
         8         1         7         9     4      180.000000        4.903871         2    ;  uncertainty k = 0.397460
         8         7         9         1     4      180.000000        4.903871         2    ;  uncertainty k = 0.397460
         8         9         1         7     4      180.000000        4.903871         2    ;  uncertainty k = 0.397460
        16        15        17        38     4      180.000000       50.512062         2    ;  uncertainty k = 0.072585
        16        17        38        15     4      180.000000       50.512062         2    ;  uncertainty k = 0.072585
        16        38        15        17     4      180.000000       50.512062         2    ;  uncertainty k = 0.072585
        17        16        18        22     4      180.000000        2.066646         2    ;  uncertainty k = 0.825300
        17        18        22        16     4      180.000000        2.066646         2    ;  uncertainty k = 0.825300
        17        22        16        18     4      180.000000        2.066646         2    ;  uncertainty k = 0.825300
        18        17        19        26     4      180.000000       30.892449         2    ;  uncertainty k = 0.146917
        18        19        26        17     4      180.000000       30.892449         2    ;  uncertainty k = 0.146917
        18        26        17        19     4      180.000000       30.892449         2    ;  uncertainty k = 0.146917
        21         1        29        36     4      180.000000       15.744430         2    ;  uncertainty k = 0.044320
        21        29        36         1     4      180.000000       15.744430         2    ;  uncertainty k = 0.044320
        21        36         1        29     4      180.000000       15.744430         2    ;  uncertainty k = 0.044320
        26        18        27        28     4      180.000000        0.184047         2    ;  uncertainty k = 0.411542
        26        27        28        18     4      180.000000        0.184047         2    ;  uncertainty k = 0.411542
        26        28        18        27     4      180.000000        0.184047         2    ;  uncertainty k = 0.411542
        29        21        30        31     4      180.000000        1.824419         2    ;  uncertainty k = 0.231226
        29        30        31        21     4      180.000000        1.824419         2    ;  uncertainty k = 0.231226
        29        31        21        30     4      180.000000        1.824419         2    ;  uncertainty k = 0.231226
        31        29        32        47     4      180.000000       20.850454         2    ;  uncertainty k = 0.078309
        31        32        47        29     4      180.000000       20.850454         2    ;  uncertainty k = 0.078309
        31        47        29        32     4      180.000000       20.850454         2    ;  uncertainty k = 0.078309
        32        31        33        34     4      180.000000        0.957973         2    ;  uncertainty k = 0.566787
        32        33        34        31     4      180.000000        0.957973         2    ;  uncertainty k = 0.566787
        32        34        31        33     4      180.000000        0.957973         2    ;  uncertainty k = 0.566787
        34        32        35        36     4      180.000000       17.760655         2    ;  uncertainty k = 0.034474
        34        35        36        32     4      180.000000       17.760655         2    ;  uncertainty k = 0.034474
        34        36        32        35     4      180.000000       17.760655         2    ;  uncertainty k = 0.034474
        36        21        34        37     4      180.000000        1.528213         2    ;  uncertainty k = 0.191126
        36        34        37        21     4      180.000000        1.528213         2    ;  uncertainty k = 0.191126
        36        37        21        34     4      180.000000        1.528213         2    ;  uncertainty k = 0.191126

[ pairs ]
;       ai        aj funct
         1         5     1
         1         6     1
         1        15     1
         1        30     1
         1        31     1
         1        34     1
         1        37     1
         2         7     1
         2         9     1
         2        10     1
         2        29     1
         2        36     1
         3         5     1
         3         6     1
         3         8     1
         3        21     1
         4         8     1
         4        11     1
         4        15     1
         4        21     1
         5         7     1
         5        10     1
         6         9     1
         6        12     1
         6        16     1
         6        19     1
         6        39     1
         6        43     1
         7        11     1
         7        13     1
         7        14     1
         7        17     1
         7        18     1
         7        20     1
         7        21     1
         7        38     1
         8        10     1
         8        12     1
         8        16     1
         8        19     1
         8        29     1
         8        36     1
         9        15     1
         9        21     1
        10        13     1
        10        14     1
        10        15     1
        10        40     1
        10        41     1
        10        42     1
        10        44     1
        10        45     1
        10        46     1
        11        16     1
        11        19     1
        12        17     1
        12        18     1
        12        20     1
        12        38     1
        12        40     1
        12        41     1
        12        42     1
        12        44     1
        12        45     1
        12        46     1
        13        16     1
        13        19     1
        13        39     1
        13        43     1
        14        16     1
        14        19     1
        14        39     1
        14        43     1
        15        22     1
        15        26     1
        15        39     1
        15        43     1
        16        20     1
        16        23     1
        16        24     1
        16        25     1
        16        26     1
        17        20     1
        17        27     1
        17        28     1
        18        23     1
        18        24     1
        18        25     1
        18        38     1
        19        22     1
        19        27     1
        19        28     1
        19        38     1
        20        26     1
        21        32     1
        21        35     1
        21        47     1
        22        26     1
        22        38     1
        29        33     1
        29        34     1
        29        37     1
        29        48     1
        30        32     1
        30        36     1
        30        47     1
        31        35     1
        31        36     1
        31        49     1
        31        50     1
        31        51     1
        32        37     1
        32        48     1
        33        35     1
        33        36     1
        33        47     1
        34        47     1
        35        37     1
        39        44     1
        39        45     1
        39        46     1
        40        43     1
        41        43     1
        42        43     1
