; ITP file created by ByteFF-joint-25, 2026-03-14 15:25:20.694233

[ atomtypes ]
;name           bonded.type        at.num        mass        charge   ptype           sigma         epsilon
 c0bf                                   6      0.0000       0.00000       A     3.31500e-01     4.13004e-01    ;  uncertainty sigma = 0.000011, epsilon = 0.000987
 c1bf                                   6      0.0000       0.00000       A     3.31513e-01     4.13411e-01    ;  uncertainty sigma = 0.000005, epsilon = 0.000634
 h2bf                                   1      0.0000       0.00000       A     2.62563e-01     6.71382e-02    ;  uncertainty sigma = 0.000008, epsilon = 0.000500
 c3bf                                   6      0.0000       0.00000       A     3.31523e-01     4.13778e-01    ;  uncertainty sigma = 0.000003, epsilon = 0.000961
 h4bf                                   1      0.0000       0.00000       A     2.62561e-01     6.68067e-02    ;  uncertainty sigma = 0.000012, epsilon = 0.000527
 c5bf                                   6      0.0000       0.00000       A     3.31562e-01     4.13129e-01    ;  uncertainty sigma = 0.000021, epsilon = 0.000953
 c6bf                                   6      0.0000       0.00000       A     3.31604e-01     4.12991e-01    ;  uncertainty sigma = 0.000053, epsilon = 0.001665
 c7bf                                   6      0.0000       0.00000       A     3.31538e-01     4.13431e-01    ;  uncertainty sigma = 0.000016, epsilon = 0.001406
 h8bf                                   1      0.0000       0.00000       A     2.62555e-01     6.73758e-02    ;  uncertainty sigma = 0.000015, epsilon = 0.000633
 o9bf                                   8      0.0000       0.00000       A     3.15675e-01     3.03349e-01    ;  uncertainty sigma = 0.000037, epsilon = 0.000709
 c10bf                                  6      0.0000       0.00000       A     3.39754e-01     4.50298e-01    ;  uncertainty sigma = 0.000022, epsilon = 0.001818
 c11bf                                  6      0.0000       0.00000       A     3.39729e-01     4.51261e-01    ;  uncertainty sigma = 0.000015, epsilon = 0.001388
 h12bf                                  1      0.0000       0.00000       A     2.60113e-01     8.69260e-02    ;  uncertainty sigma = 0.000018, epsilon = 0.001362
 h13bf                                  1      0.0000       0.00000       A     2.60113e-01     8.69260e-02    ;  uncertainty sigma = 0.000018, epsilon = 0.001362
 c14bf                                  6      0.0000       0.00000       A     3.39922e-01     4.52078e-01    ;  uncertainty sigma = 0.000044, epsilon = 0.005050
 c15bf                                  6      0.0000       0.00000       A     3.31534e-01     4.13061e-01    ;  uncertainty sigma = 0.000023, epsilon = 0.000770
 n16bf                                  7      0.0000       0.00000       A     3.18159e-01     6.82058e-01    ;  uncertainty sigma = 0.000074, epsilon = 0.006526
 c17bf                                  6      0.0000       0.00000       A     3.31516e-01     4.13029e-01    ;  uncertainty sigma = 0.000046, epsilon = 0.002102
 n18bf                                  7      0.0000       0.00000       A     3.27895e-01     6.51183e-01    ;  uncertainty sigma = 0.000198, epsilon = 0.011723
 h19bf                                  1      0.0000       0.00000       A     1.10796e-01     4.19443e-02    ;  uncertainty sigma = 0.000445, epsilon = 0.001840
 c20bf                                  6      0.0000       0.00000       A     3.31509e-01     4.13171e-01    ;  uncertainty sigma = 0.000006, epsilon = 0.000646
 c21bf                                  6      0.0000       0.00000       A     3.39747e-01     4.51374e-01    ;  uncertainty sigma = 0.000011, epsilon = 0.001160
 h22bf                                  1      0.0000       0.00000       A     2.42212e-01     8.67416e-02    ;  uncertainty sigma = 0.000033, epsilon = 0.000677
 h23bf                                  1      0.0000       0.00000       A     2.42212e-01     8.67416e-02    ;  uncertainty sigma = 0.000033, epsilon = 0.000677
 h24bf                                  1      0.0000       0.00000       A     2.42212e-01     8.67416e-02    ;  uncertainty sigma = 0.000033, epsilon = 0.000677
 n25bf                                  7      0.0000       0.00000       A     3.36518e-01     4.71691e-01    ;  uncertainty sigma = 0.000108, epsilon = 0.006012
 h26bf                                  1      0.0000       0.00000       A     1.10696e-01     4.11175e-02    ;  uncertainty sigma = 0.000127, epsilon = 0.001410
 h27bf                                  1      0.0000       0.00000       A     1.10696e-01     4.11175e-02    ;  uncertainty sigma = 0.000127, epsilon = 0.001410
 c28bf                                  6      0.0000       0.00000       A     3.31523e-01     4.13273e-01    ;  uncertainty sigma = 0.000008, epsilon = 0.000861
 h29bf                                  1      0.0000       0.00000       A     2.62560e-01     6.71685e-02    ;  uncertainty sigma = 0.000009, epsilon = 0.000710
 c30bf                                  6      0.0000       0.00000       A     3.31528e-01     4.13579e-01    ;  uncertainty sigma = 0.000004, epsilon = 0.000769
 c31bf                                  6      0.0000       0.00000       A     3.31514e-01     4.13313e-01    ;  uncertainty sigma = 0.000004, epsilon = 0.000613
 h32bf                                  1      0.0000       0.00000       A     2.62557e-01     6.71119e-02    ;  uncertainty sigma = 0.000005, epsilon = 0.000457
 c33bf                                  6      0.0000       0.00000       A     3.31523e-01     4.13260e-01    ;  uncertainty sigma = 0.000003, epsilon = 0.000604
 h34bf                                  1      0.0000       0.00000       A     2.62566e-01     6.69975e-02    ;  uncertainty sigma = 0.000011, epsilon = 0.000418
 c35bf                                  6      0.0000       0.00000       A     3.31538e-01     4.13110e-01    ;  uncertainty sigma = 0.000006, epsilon = 0.000608
 f36bf                                  9      0.0000       0.00000       A     3.03433e-01     3.48170e-01    ;  uncertainty sigma = 0.000014, epsilon = 0.000850
 o37bf                                  8      0.0000       0.00000       A     3.04746e-01     6.12575e-01    ;  uncertainty sigma = 0.000054, epsilon = 0.002454
 c38bf                                  6      0.0000       0.00000       A     3.39769e-01     4.50351e-01    ;  uncertainty sigma = 0.000003, epsilon = 0.001331
 h39bf                                  1      0.0000       0.00000       A     2.60031e-01     8.68009e-02    ;  uncertainty sigma = 0.000006, epsilon = 0.000320
 h40bf                                  1      0.0000       0.00000       A     2.60031e-01     8.68009e-02    ;  uncertainty sigma = 0.000006, epsilon = 0.000320
 h41bf                                  1      0.0000       0.00000       A     2.60031e-01     8.68009e-02    ;  uncertainty sigma = 0.000006, epsilon = 0.000320
 c42bf                                  6      0.0000       0.00000       A     3.39769e-01     4.50351e-01    ;  uncertainty sigma = 0.000003, epsilon = 0.001331
 h43bf                                  1      0.0000       0.00000       A     2.60031e-01     8.68009e-02    ;  uncertainty sigma = 0.000006, epsilon = 0.000320
 h44bf                                  1      0.0000       0.00000       A     2.60031e-01     8.68009e-02    ;  uncertainty sigma = 0.000006, epsilon = 0.000320
 h45bf                                  1      0.0000       0.00000       A     2.60031e-01     8.68009e-02    ;  uncertainty sigma = 0.000006, epsilon = 0.000320
 o46bf                                  8      0.0000       0.00000       A     3.15639e-01     3.03015e-01    ;  uncertainty sigma = 0.000023, epsilon = 0.000796
 c47bf                                  6      0.0000       0.00000       A     3.39790e-01     4.50985e-01    ;  uncertainty sigma = 0.000004, epsilon = 0.000763
 h48bf                                  1      0.0000       0.00000       A     2.42205e-01     8.67536e-02    ;  uncertainty sigma = 0.000015, epsilon = 0.000623
 h49bf                                  1      0.0000       0.00000       A     2.42205e-01     8.67536e-02    ;  uncertainty sigma = 0.000015, epsilon = 0.000623
 h50bf                                  1      0.0000       0.00000       A     2.42205e-01     8.67536e-02    ;  uncertainty sigma = 0.000015, epsilon = 0.000623

[ moleculetype ]
;name             nrexcl
 MOL                   3

[ atoms ]
;       nr            type      resi   res      atom      cgnr      charge          mass ; qtot
         1            c0bf         1   UNL        c0         1    -0.03031       12.0110 ; qtot   -0.030
         2            c1bf         1   UNL        c1         2    -0.06225       12.0110 ; qtot   -0.093
         3            h2bf         1   UNL        h2         3     0.14160        1.0080 ; qtot    0.049
         4            c3bf         1   UNL        c3         4    -0.15046       12.0110 ; qtot   -0.101
         5            h4bf         1   UNL        h4         5     0.15718        1.0080 ; qtot    0.056
         6            c5bf         1   UNL        c5         6     0.18249       12.0110 ; qtot    0.238
         7            c6bf         1   UNL        c6         7    -0.20508       12.0110 ; qtot    0.033
         8            c7bf         1   UNL        c7         8    -0.05775       12.0110 ; qtot   -0.025
         9            h8bf         1   UNL        h8         9     0.15273        1.0080 ; qtot    0.128
        10            o9bf         1   UNL        o9        10    -0.32527       15.9990 ; qtot   -0.197
        11           c10bf         1   UNL       c10        11     0.16563       12.0110 ; qtot   -0.031
        12           c11bf         1   UNL       c11        12    -0.09875       12.0110 ; qtot   -0.130
        13           h12bf         1   UNL       h12        13     0.09101        1.0080 ; qtot   -0.039
        14           h13bf         1   UNL       h13        14     0.09101        1.0080 ; qtot    0.052
        15           c14bf         1   UNL       c14        15     0.04015       12.0110 ; qtot    0.092
        16           c15bf         1   UNL       c15        16     0.70447       12.0110 ; qtot    0.796
        17           n16bf         1   UNL       n16        17    -0.41729       14.0070 ; qtot    0.379
        18           c17bf         1   UNL       c17        18     0.47248       12.0110 ; qtot    0.852
        19           n18bf         1   UNL       n18        19    -0.37461       14.0070 ; qtot    0.477
        20           h19bf         1   UNL       h19        20     0.35504        1.0080 ; qtot    0.832
        21           c20bf         1   UNL       c20        21    -0.03898       12.0110 ; qtot    0.793
        22           c21bf         1   UNL       c21        22     0.07530       12.0110 ; qtot    0.868
        23           h22bf         1   UNL       h22        23     0.09109        1.0080 ; qtot    0.959
        24           h23bf         1   UNL       h23        24     0.09109        1.0080 ; qtot    1.051
        25           h24bf         1   UNL       h24        25     0.09109        1.0080 ; qtot    1.142
        26           n25bf         1   UNL       n25        26    -0.48596       14.0070 ; qtot    0.656
        27           h26bf         1   UNL       h26        27     0.33929        1.0080 ; qtot    0.995
        28           h27bf         1   UNL       h27        28     0.33929        1.0080 ; qtot    1.334
        29           c28bf         1   UNL       c28        29    -0.15330       12.0110 ; qtot    1.181
        30           h29bf         1   UNL       h29        30     0.14657        1.0080 ; qtot    1.328
        31           c30bf         1   UNL       c30        31     0.11996       12.0110 ; qtot    1.447
        32           c31bf         1   UNL       c31        32    -0.16231       12.0110 ; qtot    1.285
        33           h32bf         1   UNL       h32        33     0.14693        1.0080 ; qtot    1.432
        34           c33bf         1   UNL       c33        34    -0.13146       12.0110 ; qtot    1.301
        35           h34bf         1   UNL       h34        35     0.15513        1.0080 ; qtot    1.456
        36           c35bf         1   UNL       c35        36     0.11663       12.0110 ; qtot    1.572
        37           f36bf         1   UNL       f36        37    -0.14440       18.9980 ; qtot    1.428
        38           o37bf         1   UNL       o37        38    -0.45182       15.9990 ; qtot    0.976
        39           c38bf         1   UNL       c38        39    -0.10337       12.0110 ; qtot    0.873
        40           h39bf         1   UNL       h39        40     0.05101        1.0080 ; qtot    0.924
        41           h40bf         1   UNL       h40        41     0.05101        1.0080 ; qtot    0.975
        42           h41bf         1   UNL       h41        42     0.05101        1.0080 ; qtot    1.026
        43           c42bf         1   UNL       c42        43    -0.10337       12.0110 ; qtot    0.922
        44           h43bf         1   UNL       h43        44     0.05101        1.0080 ; qtot    0.973
        45           h44bf         1   UNL       h44        45     0.05101        1.0080 ; qtot    1.024
        46           h45bf         1   UNL       h45        46     0.05101        1.0080 ; qtot    1.075
        47           o46bf         1   UNL       o46        47    -0.32447       15.9990 ; qtot    0.751
        48           c47bf         1   UNL       c47        48     0.12109       12.0110 ; qtot    0.872
        49           h48bf         1   UNL       h48        49     0.04263        1.0080 ; qtot    0.915
        50           h49bf         1   UNL       h49        50     0.04263        1.0080 ; qtot    0.957
        51           h50bf         1   UNL       h50        51     0.04264        1.0080 ; qtot    1.000

[ bonds ]
;       ai        aj funct               r               k
         1         2     1        0.140348   344969.625293    ;  uncertainty r = 0.000062, k = 3.321731
         1         8     1        0.139608   338121.491895    ;  uncertainty r = 0.000080, k = 5.051020
         1        21     1        0.147894   276948.495557    ;  uncertainty r = 0.000077, k = 10.168525
         2         3     1        0.108715   334236.761279    ;  uncertainty r = 0.000013, k = 1.362394
         2         4     1        0.138704   375771.618359    ;  uncertainty r = 0.000069, k = 2.469866
         4         5     1        0.108788   336617.637061    ;  uncertainty r = 0.000017, k = 1.411956
         4         6     1        0.140086   362230.540576    ;  uncertainty r = 0.000052, k = 3.404710
         6         7     1        0.139987   328983.803418    ;  uncertainty r = 0.000163, k = 7.293716
         6        10     1        0.136368   303578.797510    ;  uncertainty r = 0.000194, k = 10.538317
         7         8     1        0.139554   346161.978467    ;  uncertainty r = 0.000125, k = 6.937202
         7        15     1        0.150678   205784.156250    ;  uncertainty r = 0.000110, k = 20.274094
         8         9     1        0.108737   335290.013818    ;  uncertainty r = 0.000078, k = 4.570467
        10        11     1        0.145422   203859.641382    ;  uncertainty r = 0.000221, k = 9.275520
        11        12     1        0.152936   192803.911694    ;  uncertainty r = 0.000262, k = 11.274596
        11        39     1        0.152325   205847.654272    ;  uncertainty r = 0.000037, k = 5.592256
        11        43     1        0.152325   205847.654272    ;  uncertainty r = 0.000037, k = 5.592256
        12        13     1        0.109477   309561.503809    ;  uncertainty r = 0.000048, k = 2.448473
        12        14     1        0.109477   309561.503809    ;  uncertainty r = 0.000048, k = 2.448473
        12        15     1        0.153041   191194.026782    ;  uncertainty r = 0.000126, k = 21.513846
        15        16     1        0.153598   171646.122900    ;  uncertainty r = 0.000173, k = 14.753170
        15        19     1        0.149698   232215.907178    ;  uncertainty r = 0.000407, k = 51.570456
        16        17     1        0.142413   302839.344971    ;  uncertainty r = 0.000236, k = 75.996174
        16        38     1        0.120112   608584.455469    ;  uncertainty r = 0.000161, k = 10.569144
        17        18     1        0.135836   286250.770703    ;  uncertainty r = 0.000260, k = 52.766102
        17        22     1        0.146741   261825.572607    ;  uncertainty r = 0.000154, k = 17.700649
        18        19     1        0.133610   531287.609180    ;  uncertainty r = 0.000191, k = 37.526813
        18        26     1        0.133101   320485.564160    ;  uncertainty r = 0.000146, k = 40.823703
        19        20     1        0.101578   423262.955127    ;  uncertainty r = 0.000083, k = 11.557068
        21        29     1        0.140023   347846.278516    ;  uncertainty r = 0.000042, k = 5.378029
        21        36     1        0.139514   336927.172363    ;  uncertainty r = 0.000036, k = 5.538731
        22        23     1        0.109172   309495.286084    ;  uncertainty r = 0.000053, k = 3.597993
        22        24     1        0.109172   309495.286084    ;  uncertainty r = 0.000053, k = 3.597993
        22        25     1        0.109172   309495.286084    ;  uncertainty r = 0.000053, k = 3.597993
        26        27     1        0.101405   421785.735498    ;  uncertainty r = 0.000064, k = 13.590763
        26        28     1        0.101405   421785.735498    ;  uncertainty r = 0.000064, k = 13.590763
        29        30     1        0.108779   338470.941699    ;  uncertainty r = 0.000025, k = 2.014857
        29        31     1        0.139682   358669.441748    ;  uncertainty r = 0.000039, k = 3.766962
        31        32     1        0.139820   362432.002832    ;  uncertainty r = 0.000039, k = 3.637246
        31        47     1        0.136504   319899.232129    ;  uncertainty r = 0.000042, k = 3.725196
        32        33     1        0.108746   337206.395117    ;  uncertainty r = 0.000012, k = 0.751389
        32        34     1        0.139188   378136.712207    ;  uncertainty r = 0.000019, k = 1.410242
        34        35     1        0.108743   335527.611084    ;  uncertainty r = 0.000018, k = 1.405832
        34        36     1        0.138842   353599.738184    ;  uncertainty r = 0.000040, k = 3.651750
        36        37     1        0.135918   334427.549023    ;  uncertainty r = 0.000079, k = 3.624795
        39        40     1        0.109545   310467.177393    ;  uncertainty r = 0.000018, k = 1.787242
        39        41     1        0.109545   310467.177393    ;  uncertainty r = 0.000018, k = 1.787242
        39        42     1        0.109545   310467.177393    ;  uncertainty r = 0.000018, k = 1.787242
        43        44     1        0.109545   310467.177393    ;  uncertainty r = 0.000018, k = 1.787242
        43        45     1        0.109545   310467.177393    ;  uncertainty r = 0.000018, k = 1.787242
        43        46     1        0.109545   310467.177393    ;  uncertainty r = 0.000018, k = 1.787242
        47        48     1        0.141909   253420.748096    ;  uncertainty r = 0.000028, k = 2.106541
        48        49     1        0.109623   311224.888965    ;  uncertainty r = 0.000009, k = 1.869770
        48        50     1        0.109623   311224.888965    ;  uncertainty r = 0.000009, k = 1.869779
        48        51     1        0.109623   311224.888965    ;  uncertainty r = 0.000009, k = 1.869780

[ angles ]
;       ai        aj        ak funct           theta             cth
         1         2         3     1      119.275803      278.825301    ;  uncertainty theta = 0.001863, k = 0.103929
         1         2         4     1      120.356239      531.376778    ;  uncertainty theta = 0.003136, k = 0.092044
         1         8         7     1      123.091965      512.205400    ;  uncertainty theta = 0.004464, k = 0.218760
         1         8         9     1      119.194214      284.134242    ;  uncertainty theta = 0.002530, k = 0.061508
         1        21        29     1      120.902786      415.759144    ;  uncertainty theta = 0.004529, k = 0.125877
         1        21        36     1      119.834984      371.399365    ;  uncertainty theta = 0.004060, k = 0.176672
         2         1         8     1      119.174805      426.498839    ;  uncertainty theta = 0.002604, k = 0.100529
         2         1        21     1      120.850601      409.942429    ;  uncertainty theta = 0.001447, k = 0.127013
         2         4         5     1      121.360069      280.203060    ;  uncertainty theta = 0.001320, k = 0.030680
         2         4         6     1      119.539200      503.542574    ;  uncertainty theta = 0.002879, k = 0.157058
         3         2         4     1      119.418701      290.155510    ;  uncertainty theta = 0.001575, k = 0.062641
         4         6         7     1      120.988113      370.564749    ;  uncertainty theta = 0.002805, k = 0.132341
         4         6        10     1      118.414932      539.304551    ;  uncertainty theta = 0.003186, k = 0.119404
         5         4         6     1      120.029160      275.838512    ;  uncertainty theta = 0.003388, k = 0.140058
         6         7         8     1      121.595520      437.772036    ;  uncertainty theta = 0.004617, k = 0.125940
         6         7        15     1      120.067566      415.396868    ;  uncertainty theta = 0.008782, k = 0.219694
         6        10        11     1      114.537888      453.333553    ;  uncertainty theta = 0.006687, k = 0.093698
         7         6        10     1      123.896896      494.205441    ;  uncertainty theta = 0.004024, k = 0.262919
         7         8         9     1      117.650734      267.851207    ;  uncertainty theta = 0.003016, k = 0.136293
         7        15        12     1      110.372864      539.933530    ;  uncertainty theta = 0.001408, k = 0.155688
         7        15        16     1      108.946983      466.381260    ;  uncertainty theta = 0.003845, k = 0.382761
         7        15        19     1      110.459412      616.078039    ;  uncertainty theta = 0.004076, k = 0.312915
         8         1        21     1      119.970963      409.466545    ;  uncertainty theta = 0.002124, k = 0.135928
         8         7        15     1      118.103577      406.817740    ;  uncertainty theta = 0.003938, k = 0.182740
        10        11        12     1      109.104774      651.855785    ;  uncertainty theta = 0.004859, k = 0.084503
        10        11        39     1      107.605125      619.338362    ;  uncertainty theta = 0.001081, k = 0.064685
        10        11        43     1      107.605125      619.338362    ;  uncertainty theta = 0.001081, k = 0.064685
        11        12        13     1      107.678444      386.201185    ;  uncertainty theta = 0.003165, k = 0.032000
        11        12        14     1      107.678444      386.201185    ;  uncertainty theta = 0.003165, k = 0.032000
        11        12        15     1      109.859573      530.089421    ;  uncertainty theta = 0.006963, k = 0.198376
        11        39        40     1      107.221069      387.594393    ;  uncertainty theta = 0.001065, k = 0.069193
        11        39        41     1      107.221069      387.594393    ;  uncertainty theta = 0.001065, k = 0.069193
        11        39        42     1      107.221069      387.594393    ;  uncertainty theta = 0.001065, k = 0.069193
        11        43        44     1      107.221069      387.594393    ;  uncertainty theta = 0.001065, k = 0.069193
        11        43        45     1      107.221069      387.594393    ;  uncertainty theta = 0.001065, k = 0.069193
        11        43        46     1      107.221069      387.594393    ;  uncertainty theta = 0.001065, k = 0.069193
        12        11        39     1      109.374954      548.046988    ;  uncertainty theta = 0.004356, k = 0.115347
        12        11        43     1      109.374954      548.046988    ;  uncertainty theta = 0.004356, k = 0.115347
        12        15        16     1      107.815041      449.614456    ;  uncertainty theta = 0.007030, k = 0.162708
        12        15        19     1      109.812546      627.822301    ;  uncertainty theta = 0.007991, k = 0.271564
        13        12        14     1      106.986496      321.844700    ;  uncertainty theta = 0.004263, k = 0.066652
        13        12        15     1      106.651634      397.354709    ;  uncertainty theta = 0.003140, k = 0.080198
        14        12        15     1      106.651634      397.354709    ;  uncertainty theta = 0.003140, k = 0.080198
        15        16        17     1      110.177444      536.173382    ;  uncertainty theta = 0.011689, k = 0.712083
        15        16        38     1      125.836937      424.636737    ;  uncertainty theta = 0.006696, k = 0.210364
        15        19        18     1      111.019447      602.235713    ;  uncertainty theta = 0.016031, k = 0.385577
        15        19        20     1      118.127907      280.649416    ;  uncertainty theta = 0.015278, k = 0.121870
        16        15        19     1      103.837784      815.585174    ;  uncertainty theta = 0.012174, k = 0.852513
        16        17        18     1      110.293701      728.609291    ;  uncertainty theta = 0.010426, k = 0.320486
        16        17        22     1      119.398109      397.513773    ;  uncertainty theta = 0.006832, k = 0.281808
        17        16        38     1      125.307961      629.051912    ;  uncertainty theta = 0.008036, k = 0.165829
        17        18        19     1      113.250023      720.106327    ;  uncertainty theta = 0.006756, k = 0.305315
        17        18        26     1      125.598953      549.524885    ;  uncertainty theta = 0.008546, k = 0.324469
        17        22        23     1      107.360855      470.851946    ;  uncertainty theta = 0.002522, k = 0.203983
        17        22        24     1      107.360855      470.851946    ;  uncertainty theta = 0.002522, k = 0.203983
        17        22        25     1      107.360855      470.851946    ;  uncertainty theta = 0.002522, k = 0.203983
        18        17        22     1      118.646042      371.786540    ;  uncertainty theta = 0.007230, k = 0.373049
        18        19        20     1      119.824707      355.581520    ;  uncertainty theta = 0.006083, k = 0.153034
        18        26        27     1      114.903091      371.138312    ;  uncertainty theta = 0.001582, k = 0.210952
        18        26        28     1      114.903091      371.138312    ;  uncertainty theta = 0.001582, k = 0.210952
        19        18        26     1      128.730377      637.313550    ;  uncertainty theta = 0.008927, k = 0.256741
        21        29        30     1      118.196877      272.355634    ;  uncertainty theta = 0.002062, k = 0.098750
        21        29        31     1      121.906738      512.181299    ;  uncertainty theta = 0.002456, k = 0.135597
        21        36        34     1      124.890823      373.101350    ;  uncertainty theta = 0.003534, k = 0.123010
        21        36        37     1      116.975159      501.541486    ;  uncertainty theta = 0.003392, k = 0.106636
        23        22        24     1      107.634499      325.466948    ;  uncertainty theta = 0.003233, k = 0.098676
        23        22        25     1      107.634499      325.466948    ;  uncertainty theta = 0.003233, k = 0.098676
        24        22        25     1      107.634499      325.466948    ;  uncertainty theta = 0.003233, k = 0.098676
        27        26        28     1      112.323524      263.743259    ;  uncertainty theta = 0.015210, k = 0.362876
        29        21        36     1      120.005272      402.530410    ;  uncertainty theta = 0.002242, k = 0.223221
        29        31        32     1      121.278870      373.819868    ;  uncertainty theta = 0.006024, k = 0.078984
        29        31        47     1      119.085915      423.515019    ;  uncertainty theta = 0.002919, k = 0.112897
        30        29        31     1      119.456337      272.524945    ;  uncertainty theta = 0.002342, k = 0.056708
        31        32        33     1      119.923302      269.340499    ;  uncertainty theta = 0.002012, k = 0.028619
        31        32        34     1      118.645096      521.207103    ;  uncertainty theta = 0.002773, k = 0.026246
        31        47        48     1      109.563721      512.870450    ;  uncertainty theta = 0.001125, k = 0.054789
        32        31        47     1      119.751602      418.599541    ;  uncertainty theta = 0.003466, k = 0.097369
        32        34        35     1      121.372742      273.653174    ;  uncertainty theta = 0.001992, k = 0.077335
        32        34        36     1      120.327843      478.577847    ;  uncertainty theta = 0.000948, k = 0.152882
        33        32        34     1      120.313309      283.841396    ;  uncertainty theta = 0.001888, k = 0.021733
        34        36        37     1      118.385841      528.529901    ;  uncertainty theta = 0.002184, k = 0.149827
        35        34        36     1      119.986229      274.522457    ;  uncertainty theta = 0.001121, k = 0.039746
        39        11        43     1      110.900230      580.347218    ;  uncertainty theta = 0.002949, k = 0.067890
        40        39        41     1      106.043396      316.610518    ;  uncertainty theta = 0.000878, k = 0.018252
        40        39        42     1      106.043396      316.610518    ;  uncertainty theta = 0.000878, k = 0.018252
        41        39        42     1      106.043396      316.610518    ;  uncertainty theta = 0.000878, k = 0.018252
        44        43        45     1      106.043396      316.610518    ;  uncertainty theta = 0.000878, k = 0.018252
        44        43        46     1      106.043396      316.610518    ;  uncertainty theta = 0.000878, k = 0.018252
        45        43        46     1      106.043396      316.610518    ;  uncertainty theta = 0.000878, k = 0.018252
        47        48        49     1      108.795372      446.331628    ;  uncertainty theta = 0.001356, k = 0.023105
        47        48        50     1      108.795372      446.331628    ;  uncertainty theta = 0.001356, k = 0.023105
        47        48        51     1      108.795372      446.331628    ;  uncertainty theta = 0.001356, k = 0.023105
        49        48        50     1      109.081810      330.154380    ;  uncertainty theta = 0.001818, k = 0.013785
        49        48        51     1      109.081810      330.154380    ;  uncertainty theta = 0.001818, k = 0.013785
        50        48        51     1      109.081810      330.154380    ;  uncertainty theta = 0.001818, k = 0.013785

[ dihedrals ] ; propers for gromacs 4.5 or higher, use funct 9
;       ai        aj        ak        al funct           phase               k        pn
         1         2         4         5     9        0.000000        0.081149         1    ;  uncertainty k = 0.044119
         1         2         4         5     9      180.000000        8.372760         2    ;  uncertainty k = 0.454724
         1         2         4         5     9        0.000000        1.370976         3    ;  uncertainty k = 0.290156
         1         2         4         5     9      180.000000        1.921452         4    ;  uncertainty k = 0.250067
         1         2         4         6     9        0.000000       -0.069998         1    ;  uncertainty k = 0.279720
         1         2         4         6     9      180.000000       14.272682         2    ;  uncertainty k = 0.281673
         1         2         4         6     9        0.000000       -0.403008         3    ;  uncertainty k = 0.436893
         1         2         4         6     9      180.000000        0.904201         4    ;  uncertainty k = 0.220548
         1         8         7         6     9        0.000000       -0.277063         1    ;  uncertainty k = 0.165171
         1         8         7         6     9      180.000000       11.088295         2    ;  uncertainty k = 0.457885
         1         8         7         6     9        0.000000       -0.093102         3    ;  uncertainty k = 0.133049
         1         8         7         6     9      180.000000        1.144776         4    ;  uncertainty k = 0.346138
         1         8         7        15     9        0.000000        0.429270         1    ;  uncertainty k = 0.325974
         1         8         7        15     9      180.000000        8.922934         2    ;  uncertainty k = 0.323742
         1         8         7        15     9        0.000000        1.638376         3    ;  uncertainty k = 0.226037
         1         8         7        15     9      180.000000        1.920281         4    ;  uncertainty k = 0.372781
         1        21        29        30     9        0.000000       -0.018232         1    ;  uncertainty k = 0.139816
         1        21        29        30     9      180.000000        7.401459         2    ;  uncertainty k = 0.355277
         1        21        29        30     9        0.000000        0.860851         3    ;  uncertainty k = 0.223503
         1        21        29        30     9      180.000000        1.221314         4    ;  uncertainty k = 0.212365
         1        21        29        31     9        0.000000        0.060164         1    ;  uncertainty k = 0.206212
         1        21        29        31     9      180.000000        9.348235         2    ;  uncertainty k = 0.619020
         1        21        29        31     9        0.000000        1.224628         3    ;  uncertainty k = 0.381018
         1        21        29        31     9      180.000000        1.696860         4    ;  uncertainty k = 0.179361
         1        21        36        34     9        0.000000        0.181701         1    ;  uncertainty k = 0.303420
         1        21        36        34     9      180.000000        6.043626         2    ;  uncertainty k = 0.213231
         1        21        36        34     9        0.000000        1.145733         3    ;  uncertainty k = 0.357881
         1        21        36        34     9      180.000000        1.549889         4    ;  uncertainty k = 0.175460
         1        21        36        37     9        0.000000       -0.199565         1    ;  uncertainty k = 0.206160
         1        21        36        37     9      180.000000       10.682971         2    ;  uncertainty k = 0.483262
         1        21        36        37     9        0.000000        1.148434         3    ;  uncertainty k = 0.263367
         1        21        36        37     9      180.000000        1.369172         4    ;  uncertainty k = 0.243460
         2         1         8         7     9        0.000000        0.146677         1    ;  uncertainty k = 0.413909
         2         1         8         7     9      180.000000       10.671537         2    ;  uncertainty k = 0.378184
         2         1         8         7     9        0.000000       -0.228815         3    ;  uncertainty k = 0.355730
         2         1         8         7     9      180.000000        1.154143         4    ;  uncertainty k = 0.413854
         2         1         8         9     9        0.000000        0.196836         1    ;  uncertainty k = 0.258251
         2         1         8         9     9      180.000000        7.384567         2    ;  uncertainty k = 0.582499
         2         1         8         9     9        0.000000        1.386604         3    ;  uncertainty k = 0.212400
         2         1         8         9     9      180.000000        1.698835         4    ;  uncertainty k = 0.256336
         2         1        21        29     9        0.000000       -0.273851         1    ;  uncertainty k = 0.279135
         2         1        21        29     9      180.000000        4.597471         2    ;  uncertainty k = 0.035849
         2         1        21        29     9        0.000000        0.307813         3    ;  uncertainty k = 0.093837
         2         1        21        29     9      180.000000        0.303188         4    ;  uncertainty k = 0.044867
         2         1        21        36     9        0.000000        0.785155         1    ;  uncertainty k = 0.269229
         2         1        21        36     9      180.000000        4.523017         2    ;  uncertainty k = 0.105056
         2         1        21        36     9        0.000000        0.205114         3    ;  uncertainty k = 0.143328
         2         1        21        36     9      180.000000        0.443320         4    ;  uncertainty k = 0.066883
         2         4         6         7     9        0.000000        0.216388         1    ;  uncertainty k = 0.422991
         2         4         6         7     9      180.000000        7.781701         2    ;  uncertainty k = 0.542703
         2         4         6         7     9        0.000000        0.217948         3    ;  uncertainty k = 0.531899
         2         4         6         7     9      180.000000        1.308634         4    ;  uncertainty k = 0.241954
         2         4         6        10     9        0.000000        0.350621         1    ;  uncertainty k = 0.235104
         2         4         6        10     9      180.000000       11.465867         2    ;  uncertainty k = 0.292597
         2         4         6        10     9        0.000000        1.316858         3    ;  uncertainty k = 0.225133
         2         4         6        10     9      180.000000        1.533529         4    ;  uncertainty k = 0.145501
         3         2         1         8     9        0.000000        0.249844         1    ;  uncertainty k = 0.267354
         3         2         1         8     9      180.000000        6.744916         2    ;  uncertainty k = 0.491945
         3         2         1         8     9        0.000000        1.369438         3    ;  uncertainty k = 0.247956
         3         2         1         8     9      180.000000        1.576606         4    ;  uncertainty k = 0.291747
         3         2         1        21     9        0.000000       -0.228033         1    ;  uncertainty k = 0.327784
         3         2         1        21     9      180.000000        7.165118         2    ;  uncertainty k = 0.267446
         3         2         1        21     9        0.000000        0.769174         3    ;  uncertainty k = 0.208666
         3         2         1        21     9      180.000000        1.197968         4    ;  uncertainty k = 0.165210
         3         2         4         5     9        0.000000        0.016149         1    ;  uncertainty k = 0.328898
         3         2         4         5     9      180.000000        8.011690         2    ;  uncertainty k = 0.273480
         3         2         4         5     9        0.000000       -0.409834         3    ;  uncertainty k = 0.359870
         3         2         4         5     9      180.000000        0.189306         4    ;  uncertainty k = 0.130583
         3         2         4         6     9        0.000000        0.291661         1    ;  uncertainty k = 0.247506
         3         2         4         6     9      180.000000        8.790413         2    ;  uncertainty k = 0.414918
         3         2         4         6     9        0.000000        1.323759         3    ;  uncertainty k = 0.296542
         3         2         4         6     9      180.000000        1.731700         4    ;  uncertainty k = 0.221700
         4         2         1         8     9        0.000000       -0.002633         1    ;  uncertainty k = 0.187371
         4         2         1         8     9      180.000000       10.644376         2    ;  uncertainty k = 0.235697
         4         2         1         8     9        0.000000       -0.387365         3    ;  uncertainty k = 0.257922
         4         2         1         8     9      180.000000        1.054108         4    ;  uncertainty k = 0.185891
         4         2         1        21     9        0.000000        0.026251         1    ;  uncertainty k = 0.322928
         4         2         1        21     9      180.000000        8.310141         2    ;  uncertainty k = 0.566748
         4         2         1        21     9        0.000000        1.143864         3    ;  uncertainty k = 0.326506
         4         2         1        21     9      180.000000        1.880696         4    ;  uncertainty k = 0.193139
         4         6         7         8     9        0.000000       -0.030645         1    ;  uncertainty k = 0.189415
         4         6         7         8     9      180.000000        6.942671         2    ;  uncertainty k = 0.443368
         4         6         7         8     9        0.000000        0.360628         3    ;  uncertainty k = 0.280908
         4         6         7         8     9      180.000000        1.353040         4    ;  uncertainty k = 0.247371
         4         6         7        15     9        0.000000        0.348935         1    ;  uncertainty k = 0.173791
         4         6         7        15     9      180.000000        5.007786         2    ;  uncertainty k = 0.411251
         4         6         7        15     9        0.000000        1.468368         3    ;  uncertainty k = 0.261774
         4         6         7        15     9      180.000000        1.669236         4    ;  uncertainty k = 0.209865
         4         6        10        11     9        0.000000       -0.006126         1    ;  uncertainty k = 0.860183
         4         6        10        11     9      180.000000        1.463692         2    ;  uncertainty k = 0.468672
         4         6        10        11     9        0.000000        0.942767         3    ;  uncertainty k = 0.141382
         4         6        10        11     9      180.000000        0.269400         4    ;  uncertainty k = 0.169428
         5         4         6         7     9        0.000000        0.319226         1    ;  uncertainty k = 0.558349
         5         4         6         7     9      180.000000        5.772399         2    ;  uncertainty k = 0.428881
         5         4         6         7     9        0.000000        1.337220         3    ;  uncertainty k = 0.195636
         5         4         6         7     9      180.000000        1.401976         4    ;  uncertainty k = 0.132735
         5         4         6        10     9        0.000000       -0.143362         1    ;  uncertainty k = 0.595170
         5         4         6        10     9      180.000000        8.971333         2    ;  uncertainty k = 0.422660
         5         4         6        10     9        0.000000        0.767158         3    ;  uncertainty k = 0.278987
         5         4         6        10     9      180.000000        1.249859         4    ;  uncertainty k = 0.280971
         6         7         8         9     9        0.000000        0.269400         1    ;  uncertainty k = 0.450901
         6         7         8         9     9      180.000000        7.901002         2    ;  uncertainty k = 0.723368
         6         7         8         9     9        0.000000        1.273136         3    ;  uncertainty k = 0.233104
         6         7         8         9     9      180.000000        1.659712         4    ;  uncertainty k = 0.151916
         6         7        15        12     9        0.000000       -0.553827         1    ;  uncertainty k = 1.466850
         6         7        15        12     9      180.000000        0.634513         2    ;  uncertainty k = 0.585096
         6         7        15        12     9        0.000000        0.297861         3    ;  uncertainty k = 0.330860
         6         7        15        12     9      180.000000        0.274107         4    ;  uncertainty k = 0.208342
         6         7        15        16     9        0.000000        2.102711         1    ;  uncertainty k = 2.528116
         6         7        15        16     9      180.000000        0.546699         2    ;  uncertainty k = 1.018066
         6         7        15        16     9        0.000000        0.457521         3    ;  uncertainty k = 0.289759
         6         7        15        16     9      180.000000        0.336866         4    ;  uncertainty k = 0.183129
         6         7        15        19     9        0.000000       -1.847814         1    ;  uncertainty k = 1.697255
         6         7        15        19     9      180.000000        1.430867         2    ;  uncertainty k = 0.383929
         6         7        15        19     9        0.000000        0.601224         3    ;  uncertainty k = 0.476577
         6         7        15        19     9      180.000000        0.025936         4    ;  uncertainty k = 0.174309
         6        10        11        12     9        0.000000        4.367103         1    ;  uncertainty k = 0.568223
         6        10        11        12     9      180.000000       -1.721484         2    ;  uncertainty k = 1.273232
         6        10        11        12     9        0.000000       -0.456864         3    ;  uncertainty k = 0.472174
         6        10        11        12     9      180.000000        0.328459         4    ;  uncertainty k = 0.236646
         6        10        11        39     9        0.000000       -1.366437         1    ;  uncertainty k = 0.443902
         6        10        11        39     9      180.000000        1.117988         2    ;  uncertainty k = 0.670204
         6        10        11        39     9        0.000000        0.420512         3    ;  uncertainty k = 0.232671
         6        10        11        39     9      180.000000        0.169724         4    ;  uncertainty k = 0.171412
         6        10        11        43     9        0.000000       -1.366437         1    ;  uncertainty k = 0.443902
         6        10        11        43     9      180.000000        1.117988         2    ;  uncertainty k = 0.670204
         6        10        11        43     9        0.000000        0.420512         3    ;  uncertainty k = 0.232671
         6        10        11        43     9      180.000000        0.169724         4    ;  uncertainty k = 0.171412
         7         6        10        11     9        0.000000        4.306085         1    ;  uncertainty k = 1.768454
         7         6        10        11     9      180.000000       -1.360043         2    ;  uncertainty k = 1.430515
         7         6        10        11     9        0.000000       -0.393905         3    ;  uncertainty k = 0.710259
         7         6        10        11     9      180.000000        0.655625         4    ;  uncertainty k = 0.252123
         7         8         1        21     9        0.000000        0.447881         1    ;  uncertainty k = 0.459205
         7         8         1        21     9      180.000000        8.923863         2    ;  uncertainty k = 0.288546
         7         8         1        21     9        0.000000        1.389898         3    ;  uncertainty k = 0.274941
         7         8         1        21     9      180.000000        1.751663         4    ;  uncertainty k = 0.085219
         7        15        12        11     9        0.000000        1.962873         1    ;  uncertainty k = 1.227301
         7        15        12        11     9      180.000000       -1.078194         2    ;  uncertainty k = 0.502447
         7        15        12        11     9        0.000000        0.369332         3    ;  uncertainty k = 0.176636
         7        15        12        11     9      180.000000       -0.278407         4    ;  uncertainty k = 0.249392
         7        15        12        13     9        0.000000       -0.179115         1    ;  uncertainty k = 0.140621
         7        15        12        13     9      180.000000        0.089626         2    ;  uncertainty k = 0.458905
         7        15        12        13     9        0.000000        0.456477         3    ;  uncertainty k = 0.237033
         7        15        12        13     9      180.000000       -0.095026         4    ;  uncertainty k = 0.141404
         7        15        12        14     9        0.000000       -0.179115         1    ;  uncertainty k = 0.140621
         7        15        12        14     9      180.000000        0.089626         2    ;  uncertainty k = 0.458905
         7        15        12        14     9        0.000000        0.456477         3    ;  uncertainty k = 0.237033
         7        15        12        14     9      180.000000       -0.095026         4    ;  uncertainty k = 0.141404
         7        15        16        17     9        0.000000       -2.280414         1    ;  uncertainty k = 2.717069
         7        15        16        17     9      180.000000        2.456410         2    ;  uncertainty k = 1.222701
         7        15        16        17     9        0.000000        1.453247         3    ;  uncertainty k = 0.188385
         7        15        16        17     9      180.000000        0.681716         4    ;  uncertainty k = 0.441731
         7        15        16        38     9        0.000000       -0.746001         1    ;  uncertainty k = 2.339485
         7        15        16        38     9      180.000000        3.144072         2    ;  uncertainty k = 0.500306
         7        15        16        38     9        0.000000        0.221997         3    ;  uncertainty k = 0.280086
         7        15        16        38     9      180.000000        0.150864         4    ;  uncertainty k = 0.276471
         7        15        19        18     9        0.000000        0.863485         1    ;  uncertainty k = 1.247541
         7        15        19        18     9      180.000000        0.544771         2    ;  uncertainty k = 0.542404
         7        15        19        18     9        0.000000        0.864493         3    ;  uncertainty k = 0.370882
         7        15        19        18     9      180.000000        0.387104         4    ;  uncertainty k = 0.143944
         7        15        19        20     9        0.000000        0.953248         1    ;  uncertainty k = 2.750545
         7        15        19        20     9      180.000000       -1.060847         2    ;  uncertainty k = 1.247199
         7        15        19        20     9        0.000000        0.527755         3    ;  uncertainty k = 0.498974
         7        15        19        20     9      180.000000       -0.043717         4    ;  uncertainty k = 0.110691
         8         1        21        29     9        0.000000       -0.384478         1    ;  uncertainty k = 0.358370
         8         1        21        29     9      180.000000        4.737394         2    ;  uncertainty k = 0.138516
         8         1        21        29     9        0.000000        0.302163         3    ;  uncertainty k = 0.211222
         8         1        21        29     9      180.000000        0.343620         4    ;  uncertainty k = 0.101867
         8         1        21        36     9        0.000000        0.802019         1    ;  uncertainty k = 0.454262
         8         1        21        36     9      180.000000        4.673130         2    ;  uncertainty k = 0.214452
         8         1        21        36     9        0.000000        0.129616         3    ;  uncertainty k = 0.142774
         8         1        21        36     9      180.000000        0.455084         4    ;  uncertainty k = 0.079484
         8         7         6        10     9        0.000000        0.504928         1    ;  uncertainty k = 0.332570
         8         7         6        10     9      180.000000        8.135103         2    ;  uncertainty k = 0.236476
         8         7         6        10     9        0.000000        1.525955         3    ;  uncertainty k = 0.289644
         8         7         6        10     9      180.000000        1.558565         4    ;  uncertainty k = 0.197098
         8         7        15        12     9        0.000000       -0.649023         1    ;  uncertainty k = 1.138364
         8         7        15        12     9      180.000000        1.006621         2    ;  uncertainty k = 0.431382
         8         7        15        12     9        0.000000       -0.294425         3    ;  uncertainty k = 0.366349
         8         7        15        12     9      180.000000        0.165128         4    ;  uncertainty k = 0.182598
         8         7        15        16     9        0.000000        0.891847         1    ;  uncertainty k = 1.988290
         8         7        15        16     9      180.000000        0.167842         2    ;  uncertainty k = 0.586002
         8         7        15        16     9        0.000000        0.124989         3    ;  uncertainty k = 0.286756
         8         7        15        16     9      180.000000        0.311095         4    ;  uncertainty k = 0.131410
         8         7        15        19     9        0.000000       -0.389239         1    ;  uncertainty k = 0.904564
         8         7        15        19     9      180.000000        1.968620         2    ;  uncertainty k = 0.378064
         8         7        15        19     9        0.000000       -0.059996         3    ;  uncertainty k = 0.367872
         8         7        15        19     9      180.000000        0.086433         4    ;  uncertainty k = 0.248421
         9         8         1        21     9        0.000000       -0.104677         1    ;  uncertainty k = 0.143631
         9         8         1        21     9      180.000000        7.562602         2    ;  uncertainty k = 0.243339
         9         8         1        21     9        0.000000        0.862344         3    ;  uncertainty k = 0.213230
         9         8         1        21     9      180.000000        1.346158         4    ;  uncertainty k = 0.137300
         9         8         7        15     9        0.000000       -0.356464         1    ;  uncertainty k = 0.421038
         9         8         7        15     9      180.000000        6.781544         2    ;  uncertainty k = 0.311183
         9         8         7        15     9        0.000000        0.963858         3    ;  uncertainty k = 0.299682
         9         8         7        15     9      180.000000        1.272956         4    ;  uncertainty k = 0.235609
        10         6         7        15     9        0.000000        0.498340         1    ;  uncertainty k = 0.988077
        10         6         7        15     9      180.000000        5.670085         2    ;  uncertainty k = 0.712561
        10         6         7        15     9        0.000000        1.748936         3    ;  uncertainty k = 0.456836
        10         6         7        15     9      180.000000        1.062497         4    ;  uncertainty k = 0.416588
        10        11        12        13     9        0.000000       -1.286357         1    ;  uncertainty k = 0.418982
        10        11        12        13     9      180.000000       -0.843338         2    ;  uncertainty k = 0.564486
        10        11        12        13     9        0.000000        0.398057         3    ;  uncertainty k = 0.233267
        10        11        12        13     9      180.000000       -0.189590         4    ;  uncertainty k = 0.165011
        10        11        12        14     9        0.000000       -1.286357         1    ;  uncertainty k = 0.418982
        10        11        12        14     9      180.000000       -0.843338         2    ;  uncertainty k = 0.564486
        10        11        12        14     9        0.000000        0.398057         3    ;  uncertainty k = 0.233267
        10        11        12        14     9      180.000000       -0.189590         4    ;  uncertainty k = 0.165011
        10        11        12        15     9        0.000000        7.476955         1    ;  uncertainty k = 0.712372
        10        11        12        15     9      180.000000       -4.264126         2    ;  uncertainty k = 1.996417
        10        11        12        15     9        0.000000       -0.268865         3    ;  uncertainty k = 0.560592
        10        11        12        15     9      180.000000       -0.018620         4    ;  uncertainty k = 0.403705
        10        11        39        40     9        0.000000       -0.556685         1    ;  uncertainty k = 0.641512
        10        11        39        40     9      180.000000       -2.127823         2    ;  uncertainty k = 0.599046
        10        11        39        40     9        0.000000        0.863808         3    ;  uncertainty k = 0.110663
        10        11        39        40     9      180.000000       -0.195070         4    ;  uncertainty k = 0.150407
        10        11        39        41     9        0.000000       -0.556685         1    ;  uncertainty k = 0.641512
        10        11        39        41     9      180.000000       -2.127823         2    ;  uncertainty k = 0.599046
        10        11        39        41     9        0.000000        0.863808         3    ;  uncertainty k = 0.110663
        10        11        39        41     9      180.000000       -0.195070         4    ;  uncertainty k = 0.150407
        10        11        39        42     9        0.000000       -0.556685         1    ;  uncertainty k = 0.641512
        10        11        39        42     9      180.000000       -2.127823         2    ;  uncertainty k = 0.599046
        10        11        39        42     9        0.000000        0.863808         3    ;  uncertainty k = 0.110663
        10        11        39        42     9      180.000000       -0.195070         4    ;  uncertainty k = 0.150407
        10        11        43        44     9        0.000000       -0.556685         1    ;  uncertainty k = 0.641512
        10        11        43        44     9      180.000000       -2.127823         2    ;  uncertainty k = 0.599046
        10        11        43        44     9        0.000000        0.863808         3    ;  uncertainty k = 0.110663
        10        11        43        44     9      180.000000       -0.195070         4    ;  uncertainty k = 0.150407
        10        11        43        45     9        0.000000       -0.556685         1    ;  uncertainty k = 0.641512
        10        11        43        45     9      180.000000       -2.127823         2    ;  uncertainty k = 0.599046
        10        11        43        45     9        0.000000        0.863808         3    ;  uncertainty k = 0.110663
        10        11        43        45     9      180.000000       -0.195070         4    ;  uncertainty k = 0.150407
        10        11        43        46     9        0.000000       -0.556685         1    ;  uncertainty k = 0.641512
        10        11        43        46     9      180.000000       -2.127823         2    ;  uncertainty k = 0.599046
        10        11        43        46     9        0.000000        0.863808         3    ;  uncertainty k = 0.110663
        10        11        43        46     9      180.000000       -0.195070         4    ;  uncertainty k = 0.150407
        11        12        15        16     9        0.000000       -1.228978         1    ;  uncertainty k = 1.347491
        11        12        15        16     9      180.000000       -0.515847         2    ;  uncertainty k = 0.500826
        11        12        15        16     9        0.000000        0.433214         3    ;  uncertainty k = 0.247206
        11        12        15        16     9      180.000000       -0.080465         4    ;  uncertainty k = 0.226810
        11        12        15        19     9        0.000000       -2.978697         1    ;  uncertainty k = 1.009148
        11        12        15        19     9      180.000000       -1.349811         2    ;  uncertainty k = 1.012802
        11        12        15        19     9        0.000000        1.198772         3    ;  uncertainty k = 0.505781
        11        12        15        19     9      180.000000        0.002053         4    ;  uncertainty k = 0.225805
        12        11        39        40     9        0.000000       -0.810618         1    ;  uncertainty k = 0.476463
        12        11        39        40     9      180.000000       -0.740441         2    ;  uncertainty k = 0.208398
        12        11        39        40     9        0.000000        0.585176         3    ;  uncertainty k = 0.093112
        12        11        39        40     9      180.000000       -0.179618         4    ;  uncertainty k = 0.029902
        12        11        39        41     9        0.000000       -0.810618         1    ;  uncertainty k = 0.476463
        12        11        39        41     9      180.000000       -0.740441         2    ;  uncertainty k = 0.208398
        12        11        39        41     9        0.000000        0.585176         3    ;  uncertainty k = 0.093112
        12        11        39        41     9      180.000000       -0.179618         4    ;  uncertainty k = 0.029902
        12        11        39        42     9        0.000000       -0.810618         1    ;  uncertainty k = 0.476463
        12        11        39        42     9      180.000000       -0.740441         2    ;  uncertainty k = 0.208398
        12        11        39        42     9        0.000000        0.585176         3    ;  uncertainty k = 0.093112
        12        11        39        42     9      180.000000       -0.179618         4    ;  uncertainty k = 0.029902
        12        11        43        44     9        0.000000       -0.810618         1    ;  uncertainty k = 0.476463
        12        11        43        44     9      180.000000       -0.740441         2    ;  uncertainty k = 0.208398
        12        11        43        44     9        0.000000        0.585176         3    ;  uncertainty k = 0.093112
        12        11        43        44     9      180.000000       -0.179618         4    ;  uncertainty k = 0.029902
        12        11        43        45     9        0.000000       -0.810618         1    ;  uncertainty k = 0.476463
        12        11        43        45     9      180.000000       -0.740441         2    ;  uncertainty k = 0.208398
        12        11        43        45     9        0.000000        0.585176         3    ;  uncertainty k = 0.093112
        12        11        43        45     9      180.000000       -0.179618         4    ;  uncertainty k = 0.029902
        12        11        43        46     9        0.000000       -0.810618         1    ;  uncertainty k = 0.476463
        12        11        43        46     9      180.000000       -0.740441         2    ;  uncertainty k = 0.208398
        12        11        43        46     9        0.000000        0.585176         3    ;  uncertainty k = 0.093112
        12        11        43        46     9      180.000000       -0.179618         4    ;  uncertainty k = 0.029902
        12        15        16        17     9        0.000000       -3.062352         1    ;  uncertainty k = 1.276839
        12        15        16        17     9      180.000000        2.894127         2    ;  uncertainty k = 0.258588
        12        15        16        17     9        0.000000        0.860445         3    ;  uncertainty k = 0.091746
        12        15        16        17     9      180.000000        0.587117         4    ;  uncertainty k = 0.338989
        12        15        16        38     9        0.000000       -0.574292         1    ;  uncertainty k = 2.046094
        12        15        16        38     9      180.000000        3.928919         2    ;  uncertainty k = 1.075276
        12        15        16        38     9        0.000000        0.161227         3    ;  uncertainty k = 0.381109
        12        15        16        38     9      180.000000        0.057219         4    ;  uncertainty k = 0.338212
        12        15        19        18     9        0.000000       -0.720185         1    ;  uncertainty k = 0.363424
        12        15        19        18     9      180.000000        1.466373         2    ;  uncertainty k = 0.671881
        12        15        19        18     9        0.000000        0.362475         3    ;  uncertainty k = 0.242092
        12        15        19        18     9      180.000000        0.276221         4    ;  uncertainty k = 0.143829
        12        15        19        20     9        0.000000        1.014477         1    ;  uncertainty k = 3.207549
        12        15        19        20     9      180.000000       -0.447187         2    ;  uncertainty k = 0.880594
        12        15        19        20     9        0.000000        0.406773         3    ;  uncertainty k = 0.479851
        12        15        19        20     9      180.000000        0.075628         4    ;  uncertainty k = 0.078933
        13        12        11        39     9        0.000000       -0.868529         1    ;  uncertainty k = 0.359708
        13        12        11        39     9      180.000000        0.339049         2    ;  uncertainty k = 0.271426
        13        12        11        39     9        0.000000        0.030221         3    ;  uncertainty k = 0.169820
        13        12        11        39     9      180.000000       -0.198172         4    ;  uncertainty k = 0.102797
        13        12        11        43     9        0.000000       -0.868529         1    ;  uncertainty k = 0.359708
        13        12        11        43     9      180.000000        0.339049         2    ;  uncertainty k = 0.271426
        13        12        11        43     9        0.000000        0.030221         3    ;  uncertainty k = 0.169820
        13        12        11        43     9      180.000000       -0.198172         4    ;  uncertainty k = 0.102797
        13        12        15        16     9        0.000000        0.636692         1    ;  uncertainty k = 0.443881
        13        12        15        16     9      180.000000       -1.082831         2    ;  uncertainty k = 0.432291
        13        12        15        16     9        0.000000        0.083911         3    ;  uncertainty k = 0.203429
        13        12        15        16     9      180.000000       -0.053905         4    ;  uncertainty k = 0.095175
        13        12        15        19     9        0.000000       -1.014378         1    ;  uncertainty k = 0.666770
        13        12        15        19     9      180.000000       -0.206347         2    ;  uncertainty k = 0.431023
        13        12        15        19     9        0.000000        0.529827         3    ;  uncertainty k = 0.228576
        13        12        15        19     9      180.000000       -0.286824         4    ;  uncertainty k = 0.129461
        14        12        11        39     9        0.000000       -0.868529         1    ;  uncertainty k = 0.359708
        14        12        11        39     9      180.000000        0.339049         2    ;  uncertainty k = 0.271426
        14        12        11        39     9        0.000000        0.030221         3    ;  uncertainty k = 0.169820
        14        12        11        39     9      180.000000       -0.198172         4    ;  uncertainty k = 0.102797
        14        12        11        43     9        0.000000       -0.868529         1    ;  uncertainty k = 0.359708
        14        12        11        43     9      180.000000        0.339049         2    ;  uncertainty k = 0.271426
        14        12        11        43     9        0.000000        0.030221         3    ;  uncertainty k = 0.169820
        14        12        11        43     9      180.000000       -0.198172         4    ;  uncertainty k = 0.102797
        14        12        15        16     9        0.000000        0.636692         1    ;  uncertainty k = 0.443881
        14        12        15        16     9      180.000000       -1.082831         2    ;  uncertainty k = 0.432291
        14        12        15        16     9        0.000000        0.083911         3    ;  uncertainty k = 0.203429
        14        12        15        16     9      180.000000       -0.053905         4    ;  uncertainty k = 0.095175
        14        12        15        19     9        0.000000       -1.014378         1    ;  uncertainty k = 0.666770
        14        12        15        19     9      180.000000       -0.206347         2    ;  uncertainty k = 0.431023
        14        12        15        19     9        0.000000        0.529827         3    ;  uncertainty k = 0.228576
        14        12        15        19     9      180.000000       -0.286824         4    ;  uncertainty k = 0.129461
        15        12        11        39     9        0.000000       -0.394043         1    ;  uncertainty k = 0.952250
        15        12        11        39     9      180.000000       -0.298782         2    ;  uncertainty k = 0.210060
        15        12        11        39     9        0.000000        0.102279         3    ;  uncertainty k = 0.252570
        15        12        11        39     9      180.000000       -0.158350         4    ;  uncertainty k = 0.062640
        15        12        11        43     9        0.000000       -0.394043         1    ;  uncertainty k = 0.952250
        15        12        11        43     9      180.000000       -0.298782         2    ;  uncertainty k = 0.210060
        15        12        11        43     9        0.000000        0.102279         3    ;  uncertainty k = 0.252570
        15        12        11        43     9      180.000000       -0.158350         4    ;  uncertainty k = 0.062640
        15        16        17        18     9        0.000000        3.190561         1    ;  uncertainty k = 2.129280
        15        16        17        18     9      180.000000        4.165517         2    ;  uncertainty k = 2.103257
        15        16        17        18     9        0.000000       -0.163634         3    ;  uncertainty k = 0.825879
        15        16        17        18     9      180.000000        0.629686         4    ;  uncertainty k = 0.355315
        15        16        17        22     9        0.000000        4.948397         1    ;  uncertainty k = 2.742747
        15        16        17        22     9      180.000000        3.665594         2    ;  uncertainty k = 2.655463
        15        16        17        22     9        0.000000        1.132039         3    ;  uncertainty k = 0.860258
        15        16        17        22     9      180.000000        0.328976         4    ;  uncertainty k = 0.593115
        15        19        18        17     9        0.000000        1.152349         1    ;  uncertainty k = 2.624977
        15        19        18        17     9      180.000000       15.352878         2    ;  uncertainty k = 0.482589
        15        19        18        17     9        0.000000       -0.706328         3    ;  uncertainty k = 1.011989
        15        19        18        17     9      180.000000       -0.606107         4    ;  uncertainty k = 0.206718
        15        19        18        26     9        0.000000        3.692759         1    ;  uncertainty k = 0.866356
        15        19        18        26     9      180.000000       11.333780         2    ;  uncertainty k = 0.611404
        15        19        18        26     9        0.000000        0.314850         3    ;  uncertainty k = 0.239643
        15        19        18        26     9      180.000000       -0.482788         4    ;  uncertainty k = 0.513934
        16        15        19        18     9        0.000000        1.075899         1    ;  uncertainty k = 0.686753
        16        15        19        18     9      180.000000        2.337056         2    ;  uncertainty k = 0.668402
        16        15        19        18     9        0.000000        0.174345         3    ;  uncertainty k = 0.624028
        16        15        19        18     9      180.000000        0.491041         4    ;  uncertainty k = 0.337525
        16        15        19        20     9        0.000000        1.870130         1    ;  uncertainty k = 2.124003
        16        15        19        20     9      180.000000       -0.788361         2    ;  uncertainty k = 0.765206
        16        15        19        20     9        0.000000        0.063928         3    ;  uncertainty k = 0.474210
        16        15        19        20     9      180.000000        0.018852         4    ;  uncertainty k = 0.243518
        16        17        18        19     9        0.000000       -0.598871         1    ;  uncertainty k = 1.517512
        16        17        18        19     9      180.000000        9.023777         2    ;  uncertainty k = 0.890262
        16        17        18        19     9        0.000000       -1.321226         3    ;  uncertainty k = 1.261849
        16        17        18        19     9      180.000000       -0.043685         4    ;  uncertainty k = 0.510427
        16        17        18        26     9        0.000000       -0.742539         1    ;  uncertainty k = 0.884320
        16        17        18        26     9      180.000000        6.821150         2    ;  uncertainty k = 1.300514
        16        17        18        26     9        0.000000        0.216631         3    ;  uncertainty k = 0.558836
        16        17        18        26     9      180.000000       -0.098970         4    ;  uncertainty k = 0.493923
        16        17        22        23     9        0.000000        0.297431         1    ;  uncertainty k = 0.338022
        16        17        22        23     9      180.000000        0.087168         2    ;  uncertainty k = 0.381934
        16        17        22        23     9        0.000000        0.347193         3    ;  uncertainty k = 0.232215
        16        17        22        23     9      180.000000        0.291096         4    ;  uncertainty k = 0.074538
        16        17        22        24     9        0.000000        0.297431         1    ;  uncertainty k = 0.338022
        16        17        22        24     9      180.000000        0.087168         2    ;  uncertainty k = 0.381934
        16        17        22        24     9        0.000000        0.347193         3    ;  uncertainty k = 0.232215
        16        17        22        24     9      180.000000        0.291096         4    ;  uncertainty k = 0.074538
        16        17        22        25     9        0.000000        0.297431         1    ;  uncertainty k = 0.338022
        16        17        22        25     9      180.000000        0.087168         2    ;  uncertainty k = 0.381934
        16        17        22        25     9        0.000000        0.347193         3    ;  uncertainty k = 0.232215
        16        17        22        25     9      180.000000        0.291096         4    ;  uncertainty k = 0.074538
        17        16        15        19     9        0.000000       -0.734672         1    ;  uncertainty k = 2.407400
        17        16        15        19     9      180.000000        6.965369         2    ;  uncertainty k = 1.234531
        17        16        15        19     9        0.000000        0.624658         3    ;  uncertainty k = 0.577006
        17        16        15        19     9      180.000000        0.290059         4    ;  uncertainty k = 0.846479
        17        18        19        20     9        0.000000        4.051322         1    ;  uncertainty k = 3.391115
        17        18        19        20     9      180.000000       10.697180         2    ;  uncertainty k = 0.526601
        17        18        19        20     9        0.000000        1.093668         3    ;  uncertainty k = 0.752546
        17        18        19        20     9      180.000000       -0.389374         4    ;  uncertainty k = 0.265720
        17        18        26        27     9        0.000000        8.080941         1    ;  uncertainty k = 2.061712
        17        18        26        27     9      180.000000        9.353073         2    ;  uncertainty k = 0.455751
        17        18        26        27     9        0.000000        0.960301         3    ;  uncertainty k = 0.478476
        17        18        26        27     9      180.000000       -0.922267         4    ;  uncertainty k = 0.215681
        17        18        26        28     9        0.000000        8.080941         1    ;  uncertainty k = 2.061712
        17        18        26        28     9      180.000000        9.353073         2    ;  uncertainty k = 0.455751
        17        18        26        28     9        0.000000        0.960301         3    ;  uncertainty k = 0.478476
        17        18        26        28     9      180.000000       -0.922267         4    ;  uncertainty k = 0.215681
        18        17        16        38     9        0.000000       -0.225774         1    ;  uncertainty k = 3.237560
        18        17        16        38     9      180.000000        7.660703         2    ;  uncertainty k = 0.931236
        18        17        16        38     9        0.000000        0.373526         3    ;  uncertainty k = 0.816132
        18        17        16        38     9      180.000000        0.053274         4    ;  uncertainty k = 0.298389
        18        17        22        23     9        0.000000       -0.260671         1    ;  uncertainty k = 0.510831
        18        17        22        23     9      180.000000       -1.123799         2    ;  uncertainty k = 0.505443
        18        17        22        23     9        0.000000        0.381297         3    ;  uncertainty k = 0.163929
        18        17        22        23     9      180.000000        0.194836         4    ;  uncertainty k = 0.041789
        18        17        22        24     9        0.000000       -0.260671         1    ;  uncertainty k = 0.510831
        18        17        22        24     9      180.000000       -1.123799         2    ;  uncertainty k = 0.505443
        18        17        22        24     9        0.000000        0.381297         3    ;  uncertainty k = 0.163929
        18        17        22        24     9      180.000000        0.194836         4    ;  uncertainty k = 0.041789
        18        17        22        25     9        0.000000       -0.260671         1    ;  uncertainty k = 0.510831
        18        17        22        25     9      180.000000       -1.123799         2    ;  uncertainty k = 0.505443
        18        17        22        25     9        0.000000        0.381297         3    ;  uncertainty k = 0.163929
        18        17        22        25     9      180.000000        0.194836         4    ;  uncertainty k = 0.041789
        19        15        16        38     9        0.000000        0.024534         1    ;  uncertainty k = 2.213974
        19        15        16        38     9      180.000000        4.149250         2    ;  uncertainty k = 1.312392
        19        15        16        38     9        0.000000        0.407424         3    ;  uncertainty k = 0.206510
        19        15        16        38     9      180.000000        0.443240         4    ;  uncertainty k = 0.158688
        19        18        17        22     9        0.000000       -0.380136         1    ;  uncertainty k = 2.913081
        19        18        17        22     9      180.000000        8.267784         2    ;  uncertainty k = 0.403615
        19        18        17        22     9        0.000000        0.435757         3    ;  uncertainty k = 0.320054
        19        18        17        22     9      180.000000       -0.156996         4    ;  uncertainty k = 0.291188
        19        18        26        27     9        0.000000        6.366443         1    ;  uncertainty k = 1.644722
        19        18        26        27     9      180.000000       10.049531         2    ;  uncertainty k = 0.349760
        19        18        26        27     9        0.000000        1.357511         3    ;  uncertainty k = 0.507490
        19        18        26        27     9      180.000000       -0.656591         4    ;  uncertainty k = 0.287459
        19        18        26        28     9        0.000000        6.366443         1    ;  uncertainty k = 1.644722
        19        18        26        28     9      180.000000       10.049531         2    ;  uncertainty k = 0.349760
        19        18        26        28     9        0.000000        1.357511         3    ;  uncertainty k = 0.507490
        19        18        26        28     9      180.000000       -0.656591         4    ;  uncertainty k = 0.287459
        20        19        18        26     9        0.000000        1.886192         1    ;  uncertainty k = 2.633103
        20        19        18        26     9      180.000000        7.784175         2    ;  uncertainty k = 1.209625
        20        19        18        26     9        0.000000        0.956054         3    ;  uncertainty k = 0.197633
        20        19        18        26     9      180.000000       -0.247909         4    ;  uncertainty k = 0.316191
        21        29        31        32     9        0.000000        0.055093         1    ;  uncertainty k = 0.504552
        21        29        31        32     9      180.000000        8.562758         2    ;  uncertainty k = 0.593403
        21        29        31        32     9        0.000000        0.122681         3    ;  uncertainty k = 0.354098
        21        29        31        32     9      180.000000        1.271334         4    ;  uncertainty k = 0.348294
        21        29        31        47     9        0.000000        0.063905         1    ;  uncertainty k = 0.148434
        21        29        31        47     9      180.000000       10.320885         2    ;  uncertainty k = 0.520136
        21        29        31        47     9        0.000000        1.044836         3    ;  uncertainty k = 0.240981
        21        29        31        47     9      180.000000        1.585810         4    ;  uncertainty k = 0.142077
        21        36        34        32     9        0.000000        0.173437         1    ;  uncertainty k = 0.287191
        21        36        34        32     9      180.000000        8.549417         2    ;  uncertainty k = 0.422498
        21        36        34        32     9        0.000000        0.019364         3    ;  uncertainty k = 0.250691
        21        36        34        32     9      180.000000        1.278988         4    ;  uncertainty k = 0.238234
        21        36        34        35     9        0.000000       -0.050397         1    ;  uncertainty k = 0.262459
        21        36        34        35     9      180.000000        5.482306         2    ;  uncertainty k = 0.678094
        21        36        34        35     9        0.000000        1.265393         3    ;  uncertainty k = 0.304092
        21        36        34        35     9      180.000000        1.564467         4    ;  uncertainty k = 0.149340
        22        17        16        38     9        0.000000       -0.743118         1    ;  uncertainty k = 3.324160
        22        17        16        38     9      180.000000        8.127734         2    ;  uncertainty k = 0.445128
        22        17        16        38     9        0.000000        0.693460         3    ;  uncertainty k = 0.571372
        22        17        16        38     9      180.000000        0.151177         4    ;  uncertainty k = 0.263311
        22        17        18        26     9        0.000000       -0.067505         1    ;  uncertainty k = 0.784520
        22        17        18        26     9      180.000000        6.890792         2    ;  uncertainty k = 0.817474
        22        17        18        26     9        0.000000        0.975121         3    ;  uncertainty k = 0.584566
        22        17        18        26     9      180.000000       -0.011356         4    ;  uncertainty k = 0.268200
        29        21        36        34     9        0.000000       -0.197757         1    ;  uncertainty k = 0.529383
        29        21        36        34     9      180.000000        6.664220         2    ;  uncertainty k = 0.862902
        29        21        36        34     9        0.000000        0.163353         3    ;  uncertainty k = 0.434593
        29        21        36        34     9      180.000000        1.244437         4    ;  uncertainty k = 0.278610
        29        21        36        37     9        0.000000        0.081990         1    ;  uncertainty k = 0.214050
        29        21        36        37     9      180.000000       10.516668         2    ;  uncertainty k = 0.320652
        29        21        36        37     9        0.000000        1.469269         3    ;  uncertainty k = 0.257101
        29        21        36        37     9      180.000000        1.566530         4    ;  uncertainty k = 0.113558
        29        31        32        33     9        0.000000        0.187499         1    ;  uncertainty k = 0.261206
        29        31        32        33     9      180.000000        5.798686         2    ;  uncertainty k = 0.519115
        29        31        32        33     9        0.000000        1.436656         3    ;  uncertainty k = 0.261799
        29        31        32        33     9      180.000000        1.560804         4    ;  uncertainty k = 0.081785
        29        31        32        34     9        0.000000       -0.017243         1    ;  uncertainty k = 0.137279
        29        31        32        34     9      180.000000        9.144060         2    ;  uncertainty k = 0.594710
        29        31        32        34     9        0.000000       -0.069818         3    ;  uncertainty k = 0.390524
        29        31        32        34     9      180.000000        1.171636         4    ;  uncertainty k = 0.329333
        29        31        47        48     9        0.000000       -0.295812         1    ;  uncertainty k = 0.381402
        29        31        47        48     9      180.000000        7.309765         2    ;  uncertainty k = 0.057182
        29        31        47        48     9        0.000000        0.471519         3    ;  uncertainty k = 0.124386
        29        31        47        48     9      180.000000        0.307290         4    ;  uncertainty k = 0.070333
        30        29        21        36     9        0.000000        0.235527         1    ;  uncertainty k = 0.227620
        30        29        21        36     9      180.000000        7.297410         2    ;  uncertainty k = 0.445061
        30        29        21        36     9        0.000000        1.468254         3    ;  uncertainty k = 0.328817
        30        29        21        36     9      180.000000        1.644641         4    ;  uncertainty k = 0.083581
        30        29        31        32     9        0.000000        0.229884         1    ;  uncertainty k = 0.325009
        30        29        31        32     9      180.000000        6.070365         2    ;  uncertainty k = 0.351723
        30        29        31        32     9        0.000000        1.415264         3    ;  uncertainty k = 0.288614
        30        29        31        32     9      180.000000        1.643920         4    ;  uncertainty k = 0.094756
        30        29        31        47     9        0.000000       -0.135239         1    ;  uncertainty k = 0.307688
        30        29        31        47     9      180.000000        8.298005         2    ;  uncertainty k = 0.286476
        30        29        31        47     9        0.000000        0.681930         3    ;  uncertainty k = 0.195214
        30        29        31        47     9      180.000000        1.107537         4    ;  uncertainty k = 0.204158
        31        29        21        36     9        0.000000       -0.011871         1    ;  uncertainty k = 0.245610
        31        29        21        36     9      180.000000       10.663653         2    ;  uncertainty k = 0.494944
        31        29        21        36     9        0.000000        0.211653         3    ;  uncertainty k = 0.357718
        31        29        21        36     9      180.000000        1.215343         4    ;  uncertainty k = 0.347465
        31        32        34        35     9        0.000000        0.078881         1    ;  uncertainty k = 0.216945
        31        32        34        35     9      180.000000        7.711771         2    ;  uncertainty k = 0.360234
        31        32        34        35     9        0.000000        1.342102         3    ;  uncertainty k = 0.346523
        31        32        34        35     9      180.000000        1.765089         4    ;  uncertainty k = 0.159200
        31        32        34        36     9        0.000000       -0.134764         1    ;  uncertainty k = 0.259386
        31        32        34        36     9      180.000000       13.897316         2    ;  uncertainty k = 0.451615
        31        32        34        36     9        0.000000       -0.652722         3    ;  uncertainty k = 0.598348
        31        32        34        36     9      180.000000        0.900817         4    ;  uncertainty k = 0.392071
        31        47        48        49     9        0.000000        0.690892         1    ;  uncertainty k = 0.222565
        31        47        48        49     9      180.000000       -1.424090         2    ;  uncertainty k = 0.124697
        31        47        48        49     9        0.000000        0.938655         3    ;  uncertainty k = 0.055444
        31        47        48        49     9      180.000000        0.292967         4    ;  uncertainty k = 0.065557
        31        47        48        50     9        0.000000        0.690892         1    ;  uncertainty k = 0.222565
        31        47        48        50     9      180.000000       -1.424090         2    ;  uncertainty k = 0.124697
        31        47        48        50     9        0.000000        0.938655         3    ;  uncertainty k = 0.055444
        31        47        48        50     9      180.000000        0.292967         4    ;  uncertainty k = 0.065557
        31        47        48        51     9        0.000000        0.690892         1    ;  uncertainty k = 0.222565
        31        47        48        51     9      180.000000       -1.424090         2    ;  uncertainty k = 0.124697
        31        47        48        51     9        0.000000        0.938655         3    ;  uncertainty k = 0.055444
        31        47        48        51     9      180.000000        0.292967         4    ;  uncertainty k = 0.065557
        32        31        47        48     9        0.000000        0.564554         1    ;  uncertainty k = 0.432311
        32        31        47        48     9      180.000000        7.315452         2    ;  uncertainty k = 0.049730
        32        31        47        48     9        0.000000        0.617339         3    ;  uncertainty k = 0.095040
        32        31        47        48     9      180.000000        0.299647         4    ;  uncertainty k = 0.013401
        32        34        36        37     9        0.000000        0.082270         1    ;  uncertainty k = 0.401808
        32        34        36        37     9      180.000000       12.859341         2    ;  uncertainty k = 0.413224
        32        34        36        37     9        0.000000        1.292611         3    ;  uncertainty k = 0.252610
        32        34        36        37     9      180.000000        1.515194         4    ;  uncertainty k = 0.194306
        33        32        31        47     9        0.000000       -0.136144         1    ;  uncertainty k = 0.217193
        33        32        31        47     9      180.000000        8.159556         2    ;  uncertainty k = 0.359108
        33        32        31        47     9        0.000000        0.681849         3    ;  uncertainty k = 0.153577
        33        32        31        47     9      180.000000        0.996962         4    ;  uncertainty k = 0.231217
        33        32        34        35     9        0.000000       -0.055170         1    ;  uncertainty k = 0.282758
        33        32        34        35     9      180.000000        7.501856         2    ;  uncertainty k = 0.422541
        33        32        34        35     9        0.000000       -0.388645         3    ;  uncertainty k = 0.215625
        33        32        34        35     9      180.000000        0.081623         4    ;  uncertainty k = 0.181773
        33        32        34        36     9        0.000000        0.092911         1    ;  uncertainty k = 0.213141
        33        32        34        36     9      180.000000        7.629686         2    ;  uncertainty k = 0.440036
        33        32        34        36     9        0.000000        1.470703         3    ;  uncertainty k = 0.293544
        33        32        34        36     9      180.000000        1.784526         4    ;  uncertainty k = 0.115078
        34        32        31        47     9        0.000000        0.085490         1    ;  uncertainty k = 0.237596
        34        32        31        47     9      180.000000       10.390413         2    ;  uncertainty k = 0.557740
        34        32        31        47     9        0.000000        1.150777         3    ;  uncertainty k = 0.295754
        34        32        31        47     9      180.000000        1.634819         4    ;  uncertainty k = 0.122922
        35        34        36        37     9        0.000000       -0.320864         1    ;  uncertainty k = 0.327479
        35        34        36        37     9      180.000000        9.513215         2    ;  uncertainty k = 0.305562
        35        34        36        37     9        0.000000        0.826454         3    ;  uncertainty k = 0.172467
        35        34        36        37     9      180.000000        1.024006         4    ;  uncertainty k = 0.217955
        39        11        43        44     9        0.000000       -1.168308         1    ;  uncertainty k = 0.299692
        39        11        43        44     9      180.000000        0.150758         2    ;  uncertainty k = 0.296599
        39        11        43        44     9        0.000000        0.668939         3    ;  uncertainty k = 0.064920
        39        11        43        44     9      180.000000       -0.104414         4    ;  uncertainty k = 0.091599
        39        11        43        45     9        0.000000       -1.168308         1    ;  uncertainty k = 0.299692
        39        11        43        45     9      180.000000        0.150758         2    ;  uncertainty k = 0.296599
        39        11        43        45     9        0.000000        0.668939         3    ;  uncertainty k = 0.064920
        39        11        43        45     9      180.000000       -0.104414         4    ;  uncertainty k = 0.091599
        39        11        43        46     9        0.000000       -1.168308         1    ;  uncertainty k = 0.299692
        39        11        43        46     9      180.000000        0.150758         2    ;  uncertainty k = 0.296599
        39        11        43        46     9        0.000000        0.668939         3    ;  uncertainty k = 0.064920
        39        11        43        46     9      180.000000       -0.104414         4    ;  uncertainty k = 0.091599
        40        39        11        43     9        0.000000       -1.168308         1    ;  uncertainty k = 0.299692
        40        39        11        43     9      180.000000        0.150758         2    ;  uncertainty k = 0.296599
        40        39        11        43     9        0.000000        0.668939         3    ;  uncertainty k = 0.064920
        40        39        11        43     9      180.000000       -0.104414         4    ;  uncertainty k = 0.091599
        41        39        11        43     9        0.000000       -1.168308         1    ;  uncertainty k = 0.299692
        41        39        11        43     9      180.000000        0.150758         2    ;  uncertainty k = 0.296599
        41        39        11        43     9        0.000000        0.668939         3    ;  uncertainty k = 0.064920
        41        39        11        43     9      180.000000       -0.104414         4    ;  uncertainty k = 0.091599
        42        39        11        43     9        0.000000       -1.168308         1    ;  uncertainty k = 0.299692
        42        39        11        43     9      180.000000        0.150758         2    ;  uncertainty k = 0.296599
        42        39        11        43     9        0.000000        0.668939         3    ;  uncertainty k = 0.064920
        42        39        11        43     9      180.000000       -0.104414         4    ;  uncertainty k = 0.091599

[ dihedrals ] ; impropers
;       ai        aj        ak        al funct           phase               k        pn
         1         2         8        21     4      180.000000       13.813846         2    ;  uncertainty k = 0.053497
         1         8        21         2     4      180.000000       13.813846         2    ;  uncertainty k = 0.053497
         1        21         2         8     4      180.000000       13.813846         2    ;  uncertainty k = 0.053497
         2         1         3         4     4      180.000000        4.757354         2    ;  uncertainty k = 0.204473
         2         3         4         1     4      180.000000        4.757354         2    ;  uncertainty k = 0.204473
         2         4         1         3     4      180.000000        4.757354         2    ;  uncertainty k = 0.204473
         4         2         5         6     4      180.000000        1.974808         2    ;  uncertainty k = 0.224174
         4         5         6         2     4      180.000000        1.974808         2    ;  uncertainty k = 0.224174
         4         6         2         5     4      180.000000        1.974808         2    ;  uncertainty k = 0.224174
         6         4         7        10     4      180.000000       22.038012         2    ;  uncertainty k = 0.126561
         6         7        10         4     4      180.000000       22.038012         2    ;  uncertainty k = 0.126561
         6        10         4         7     4      180.000000       22.038012         2    ;  uncertainty k = 0.126561
         7         6         8        15     4      180.000000       11.812165         2    ;  uncertainty k = 0.247522
         7         8        15         6     4      180.000000       11.812165         2    ;  uncertainty k = 0.247522
         7        15         6         8     4      180.000000       11.812165         2    ;  uncertainty k = 0.247522
         8         1         7         9     4      180.000000        5.019717         2    ;  uncertainty k = 0.372622
         8         7         9         1     4      180.000000        5.019717         2    ;  uncertainty k = 0.372622
         8         9         1         7     4      180.000000        5.019717         2    ;  uncertainty k = 0.372622
        16        15        17        38     4      180.000000       50.512062         2    ;  uncertainty k = 0.072585
        16        17        38        15     4      180.000000       50.512062         2    ;  uncertainty k = 0.072585
        16        38        15        17     4      180.000000       50.512062         2    ;  uncertainty k = 0.072585
        17        16        18        22     4      180.000000        2.066646         2    ;  uncertainty k = 0.825300
        17        18        22        16     4      180.000000        2.066646         2    ;  uncertainty k = 0.825300
        17        22        16        18     4      180.000000        2.066646         2    ;  uncertainty k = 0.825300
        18        17        19        26     4      180.000000       30.892449         2    ;  uncertainty k = 0.146917
        18        19        26        17     4      180.000000       30.892449         2    ;  uncertainty k = 0.146917
        18        26        17        19     4      180.000000       30.892449         2    ;  uncertainty k = 0.146917
        21         1        29        36     4      180.000000       13.602476         2    ;  uncertainty k = 0.052176
        21        29        36         1     4      180.000000       13.602476         2    ;  uncertainty k = 0.052176
        21        36         1        29     4      180.000000       13.602476         2    ;  uncertainty k = 0.052176
        26        18        27        28     4      180.000000        0.184047         2    ;  uncertainty k = 0.411542
        26        27        28        18     4      180.000000        0.184047         2    ;  uncertainty k = 0.411542
        26        28        18        27     4      180.000000        0.184047         2    ;  uncertainty k = 0.411542
        29        21        30        31     4      180.000000        2.233982         2    ;  uncertainty k = 0.369581
        29        30        31        21     4      180.000000        2.233982         2    ;  uncertainty k = 0.369581
        29        31        21        30     4      180.000000        2.233982         2    ;  uncertainty k = 0.369581
        31        29        32        47     4      180.000000       18.883769         2    ;  uncertainty k = 0.080798
        31        32        47        29     4      180.000000       18.883769         2    ;  uncertainty k = 0.080798
        31        47        29        32     4      180.000000       18.883769         2    ;  uncertainty k = 0.080798
        32        31        33        34     4      180.000000        2.539226         2    ;  uncertainty k = 0.348033
        32        33        34        31     4      180.000000        2.539226         2    ;  uncertainty k = 0.348033
        32        34        31        33     4      180.000000        2.539226         2    ;  uncertainty k = 0.348033
        34        32        35        36     4      180.000000        1.969683         2    ;  uncertainty k = 0.029029
        34        35        36        32     4      180.000000        1.969683         2    ;  uncertainty k = 0.029029
        34        36        32        35     4      180.000000        1.969683         2    ;  uncertainty k = 0.029029
        36        21        34        37     4      180.000000       14.866239         2    ;  uncertainty k = 0.080282
        36        34        37        21     4      180.000000       14.866239         2    ;  uncertainty k = 0.080282
        36        37        21        34     4      180.000000       14.866239         2    ;  uncertainty k = 0.080282

[ pairs ]
;       ai        aj funct
         1         5     1
         1         6     1
         1        15     1
         1        30     1
         1        31     1
         1        34     1
         1        37     1
         2         7     1
         2         9     1
         2        10     1
         2        29     1
         2        36     1
         3         5     1
         3         6     1
         3         8     1
         3        21     1
         4         8     1
         4        11     1
         4        15     1
         4        21     1
         5         7     1
         5        10     1
         6         9     1
         6        12     1
         6        16     1
         6        19     1
         6        39     1
         6        43     1
         7        11     1
         7        13     1
         7        14     1
         7        17     1
         7        18     1
         7        20     1
         7        21     1
         7        38     1
         8        10     1
         8        12     1
         8        16     1
         8        19     1
         8        29     1
         8        36     1
         9        15     1
         9        21     1
        10        13     1
        10        14     1
        10        15     1
        10        40     1
        10        41     1
        10        42     1
        10        44     1
        10        45     1
        10        46     1
        11        16     1
        11        19     1
        12        17     1
        12        18     1
        12        20     1
        12        38     1
        12        40     1
        12        41     1
        12        42     1
        12        44     1
        12        45     1
        12        46     1
        13        16     1
        13        19     1
        13        39     1
        13        43     1
        14        16     1
        14        19     1
        14        39     1
        14        43     1
        15        22     1
        15        26     1
        15        39     1
        15        43     1
        16        20     1
        16        23     1
        16        24     1
        16        25     1
        16        26     1
        17        20     1
        17        27     1
        17        28     1
        18        23     1
        18        24     1
        18        25     1
        18        38     1
        19        22     1
        19        27     1
        19        28     1
        19        38     1
        20        26     1
        21        32     1
        21        35     1
        21        47     1
        22        26     1
        22        38     1
        29        33     1
        29        34     1
        29        37     1
        29        48     1
        30        32     1
        30        36     1
        30        47     1
        31        35     1
        31        36     1
        31        49     1
        31        50     1
        31        51     1
        32        37     1
        32        48     1
        33        35     1
        33        36     1
        33        47     1
        34        47     1
        35        37     1
        39        44     1
        39        45     1
        39        46     1
        40        43     1
        41        43     1
        42        43     1
