; ITP file created by ByteFF-joint-25, 2026-03-14 15:03:14.896249

[ atomtypes ]
;name           bonded.type        at.num        mass        charge   ptype           sigma         epsilon
 c0bf                                   6      0.0000       0.00000       A     3.31534e-01     4.13325e-01    ;  uncertainty sigma = 0.000008, epsilon = 0.000588
 c1bf                                   6      0.0000       0.00000       A     3.31524e-01     4.13381e-01    ;  uncertainty sigma = 0.000003, epsilon = 0.000604
 h2bf                                   1      0.0000       0.00000       A     2.62549e-01     6.71097e-02    ;  uncertainty sigma = 0.000009, epsilon = 0.000701
 c3bf                                   6      0.0000       0.00000       A     3.31520e-01     4.13804e-01    ;  uncertainty sigma = 0.000004, epsilon = 0.000933
 h4bf                                   1      0.0000       0.00000       A     2.62557e-01     6.67842e-02    ;  uncertainty sigma = 0.000009, epsilon = 0.000545
 c5bf                                   6      0.0000       0.00000       A     3.31563e-01     4.13133e-01    ;  uncertainty sigma = 0.000020, epsilon = 0.000950
 c6bf                                   6      0.0000       0.00000       A     3.31615e-01     4.12602e-01    ;  uncertainty sigma = 0.000053, epsilon = 0.001513
 c7bf                                   6      0.0000       0.00000       A     3.31554e-01     4.13738e-01    ;  uncertainty sigma = 0.000025, epsilon = 0.001102
 h8bf                                   1      0.0000       0.00000       A     2.62572e-01     6.72615e-02    ;  uncertainty sigma = 0.000012, epsilon = 0.000915
 o9bf                                   8      0.0000       0.00000       A     3.15675e-01     3.03349e-01    ;  uncertainty sigma = 0.000037, epsilon = 0.000709
 c10bf                                  6      0.0000       0.00000       A     3.39754e-01     4.50298e-01    ;  uncertainty sigma = 0.000022, epsilon = 0.001818
 c11bf                                  6      0.0000       0.00000       A     3.39729e-01     4.51261e-01    ;  uncertainty sigma = 0.000015, epsilon = 0.001388
 h12bf                                  1      0.0000       0.00000       A     2.60113e-01     8.69260e-02    ;  uncertainty sigma = 0.000018, epsilon = 0.001362
 h13bf                                  1      0.0000       0.00000       A     2.60113e-01     8.69260e-02    ;  uncertainty sigma = 0.000018, epsilon = 0.001362
 c14bf                                  6      0.0000       0.00000       A     3.39920e-01     4.52079e-01    ;  uncertainty sigma = 0.000044, epsilon = 0.004918
 c15bf                                  6      0.0000       0.00000       A     3.31534e-01     4.13061e-01    ;  uncertainty sigma = 0.000023, epsilon = 0.000770
 n16bf                                  7      0.0000       0.00000       A     3.18159e-01     6.82058e-01    ;  uncertainty sigma = 0.000074, epsilon = 0.006526
 c17bf                                  6      0.0000       0.00000       A     3.31516e-01     4.13029e-01    ;  uncertainty sigma = 0.000046, epsilon = 0.002102
 n18bf                                  7      0.0000       0.00000       A     3.27895e-01     6.51183e-01    ;  uncertainty sigma = 0.000198, epsilon = 0.011723
 h19bf                                  1      0.0000       0.00000       A     1.10796e-01     4.19443e-02    ;  uncertainty sigma = 0.000445, epsilon = 0.001840
 br20bf                                35      0.0000       0.00000       A     3.61267e-01     1.64567e+00    ;  uncertainty sigma = 0.000015, epsilon = 0.001240
 c21bf                                  6      0.0000       0.00000       A     3.39747e-01     4.51374e-01    ;  uncertainty sigma = 0.000011, epsilon = 0.001160
 h22bf                                  1      0.0000       0.00000       A     2.42212e-01     8.67416e-02    ;  uncertainty sigma = 0.000033, epsilon = 0.000677
 h23bf                                  1      0.0000       0.00000       A     2.42212e-01     8.67416e-02    ;  uncertainty sigma = 0.000033, epsilon = 0.000677
 h24bf                                  1      0.0000       0.00000       A     2.42212e-01     8.67416e-02    ;  uncertainty sigma = 0.000033, epsilon = 0.000677
 n25bf                                  7      0.0000       0.00000       A     3.36518e-01     4.71691e-01    ;  uncertainty sigma = 0.000108, epsilon = 0.006012
 h26bf                                  1      0.0000       0.00000       A     1.10696e-01     4.11175e-02    ;  uncertainty sigma = 0.000127, epsilon = 0.001410
 h27bf                                  1      0.0000       0.00000       A     1.10696e-01     4.11175e-02    ;  uncertainty sigma = 0.000127, epsilon = 0.001410
 o28bf                                  8      0.0000       0.00000       A     3.04746e-01     6.12575e-01    ;  uncertainty sigma = 0.000054, epsilon = 0.002454
 c29bf                                  6      0.0000       0.00000       A     3.39769e-01     4.50351e-01    ;  uncertainty sigma = 0.000003, epsilon = 0.001331
 h30bf                                  1      0.0000       0.00000       A     2.60031e-01     8.68009e-02    ;  uncertainty sigma = 0.000006, epsilon = 0.000320
 h31bf                                  1      0.0000       0.00000       A     2.60031e-01     8.68009e-02    ;  uncertainty sigma = 0.000006, epsilon = 0.000320
 h32bf                                  1      0.0000       0.00000       A     2.60031e-01     8.68009e-02    ;  uncertainty sigma = 0.000006, epsilon = 0.000320
 c33bf                                  6      0.0000       0.00000       A     3.39769e-01     4.50351e-01    ;  uncertainty sigma = 0.000003, epsilon = 0.001331
 h34bf                                  1      0.0000       0.00000       A     2.60031e-01     8.68009e-02    ;  uncertainty sigma = 0.000006, epsilon = 0.000320
 h35bf                                  1      0.0000       0.00000       A     2.60031e-01     8.68009e-02    ;  uncertainty sigma = 0.000006, epsilon = 0.000320
 h36bf                                  1      0.0000       0.00000       A     2.60031e-01     8.68009e-02    ;  uncertainty sigma = 0.000006, epsilon = 0.000320

[ moleculetype ]
;name             nrexcl
 MOL                   3

[ atoms ]
;       nr            type      resi   res      atom      cgnr      charge          mass ; qtot
         1            c0bf         1   UNL        c0         1    -0.03644       12.0110 ; qtot   -0.036
         2            c1bf         1   UNL        c1         2    -0.04716       12.0110 ; qtot   -0.084
         3            h2bf         1   UNL        h2         3     0.15437        1.0080 ; qtot    0.071
         4            c3bf         1   UNL        c3         4    -0.14737       12.0110 ; qtot   -0.077
         5            h4bf         1   UNL        h4         5     0.16114        1.0080 ; qtot    0.085
         6            c5bf         1   UNL        c5         6     0.18356       12.0110 ; qtot    0.268
         7            c6bf         1   UNL        c6         7    -0.20566       12.0110 ; qtot    0.062
         8            c7bf         1   UNL        c7         8    -0.04526       12.0110 ; qtot    0.017
         9            h8bf         1   UNL        h8         9     0.16124        1.0080 ; qtot    0.178
        10            o9bf         1   UNL        o9        10    -0.32407       15.9990 ; qtot   -0.146
        11           c10bf         1   UNL       c10        11     0.16563       12.0110 ; qtot    0.020
        12           c11bf         1   UNL       c11        12    -0.09812       12.0110 ; qtot   -0.078
        13           h12bf         1   UNL       h12        13     0.09101        1.0080 ; qtot    0.013
        14           h13bf         1   UNL       h13        14     0.09101        1.0080 ; qtot    0.104
        15           c14bf         1   UNL       c14        15     0.03906       12.0110 ; qtot    0.143
        16           c15bf         1   UNL       c15        16     0.70507       12.0110 ; qtot    0.848
        17           n16bf         1   UNL       n16        17    -0.41729       14.0070 ; qtot    0.431
        18           c17bf         1   UNL       c17        18     0.47248       12.0110 ; qtot    0.903
        19           n18bf         1   UNL       n18        19    -0.37456       14.0070 ; qtot    0.529
        20           h19bf         1   UNL       h19        20     0.35504        1.0080 ; qtot    0.884
        21          br20bf         1   UNL      br20        21    -0.07239       79.9040 ; qtot    0.811
        22           c21bf         1   UNL       c21        22     0.07530       12.0110 ; qtot    0.887
        23           h22bf         1   UNL       h22        23     0.09109        1.0080 ; qtot    0.978
        24           h23bf         1   UNL       h23        24     0.09109        1.0080 ; qtot    1.069
        25           h24bf         1   UNL       h24        25     0.09109        1.0080 ; qtot    1.160
        26           n25bf         1   UNL       n25        26    -0.48596       14.0070 ; qtot    0.674
        27           h26bf         1   UNL       h26        27     0.33929        1.0080 ; qtot    1.013
        28           h27bf         1   UNL       h27        28     0.33929        1.0080 ; qtot    1.352
        29           o28bf         1   UNL       o28        29    -0.45182       15.9990 ; qtot    0.901
        30           c29bf         1   UNL       c29        30    -0.10337       12.0110 ; qtot    0.797
        31           h30bf         1   UNL       h30        31     0.05101        1.0080 ; qtot    0.848
        32           h31bf         1   UNL       h31        32     0.05101        1.0080 ; qtot    0.899
        33           h32bf         1   UNL       h32        33     0.05101        1.0080 ; qtot    0.950
        34           c33bf         1   UNL       c33        34    -0.10337       12.0110 ; qtot    0.847
        35           h34bf         1   UNL       h34        35     0.05101        1.0080 ; qtot    0.898
        36           h35bf         1   UNL       h35        36     0.05101        1.0080 ; qtot    0.949
        37           h36bf         1   UNL       h36        37     0.05103        1.0080 ; qtot    1.000

[ bonds ]
;       ai        aj funct               r               k
         1         2     1        0.139731   359588.981982    ;  uncertainty r = 0.000044, k = 2.596077
         1         8     1        0.139099   351119.855029    ;  uncertainty r = 0.000069, k = 7.732170
         1        21     1        0.191106   164027.892432    ;  uncertainty r = 0.000117, k = 1.363796
         2         3     1        0.108637   334426.731836    ;  uncertainty r = 0.000018, k = 0.742598
         2         4     1        0.138828   383726.198096    ;  uncertainty r = 0.000064, k = 6.099864
         4         5     1        0.108743   336906.998047    ;  uncertainty r = 0.000014, k = 0.618414
         4         6     1        0.140172   362004.307324    ;  uncertainty r = 0.000077, k = 4.005449
         6         7     1        0.140071   329019.325537    ;  uncertainty r = 0.000185, k = 6.788608
         6        10     1        0.136197   303808.580420    ;  uncertainty r = 0.000196, k = 10.505388
         7         8     1        0.139766   348395.224219    ;  uncertainty r = 0.000133, k = 6.199351
         7        15     1        0.150692   206120.863037    ;  uncertainty r = 0.000087, k = 22.147708
         8         9     1        0.108665   335029.050098    ;  uncertainty r = 0.000050, k = 0.405302
        10        11     1        0.145422   203859.641382    ;  uncertainty r = 0.000221, k = 9.275520
        11        12     1        0.152936   192803.911694    ;  uncertainty r = 0.000262, k = 11.274596
        11        30     1        0.152325   205847.654272    ;  uncertainty r = 0.000037, k = 5.592256
        11        34     1        0.152325   205847.654272    ;  uncertainty r = 0.000037, k = 5.592256
        12        13     1        0.109477   309561.503809    ;  uncertainty r = 0.000048, k = 2.448473
        12        14     1        0.109477   309561.503809    ;  uncertainty r = 0.000048, k = 2.448473
        12        15     1        0.153055   191208.723389    ;  uncertainty r = 0.000121, k = 21.859734
        15        16     1        0.153635   171752.242358    ;  uncertainty r = 0.000181, k = 15.092969
        15        19     1        0.149657   231744.517676    ;  uncertainty r = 0.000409, k = 50.175142
        16        17     1        0.142413   302839.344971    ;  uncertainty r = 0.000236, k = 75.996174
        16        29     1        0.120112   608584.455469    ;  uncertainty r = 0.000161, k = 10.569144
        17        18     1        0.135836   286250.770703    ;  uncertainty r = 0.000260, k = 52.766102
        17        22     1        0.146741   261825.572607    ;  uncertainty r = 0.000154, k = 17.700649
        18        19     1        0.133610   531287.609180    ;  uncertainty r = 0.000191, k = 37.526813
        18        26     1        0.133101   320485.564160    ;  uncertainty r = 0.000146, k = 40.823703
        19        20     1        0.101578   423262.955127    ;  uncertainty r = 0.000083, k = 11.557068
        22        23     1        0.109172   309495.286084    ;  uncertainty r = 0.000053, k = 3.597993
        22        24     1        0.109172   309495.286084    ;  uncertainty r = 0.000053, k = 3.597993
        22        25     1        0.109172   309495.286084    ;  uncertainty r = 0.000053, k = 3.597993
        26        27     1        0.101405   421785.684424    ;  uncertainty r = 0.000064, k = 13.590764
        26        28     1        0.101405   421785.735498    ;  uncertainty r = 0.000064, k = 13.590763
        30        31     1        0.109545   310467.177393    ;  uncertainty r = 0.000018, k = 1.787242
        30        32     1        0.109545   310467.177393    ;  uncertainty r = 0.000018, k = 1.787242
        30        33     1        0.109545   310467.177393    ;  uncertainty r = 0.000018, k = 1.787242
        34        35     1        0.109545   310467.177393    ;  uncertainty r = 0.000018, k = 1.787242
        34        36     1        0.109545   310467.177393    ;  uncertainty r = 0.000018, k = 1.787242
        34        37     1        0.109545   310467.177393    ;  uncertainty r = 0.000018, k = 1.787242

[ angles ]
;       ai        aj        ak funct           theta             cth
         1         2         3     1      121.169922      286.045982    ;  uncertainty theta = 0.001126, k = 0.047765
         1         2         4     1      118.091873      504.211519    ;  uncertainty theta = 0.002696, k = 0.029349
         1         8         7     1      121.064415      502.581389    ;  uncertainty theta = 0.003046, k = 0.190208
         1         8         9     1      120.819397      290.707494    ;  uncertainty theta = 0.001749, k = 0.097404
         2         1         8     1      120.812210      392.521715    ;  uncertainty theta = 0.002307, k = 0.156546
         2         1        21     1      119.900345      400.577843    ;  uncertainty theta = 0.002580, k = 0.072168
         2         4         5     1      120.895981      282.552538    ;  uncertainty theta = 0.000922, k = 0.048598
         2         4         6     1      119.697365      494.676473    ;  uncertainty theta = 0.001815, k = 0.159630
         3         2         4     1      120.047607      279.313921    ;  uncertainty theta = 0.002038, k = 0.036150
         4         6         7     1      121.437546      370.937175    ;  uncertainty theta = 0.003045, k = 0.169559
         4         6        10     1      118.257790      538.294749    ;  uncertainty theta = 0.003446, k = 0.061304
         5         4         6     1      120.033630      277.144033    ;  uncertainty theta = 0.002981, k = 0.130491
         6         7         8     1      121.769577      445.354355    ;  uncertainty theta = 0.005327, k = 0.175933
         6         7        15     1      120.118858      413.077875    ;  uncertainty theta = 0.009093, k = 0.220421
         6        10        11     1      114.525864      453.195908    ;  uncertainty theta = 0.006749, k = 0.102692
         7         6        10     1      123.863564      495.733103    ;  uncertainty theta = 0.005273, k = 0.240772
         7         8         9     1      118.358566      259.619703    ;  uncertainty theta = 0.003307, k = 0.187320
         7        15        12     1      110.320236      540.498921    ;  uncertainty theta = 0.001748, k = 0.177325
         7        15        16     1      109.043716      465.656229    ;  uncertainty theta = 0.004149, k = 0.326062
         7        15        19     1      110.421288      623.313469    ;  uncertainty theta = 0.005000, k = 0.361961
         8         1        21     1      119.550354      380.949223    ;  uncertainty theta = 0.003524, k = 0.131783
         8         7        15     1      118.039932      415.179036    ;  uncertainty theta = 0.001926, k = 0.290218
        10        11        12     1      109.104774      651.855785    ;  uncertainty theta = 0.004859, k = 0.084503
        10        11        30     1      107.605125      619.338362    ;  uncertainty theta = 0.001081, k = 0.064685
        10        11        34     1      107.605125      619.338362    ;  uncertainty theta = 0.001081, k = 0.064685
        11        12        13     1      107.678444      386.201185    ;  uncertainty theta = 0.003165, k = 0.032000
        11        12        14     1      107.678444      386.201185    ;  uncertainty theta = 0.003165, k = 0.032000
        11        12        15     1      109.820534      530.353251    ;  uncertainty theta = 0.006989, k = 0.199494
        11        30        31     1      107.221069      387.594393    ;  uncertainty theta = 0.001065, k = 0.069193
        11        30        32     1      107.221069      387.594393    ;  uncertainty theta = 0.001065, k = 0.069193
        11        30        33     1      107.221069      387.594393    ;  uncertainty theta = 0.001065, k = 0.069193
        11        34        35     1      107.221069      387.594393    ;  uncertainty theta = 0.001065, k = 0.069193
        11        34        36     1      107.221069      387.594393    ;  uncertainty theta = 0.001065, k = 0.069193
        11        34        37     1      107.221069      387.594393    ;  uncertainty theta = 0.001065, k = 0.069193
        12        11        30     1      109.374954      548.046988    ;  uncertainty theta = 0.004356, k = 0.115347
        12        11        34     1      109.374954      548.046988    ;  uncertainty theta = 0.004356, k = 0.115347
        12        15        16     1      107.850563      449.927285    ;  uncertainty theta = 0.006765, k = 0.163477
        12        15        19     1      109.855553      626.648743    ;  uncertainty theta = 0.007867, k = 0.267482
        13        12        14     1      106.986496      321.844700    ;  uncertainty theta = 0.004263, k = 0.066652
        13        12        15     1      106.635864      397.396813    ;  uncertainty theta = 0.003175, k = 0.083256
        14        12        15     1      106.635864      397.396813    ;  uncertainty theta = 0.003175, k = 0.083256
        15        16        17     1      110.132950      535.421920    ;  uncertainty theta = 0.011851, k = 0.703442
        15        16        29     1      125.816025      424.567659    ;  uncertainty theta = 0.006646, k = 0.204905
        15        19        18     1      110.988625      602.330903    ;  uncertainty theta = 0.016253, k = 0.382492
        15        19        20     1      118.125198      281.053860    ;  uncertainty theta = 0.015258, k = 0.118314
        16        15        19     1      103.860802      815.463362    ;  uncertainty theta = 0.012048, k = 0.851059
        16        17        18     1      110.293701      728.609291    ;  uncertainty theta = 0.010426, k = 0.320486
        16        17        22     1      119.398109      397.513773    ;  uncertainty theta = 0.006832, k = 0.281808
        17        16        29     1      125.307961      629.051912    ;  uncertainty theta = 0.008036, k = 0.165829
        17        18        19     1      113.250023      720.106327    ;  uncertainty theta = 0.006756, k = 0.305315
        17        18        26     1      125.598953      549.524885    ;  uncertainty theta = 0.008546, k = 0.324469
        17        22        23     1      107.360855      470.851946    ;  uncertainty theta = 0.002522, k = 0.203983
        17        22        24     1      107.360855      470.851946    ;  uncertainty theta = 0.002522, k = 0.203983
        17        22        25     1      107.360855      470.851946    ;  uncertainty theta = 0.002522, k = 0.203983
        18        17        22     1      118.646042      371.786540    ;  uncertainty theta = 0.007230, k = 0.373049
        18        19        20     1      119.824707      355.581520    ;  uncertainty theta = 0.006083, k = 0.153034
        18        26        27     1      114.903091      371.138312    ;  uncertainty theta = 0.001582, k = 0.210952
        18        26        28     1      114.903091      371.138312    ;  uncertainty theta = 0.001582, k = 0.210952
        19        18        26     1      128.730377      637.313550    ;  uncertainty theta = 0.008927, k = 0.256741
        23        22        24     1      107.634499      325.466948    ;  uncertainty theta = 0.003233, k = 0.098676
        23        22        25     1      107.634499      325.466948    ;  uncertainty theta = 0.003233, k = 0.098676
        24        22        25     1      107.634499      325.466948    ;  uncertainty theta = 0.003233, k = 0.098676
        27        26        28     1      112.323532      263.743275    ;  uncertainty theta = 0.015210, k = 0.362876
        30        11        34     1      110.900230      580.347282    ;  uncertainty theta = 0.002949, k = 0.067890
        31        30        32     1      106.043396      316.610518    ;  uncertainty theta = 0.000878, k = 0.018252
        31        30        33     1      106.043396      316.610518    ;  uncertainty theta = 0.000878, k = 0.018252
        32        30        33     1      106.043396      316.610518    ;  uncertainty theta = 0.000878, k = 0.018252
        35        34        36     1      106.043396      316.610518    ;  uncertainty theta = 0.000878, k = 0.018252
        35        34        37     1      106.043396      316.610518    ;  uncertainty theta = 0.000878, k = 0.018252
        36        34        37     1      106.043396      316.610518    ;  uncertainty theta = 0.000878, k = 0.018252

[ dihedrals ] ; propers for gromacs 4.5 or higher, use funct 9
;       ai        aj        ak        al funct           phase               k        pn
         1         2         4         5     9        0.000000        0.037962         1    ;  uncertainty k = 0.228284
         1         2         4         5     9      180.000000        8.449805         2    ;  uncertainty k = 0.308166
         1         2         4         5     9        0.000000        1.503708         3    ;  uncertainty k = 0.287519
         1         2         4         5     9      180.000000        1.920204         4    ;  uncertainty k = 0.285854
         1         2         4         6     9        0.000000       -0.016454         1    ;  uncertainty k = 0.437295
         1         2         4         6     9      180.000000       14.656955         2    ;  uncertainty k = 0.209845
         1         2         4         6     9        0.000000       -0.526207         3    ;  uncertainty k = 0.618825
         1         2         4         6     9      180.000000        0.902913         4    ;  uncertainty k = 0.236656
         1         8         7         6     9        0.000000       -0.243046         1    ;  uncertainty k = 0.176977
         1         8         7         6     9      180.000000       11.676487         2    ;  uncertainty k = 0.453428
         1         8         7         6     9        0.000000       -0.196735         3    ;  uncertainty k = 0.323652
         1         8         7         6     9      180.000000        1.066427         4    ;  uncertainty k = 0.349242
         1         8         7        15     9        0.000000        0.200582         1    ;  uncertainty k = 0.352248
         1         8         7        15     9      180.000000        9.665053         2    ;  uncertainty k = 0.408759
         1         8         7        15     9        0.000000        1.719036         3    ;  uncertainty k = 0.260503
         1         8         7        15     9      180.000000        1.827901         4    ;  uncertainty k = 0.301528
         2         1         8         7     9        0.000000        0.114264         1    ;  uncertainty k = 0.278847
         2         1         8         7     9      180.000000        9.673441         2    ;  uncertainty k = 0.430650
         2         1         8         7     9        0.000000       -0.143004         3    ;  uncertainty k = 0.658764
         2         1         8         7     9      180.000000        1.298260         4    ;  uncertainty k = 0.408535
         2         1         8         9     9        0.000000       -0.075612         1    ;  uncertainty k = 0.237063
         2         1         8         9     9      180.000000        6.556230         2    ;  uncertainty k = 0.556760
         2         1         8         9     9        0.000000        1.444859         3    ;  uncertainty k = 0.291544
         2         1         8         9     9      180.000000        1.687892         4    ;  uncertainty k = 0.123506
         2         4         6         7     9        0.000000        0.247409         1    ;  uncertainty k = 0.435712
         2         4         6         7     9      180.000000        7.625970         2    ;  uncertainty k = 0.539324
         2         4         6         7     9        0.000000        0.275467         3    ;  uncertainty k = 0.470777
         2         4         6         7     9      180.000000        1.337939         4    ;  uncertainty k = 0.235853
         2         4         6        10     9        0.000000        0.361210         1    ;  uncertainty k = 0.229611
         2         4         6        10     9      180.000000       11.488059         2    ;  uncertainty k = 0.341383
         2         4         6        10     9        0.000000        1.279353         3    ;  uncertainty k = 0.243903
         2         4         6        10     9      180.000000        1.547829         4    ;  uncertainty k = 0.136410
         3         2         1         8     9        0.000000       -0.024009         1    ;  uncertainty k = 0.238065
         3         2         1         8     9      180.000000        5.950961         2    ;  uncertainty k = 0.378401
         3         2         1         8     9        0.000000        1.440213         3    ;  uncertainty k = 0.295849
         3         2         1         8     9      180.000000        1.506151         4    ;  uncertainty k = 0.106124
         3         2         1        21     9        0.000000        0.110167         1    ;  uncertainty k = 0.386710
         3         2         1        21     9      180.000000        7.103274         2    ;  uncertainty k = 0.410439
         3         2         1        21     9        0.000000        0.708090         3    ;  uncertainty k = 0.415478
         3         2         1        21     9      180.000000        0.933446         4    ;  uncertainty k = 0.167159
         3         2         4         5     9        0.000000        0.028746         1    ;  uncertainty k = 0.279728
         3         2         4         5     9      180.000000        7.910334         2    ;  uncertainty k = 0.352019
         3         2         4         5     9        0.000000       -0.357811         3    ;  uncertainty k = 0.354868
         3         2         4         5     9      180.000000        0.106368         4    ;  uncertainty k = 0.172858
         3         2         4         6     9        0.000000        0.346203         1    ;  uncertainty k = 0.239581
         3         2         4         6     9      180.000000        8.569343         2    ;  uncertainty k = 0.405030
         3         2         4         6     9        0.000000        1.384350         3    ;  uncertainty k = 0.322357
         3         2         4         6     9      180.000000        1.751395         4    ;  uncertainty k = 0.199713
         4         2         1         8     9        0.000000       -0.159510         1    ;  uncertainty k = 0.122211
         4         2         1         8     9      180.000000       10.191571         2    ;  uncertainty k = 0.465859
         4         2         1         8     9        0.000000       -0.392458         3    ;  uncertainty k = 0.459332
         4         2         1         8     9      180.000000        1.102604         4    ;  uncertainty k = 0.238578
         4         2         1        21     9        0.000000        0.068369         1    ;  uncertainty k = 0.155584
         4         2         1        21     9      180.000000        8.952578         2    ;  uncertainty k = 0.617443
         4         2         1        21     9        0.000000        1.562279         3    ;  uncertainty k = 0.425830
         4         2         1        21     9      180.000000        1.646114         4    ;  uncertainty k = 0.197161
         4         6         7         8     9        0.000000       -0.096919         1    ;  uncertainty k = 0.274082
         4         6         7         8     9      180.000000        6.759154         2    ;  uncertainty k = 0.397886
         4         6         7         8     9        0.000000        0.406624         3    ;  uncertainty k = 0.267195
         4         6         7         8     9      180.000000        1.372236         4    ;  uncertainty k = 0.240416
         4         6         7        15     9        0.000000        0.336840         1    ;  uncertainty k = 0.206677
         4         6         7        15     9      180.000000        4.958136         2    ;  uncertainty k = 0.422589
         4         6         7        15     9        0.000000        1.471093         3    ;  uncertainty k = 0.241767
         4         6         7        15     9      180.000000        1.653384         4    ;  uncertainty k = 0.191773
         4         6        10        11     9        0.000000       -0.004542         1    ;  uncertainty k = 0.563900
         4         6        10        11     9      180.000000        1.421260         2    ;  uncertainty k = 0.580496
         4         6        10        11     9        0.000000        0.930067         3    ;  uncertainty k = 0.189169
         4         6        10        11     9      180.000000        0.273439         4    ;  uncertainty k = 0.160684
         5         4         6         7     9        0.000000        0.405610         1    ;  uncertainty k = 0.571313
         5         4         6         7     9      180.000000        5.643110         2    ;  uncertainty k = 0.345984
         5         4         6         7     9        0.000000        1.351300         3    ;  uncertainty k = 0.224229
         5         4         6         7     9      180.000000        1.418600         4    ;  uncertainty k = 0.158556
         5         4         6        10     9        0.000000       -0.103043         1    ;  uncertainty k = 0.662805
         5         4         6        10     9      180.000000        9.043875         2    ;  uncertainty k = 0.398632
         5         4         6        10     9        0.000000        0.775161         3    ;  uncertainty k = 0.283228
         5         4         6        10     9      180.000000        1.258543         4    ;  uncertainty k = 0.286887
         6         7         8         9     9        0.000000        0.278106         1    ;  uncertainty k = 0.371248
         6         7         8         9     9      180.000000        7.982489         2    ;  uncertainty k = 0.824921
         6         7         8         9     9        0.000000        1.256721         3    ;  uncertainty k = 0.261442
         6         7         8         9     9      180.000000        1.605420         4    ;  uncertainty k = 0.207729
         6         7        15        12     9        0.000000       -0.540185         1    ;  uncertainty k = 1.564764
         6         7        15        12     9      180.000000        0.640421         2    ;  uncertainty k = 0.652498
         6         7        15        12     9        0.000000        0.293567         3    ;  uncertainty k = 0.324296
         6         7        15        12     9      180.000000        0.280499         4    ;  uncertainty k = 0.206159
         6         7        15        16     9        0.000000        2.044046         1    ;  uncertainty k = 2.453157
         6         7        15        16     9      180.000000        0.412477         2    ;  uncertainty k = 0.938413
         6         7        15        16     9        0.000000        0.440824         3    ;  uncertainty k = 0.264657
         6         7        15        16     9      180.000000        0.368933         4    ;  uncertainty k = 0.174525
         6         7        15        19     9        0.000000       -1.958206         1    ;  uncertainty k = 1.693959
         6         7        15        19     9      180.000000        1.471785         2    ;  uncertainty k = 0.307099
         6         7        15        19     9        0.000000        0.589646         3    ;  uncertainty k = 0.465438
         6         7        15        19     9      180.000000        0.040023         4    ;  uncertainty k = 0.170839
         6        10        11        12     9        0.000000        4.432810         1    ;  uncertainty k = 0.556412
         6        10        11        12     9      180.000000       -1.766883         2    ;  uncertainty k = 1.286084
         6        10        11        12     9        0.000000       -0.478595         3    ;  uncertainty k = 0.469166
         6        10        11        12     9      180.000000        0.324847         4    ;  uncertainty k = 0.229494
         6        10        11        30     9        0.000000       -1.403220         1    ;  uncertainty k = 0.493028
         6        10        11        30     9      180.000000        1.088118         2    ;  uncertainty k = 0.693466
         6        10        11        30     9        0.000000        0.417332         3    ;  uncertainty k = 0.233151
         6        10        11        30     9      180.000000        0.159885         4    ;  uncertainty k = 0.172983
         6        10        11        34     9        0.000000       -1.403220         1    ;  uncertainty k = 0.493028
         6        10        11        34     9      180.000000        1.088118         2    ;  uncertainty k = 0.693466
         6        10        11        34     9        0.000000        0.417332         3    ;  uncertainty k = 0.233151
         6        10        11        34     9      180.000000        0.159885         4    ;  uncertainty k = 0.172983
         7         6        10        11     9        0.000000        4.231837         1    ;  uncertainty k = 1.777099
         7         6        10        11     9      180.000000       -1.338810         2    ;  uncertainty k = 1.320942
         7         6        10        11     9        0.000000       -0.412359         3    ;  uncertainty k = 0.693406
         7         6        10        11     9      180.000000        0.638488         4    ;  uncertainty k = 0.288047
         7         8         1        21     9        0.000000        0.143344         1    ;  uncertainty k = 0.341449
         7         8         1        21     9      180.000000        9.038140         2    ;  uncertainty k = 0.396462
         7         8         1        21     9        0.000000        1.535328         3    ;  uncertainty k = 0.170572
         7         8         1        21     9      180.000000        1.597165         4    ;  uncertainty k = 0.187559
         7        15        12        11     9        0.000000        2.110048         1    ;  uncertainty k = 1.270036
         7        15        12        11     9      180.000000       -1.101156         2    ;  uncertainty k = 0.440712
         7        15        12        11     9        0.000000        0.361512         3    ;  uncertainty k = 0.238729
         7        15        12        11     9      180.000000       -0.276445         4    ;  uncertainty k = 0.237977
         7        15        12        13     9        0.000000       -0.198679         1    ;  uncertainty k = 0.143461
         7        15        12        13     9      180.000000        0.096507         2    ;  uncertainty k = 0.424672
         7        15        12        13     9        0.000000        0.464695         3    ;  uncertainty k = 0.236801
         7        15        12        13     9      180.000000       -0.098112         4    ;  uncertainty k = 0.141978
         7        15        12        14     9        0.000000       -0.198679         1    ;  uncertainty k = 0.143461
         7        15        12        14     9      180.000000        0.096507         2    ;  uncertainty k = 0.424672
         7        15        12        14     9        0.000000        0.464695         3    ;  uncertainty k = 0.236801
         7        15        12        14     9      180.000000       -0.098112         4    ;  uncertainty k = 0.141978
         7        15        16        17     9        0.000000       -2.126994         1    ;  uncertainty k = 2.559938
         7        15        16        17     9      180.000000        2.529292         2    ;  uncertainty k = 1.167297
         7        15        16        17     9        0.000000        1.419943         3    ;  uncertainty k = 0.204593
         7        15        16        17     9      180.000000        0.675748         4    ;  uncertainty k = 0.422873
         7        15        16        29     9        0.000000       -0.667894         1    ;  uncertainty k = 2.334757
         7        15        16        29     9      180.000000        3.152029         2    ;  uncertainty k = 0.496350
         7        15        16        29     9        0.000000        0.212004         3    ;  uncertainty k = 0.331750
         7        15        16        29     9      180.000000        0.143967         4    ;  uncertainty k = 0.270573
         7        15        19        18     9        0.000000        0.992963         1    ;  uncertainty k = 1.148794
         7        15        19        18     9      180.000000        0.555064         2    ;  uncertainty k = 0.534757
         7        15        19        18     9        0.000000        0.852572         3    ;  uncertainty k = 0.423387
         7        15        19        18     9      180.000000        0.380311         4    ;  uncertainty k = 0.137266
         7        15        19        20     9        0.000000        0.946882         1    ;  uncertainty k = 2.813566
         7        15        19        20     9      180.000000       -1.064567         2    ;  uncertainty k = 1.308210
         7        15        19        20     9        0.000000        0.498225         3    ;  uncertainty k = 0.506053
         7        15        19        20     9      180.000000       -0.052478         4    ;  uncertainty k = 0.088947
         8         7         6        10     9        0.000000        0.523828         1    ;  uncertainty k = 0.360306
         8         7         6        10     9      180.000000        8.127242         2    ;  uncertainty k = 0.253672
         8         7         6        10     9        0.000000        1.499423         3    ;  uncertainty k = 0.245594
         8         7         6        10     9      180.000000        1.600179         4    ;  uncertainty k = 0.178851
         8         7        15        12     9        0.000000       -0.709599         1    ;  uncertainty k = 1.085858
         8         7        15        12     9      180.000000        0.958990         2    ;  uncertainty k = 0.530420
         8         7        15        12     9        0.000000       -0.272920         3    ;  uncertainty k = 0.361891
         8         7        15        12     9      180.000000        0.172299         4    ;  uncertainty k = 0.173135
         8         7        15        16     9        0.000000        0.559595         1    ;  uncertainty k = 1.755479
         8         7        15        16     9      180.000000        0.072309         2    ;  uncertainty k = 0.634876
         8         7        15        16     9        0.000000        0.178124         3    ;  uncertainty k = 0.240191
         8         7        15        16     9      180.000000        0.290139         4    ;  uncertainty k = 0.146860
         8         7        15        19     9        0.000000       -0.473782         1    ;  uncertainty k = 1.058029
         8         7        15        19     9      180.000000        1.827121         2    ;  uncertainty k = 0.317797
         8         7        15        19     9        0.000000       -0.025320         3    ;  uncertainty k = 0.425053
         8         7        15        19     9      180.000000        0.085610         4    ;  uncertainty k = 0.260783
         9         8         1        21     9        0.000000        0.122168         1    ;  uncertainty k = 0.423628
         9         8         1        21     9      180.000000        7.721701         2    ;  uncertainty k = 0.401320
         9         8         1        21     9        0.000000        0.795642         3    ;  uncertainty k = 0.275878
         9         8         1        21     9      180.000000        1.125447         4    ;  uncertainty k = 0.220423
         9         8         7        15     9        0.000000       -0.394754         1    ;  uncertainty k = 0.346676
         9         8         7        15     9      180.000000        6.824077         2    ;  uncertainty k = 0.343701
         9         8         7        15     9        0.000000        0.968866         3    ;  uncertainty k = 0.319018
         9         8         7        15     9      180.000000        1.219876         4    ;  uncertainty k = 0.260131
        10         6         7        15     9        0.000000        0.554753         1    ;  uncertainty k = 1.014672
        10         6         7        15     9      180.000000        5.701572         2    ;  uncertainty k = 0.761825
        10         6         7        15     9        0.000000        1.754553         3    ;  uncertainty k = 0.459718
        10         6         7        15     9      180.000000        1.062157         4    ;  uncertainty k = 0.431258
        10        11        12        13     9        0.000000       -1.286357         1    ;  uncertainty k = 0.418982
        10        11        12        13     9      180.000000       -0.843338         2    ;  uncertainty k = 0.564486
        10        11        12        13     9        0.000000        0.398057         3    ;  uncertainty k = 0.233267
        10        11        12        13     9      180.000000       -0.189590         4    ;  uncertainty k = 0.165011
        10        11        12        14     9        0.000000       -1.286357         1    ;  uncertainty k = 0.418982
        10        11        12        14     9      180.000000       -0.843338         2    ;  uncertainty k = 0.564486
        10        11        12        14     9        0.000000        0.398057         3    ;  uncertainty k = 0.233267
        10        11        12        14     9      180.000000       -0.189590         4    ;  uncertainty k = 0.165011
        10        11        12        15     9        0.000000        7.489529         1    ;  uncertainty k = 0.695339
        10        11        12        15     9      180.000000       -4.254295         2    ;  uncertainty k = 2.003586
        10        11        12        15     9        0.000000       -0.262537         3    ;  uncertainty k = 0.556871
        10        11        12        15     9      180.000000       -0.020281         4    ;  uncertainty k = 0.408166
        10        11        30        31     9        0.000000       -0.556685         1    ;  uncertainty k = 0.641512
        10        11        30        31     9      180.000000       -2.127823         2    ;  uncertainty k = 0.599046
        10        11        30        31     9        0.000000        0.863808         3    ;  uncertainty k = 0.110663
        10        11        30        31     9      180.000000       -0.195070         4    ;  uncertainty k = 0.150407
        10        11        30        32     9        0.000000       -0.556685         1    ;  uncertainty k = 0.641512
        10        11        30        32     9      180.000000       -2.127823         2    ;  uncertainty k = 0.599046
        10        11        30        32     9        0.000000        0.863808         3    ;  uncertainty k = 0.110663
        10        11        30        32     9      180.000000       -0.195070         4    ;  uncertainty k = 0.150407
        10        11        30        33     9        0.000000       -0.556685         1    ;  uncertainty k = 0.641512
        10        11        30        33     9      180.000000       -2.127823         2    ;  uncertainty k = 0.599046
        10        11        30        33     9        0.000000        0.863808         3    ;  uncertainty k = 0.110663
        10        11        30        33     9      180.000000       -0.195070         4    ;  uncertainty k = 0.150407
        10        11        34        35     9        0.000000       -0.556685         1    ;  uncertainty k = 0.641512
        10        11        34        35     9      180.000000       -2.127823         2    ;  uncertainty k = 0.599046
        10        11        34        35     9        0.000000        0.863808         3    ;  uncertainty k = 0.110663
        10        11        34        35     9      180.000000       -0.195070         4    ;  uncertainty k = 0.150407
        10        11        34        36     9        0.000000       -0.556685         1    ;  uncertainty k = 0.641512
        10        11        34        36     9      180.000000       -2.127823         2    ;  uncertainty k = 0.599046
        10        11        34        36     9        0.000000        0.863808         3    ;  uncertainty k = 0.110663
        10        11        34        36     9      180.000000       -0.195070         4    ;  uncertainty k = 0.150407
        10        11        34        37     9        0.000000       -0.556685         1    ;  uncertainty k = 0.641512
        10        11        34        37     9      180.000000       -2.127823         2    ;  uncertainty k = 0.599046
        10        11        34        37     9        0.000000        0.863808         3    ;  uncertainty k = 0.110663
        10        11        34        37     9      180.000000       -0.195070         4    ;  uncertainty k = 0.150407
        11        12        15        16     9        0.000000       -1.229219         1    ;  uncertainty k = 1.345758
        11        12        15        16     9      180.000000       -0.509244         2    ;  uncertainty k = 0.508164
        11        12        15        16     9        0.000000        0.431590         3    ;  uncertainty k = 0.245690
        11        12        15        16     9      180.000000       -0.080383         4    ;  uncertainty k = 0.228181
        11        12        15        19     9        0.000000       -2.980366         1    ;  uncertainty k = 1.012647
        11        12        15        19     9      180.000000       -1.350072         2    ;  uncertainty k = 1.006007
        11        12        15        19     9        0.000000        1.197180         3    ;  uncertainty k = 0.514272
        11        12        15        19     9      180.000000        0.003417         4    ;  uncertainty k = 0.229348
        12        11        30        31     9        0.000000       -0.810618         1    ;  uncertainty k = 0.476463
        12        11        30        31     9      180.000000       -0.740441         2    ;  uncertainty k = 0.208398
        12        11        30        31     9        0.000000        0.585176         3    ;  uncertainty k = 0.093112
        12        11        30        31     9      180.000000       -0.179618         4    ;  uncertainty k = 0.029902
        12        11        30        32     9        0.000000       -0.810618         1    ;  uncertainty k = 0.476463
        12        11        30        32     9      180.000000       -0.740441         2    ;  uncertainty k = 0.208398
        12        11        30        32     9        0.000000        0.585176         3    ;  uncertainty k = 0.093112
        12        11        30        32     9      180.000000       -0.179618         4    ;  uncertainty k = 0.029902
        12        11        30        33     9        0.000000       -0.810618         1    ;  uncertainty k = 0.476463
        12        11        30        33     9      180.000000       -0.740441         2    ;  uncertainty k = 0.208398
        12        11        30        33     9        0.000000        0.585176         3    ;  uncertainty k = 0.093112
        12        11        30        33     9      180.000000       -0.179618         4    ;  uncertainty k = 0.029902
        12        11        34        35     9        0.000000       -0.810618         1    ;  uncertainty k = 0.476463
        12        11        34        35     9      180.000000       -0.740441         2    ;  uncertainty k = 0.208398
        12        11        34        35     9        0.000000        0.585176         3    ;  uncertainty k = 0.093112
        12        11        34        35     9      180.000000       -0.179618         4    ;  uncertainty k = 0.029902
        12        11        34        36     9        0.000000       -0.810618         1    ;  uncertainty k = 0.476463
        12        11        34        36     9      180.000000       -0.740441         2    ;  uncertainty k = 0.208398
        12        11        34        36     9        0.000000        0.585176         3    ;  uncertainty k = 0.093112
        12        11        34        36     9      180.000000       -0.179618         4    ;  uncertainty k = 0.029902
        12        11        34        37     9        0.000000       -0.810618         1    ;  uncertainty k = 0.476463
        12        11        34        37     9      180.000000       -0.740441         2    ;  uncertainty k = 0.208398
        12        11        34        37     9        0.000000        0.585176         3    ;  uncertainty k = 0.093112
        12        11        34        37     9      180.000000       -0.179618         4    ;  uncertainty k = 0.029902
        12        15        16        17     9        0.000000       -3.083243         1    ;  uncertainty k = 1.270811
        12        15        16        17     9      180.000000        2.894929         2    ;  uncertainty k = 0.245707
        12        15        16        17     9        0.000000        0.857461         3    ;  uncertainty k = 0.087377
        12        15        16        17     9      180.000000        0.587345         4    ;  uncertainty k = 0.336772
        12        15        16        29     9        0.000000       -0.600041         1    ;  uncertainty k = 2.058659
        12        15        16        29     9      180.000000        3.920295         2    ;  uncertainty k = 1.093759
        12        15        16        29     9        0.000000        0.157614         3    ;  uncertainty k = 0.381098
        12        15        16        29     9      180.000000        0.057976         4    ;  uncertainty k = 0.334404
        12        15        19        18     9        0.000000       -0.731261         1    ;  uncertainty k = 0.334487
        12        15        19        18     9      180.000000        1.471239         2    ;  uncertainty k = 0.675298
        12        15        19        18     9        0.000000        0.356957         3    ;  uncertainty k = 0.237464
        12        15        19        18     9      180.000000        0.278578         4    ;  uncertainty k = 0.146772
        12        15        19        20     9        0.000000        1.016042         1    ;  uncertainty k = 3.203564
        12        15        19        20     9      180.000000       -0.442294         2    ;  uncertainty k = 0.887445
        12        15        19        20     9        0.000000        0.403776         3    ;  uncertainty k = 0.476493
        12        15        19        20     9      180.000000        0.071726         4    ;  uncertainty k = 0.077140
        13        12        11        30     9        0.000000       -0.868529         1    ;  uncertainty k = 0.359708
        13        12        11        30     9      180.000000        0.339049         2    ;  uncertainty k = 0.271426
        13        12        11        30     9        0.000000        0.030221         3    ;  uncertainty k = 0.169820
        13        12        11        30     9      180.000000       -0.198172         4    ;  uncertainty k = 0.102797
        13        12        11        34     9        0.000000       -0.868529         1    ;  uncertainty k = 0.359708
        13        12        11        34     9      180.000000        0.339049         2    ;  uncertainty k = 0.271426
        13        12        11        34     9        0.000000        0.030221         3    ;  uncertainty k = 0.169820
        13        12        11        34     9      180.000000       -0.198172         4    ;  uncertainty k = 0.102797
        13        12        15        16     9        0.000000        0.642342         1    ;  uncertainty k = 0.450730
        13        12        15        16     9      180.000000       -1.089366         2    ;  uncertainty k = 0.447405
        13        12        15        16     9        0.000000        0.085988         3    ;  uncertainty k = 0.201280
        13        12        15        16     9      180.000000       -0.053199         4    ;  uncertainty k = 0.095937
        13        12        15        19     9        0.000000       -1.011140         1    ;  uncertainty k = 0.661486
        13        12        15        19     9      180.000000       -0.207927         2    ;  uncertainty k = 0.435018
        13        12        15        19     9        0.000000        0.529694         3    ;  uncertainty k = 0.223152
        13        12        15        19     9      180.000000       -0.286219         4    ;  uncertainty k = 0.128279
        14        12        11        30     9        0.000000       -0.868529         1    ;  uncertainty k = 0.359708
        14        12        11        30     9      180.000000        0.339049         2    ;  uncertainty k = 0.271426
        14        12        11        30     9        0.000000        0.030221         3    ;  uncertainty k = 0.169820
        14        12        11        30     9      180.000000       -0.198172         4    ;  uncertainty k = 0.102797
        14        12        11        34     9        0.000000       -0.868529         1    ;  uncertainty k = 0.359708
        14        12        11        34     9      180.000000        0.339049         2    ;  uncertainty k = 0.271426
        14        12        11        34     9        0.000000        0.030221         3    ;  uncertainty k = 0.169820
        14        12        11        34     9      180.000000       -0.198172         4    ;  uncertainty k = 0.102797
        14        12        15        16     9        0.000000        0.642342         1    ;  uncertainty k = 0.450730
        14        12        15        16     9      180.000000       -1.089366         2    ;  uncertainty k = 0.447405
        14        12        15        16     9        0.000000        0.085988         3    ;  uncertainty k = 0.201280
        14        12        15        16     9      180.000000       -0.053199         4    ;  uncertainty k = 0.095937
        14        12        15        19     9        0.000000       -1.011140         1    ;  uncertainty k = 0.661486
        14        12        15        19     9      180.000000       -0.207927         2    ;  uncertainty k = 0.435018
        14        12        15        19     9        0.000000        0.529694         3    ;  uncertainty k = 0.223152
        14        12        15        19     9      180.000000       -0.286219         4    ;  uncertainty k = 0.128279
        15        12        11        30     9        0.000000       -0.400215         1    ;  uncertainty k = 0.946699
        15        12        11        30     9      180.000000       -0.296049         2    ;  uncertainty k = 0.213595
        15        12        11        30     9        0.000000        0.106808         3    ;  uncertainty k = 0.247290
        15        12        11        30     9      180.000000       -0.158705         4    ;  uncertainty k = 0.067111
        15        12        11        34     9        0.000000       -0.400215         1    ;  uncertainty k = 0.946699
        15        12        11        34     9      180.000000       -0.296049         2    ;  uncertainty k = 0.213595
        15        12        11        34     9        0.000000        0.106808         3    ;  uncertainty k = 0.247290
        15        12        11        34     9      180.000000       -0.158705         4    ;  uncertainty k = 0.067111
        15        16        17        18     9        0.000000        3.273721         1    ;  uncertainty k = 2.235322
        15        16        17        18     9      180.000000        4.166669         2    ;  uncertainty k = 2.139333
        15        16        17        18     9        0.000000       -0.174228         3    ;  uncertainty k = 0.830518
        15        16        17        18     9      180.000000        0.632374         4    ;  uncertainty k = 0.359705
        15        16        17        22     9        0.000000        4.871375         1    ;  uncertainty k = 2.795882
        15        16        17        22     9      180.000000        3.698880         2    ;  uncertainty k = 2.651415
        15        16        17        22     9        0.000000        1.143067         3    ;  uncertainty k = 0.863048
        15        16        17        22     9      180.000000        0.328363         4    ;  uncertainty k = 0.582207
        15        19        18        17     9        0.000000        1.172366         1    ;  uncertainty k = 2.636260
        15        19        18        17     9      180.000000       15.330818         2    ;  uncertainty k = 0.491785
        15        19        18        17     9        0.000000       -0.701854         3    ;  uncertainty k = 1.008501
        15        19        18        17     9      180.000000       -0.601450         4    ;  uncertainty k = 0.210245
        15        19        18        26     9        0.000000        3.708712         1    ;  uncertainty k = 0.865817
        15        19        18        26     9      180.000000       11.326400         2    ;  uncertainty k = 0.603378
        15        19        18        26     9        0.000000        0.320341         3    ;  uncertainty k = 0.241086
        15        19        18        26     9      180.000000       -0.483508         4    ;  uncertainty k = 0.515933
        16        15        19        18     9        0.000000        1.049644         1    ;  uncertainty k = 0.718896
        16        15        19        18     9      180.000000        2.350733         2    ;  uncertainty k = 0.655208
        16        15        19        18     9        0.000000        0.171515         3    ;  uncertainty k = 0.616116
        16        15        19        18     9      180.000000        0.491134         4    ;  uncertainty k = 0.335534
        16        15        19        20     9        0.000000        1.848363         1    ;  uncertainty k = 2.129320
        16        15        19        20     9      180.000000       -0.777748         2    ;  uncertainty k = 0.774739
        16        15        19        20     9        0.000000        0.065180         3    ;  uncertainty k = 0.474114
        16        15        19        20     9      180.000000        0.019178         4    ;  uncertainty k = 0.246096
        16        17        18        19     9        0.000000       -0.598871         1    ;  uncertainty k = 1.517512
        16        17        18        19     9      180.000000        9.023777         2    ;  uncertainty k = 0.890262
        16        17        18        19     9        0.000000       -1.321226         3    ;  uncertainty k = 1.261849
        16        17        18        19     9      180.000000       -0.043685         4    ;  uncertainty k = 0.510427
        16        17        18        26     9        0.000000       -0.742539         1    ;  uncertainty k = 0.884320
        16        17        18        26     9      180.000000        6.821150         2    ;  uncertainty k = 1.300514
        16        17        18        26     9        0.000000        0.216631         3    ;  uncertainty k = 0.558836
        16        17        18        26     9      180.000000       -0.098970         4    ;  uncertainty k = 0.493923
        16        17        22        23     9        0.000000        0.297431         1    ;  uncertainty k = 0.338022
        16        17        22        23     9      180.000000        0.087168         2    ;  uncertainty k = 0.381934
        16        17        22        23     9        0.000000        0.347193         3    ;  uncertainty k = 0.232215
        16        17        22        23     9      180.000000        0.291096         4    ;  uncertainty k = 0.074538
        16        17        22        24     9        0.000000        0.297431         1    ;  uncertainty k = 0.338022
        16        17        22        24     9      180.000000        0.087168         2    ;  uncertainty k = 0.381934
        16        17        22        24     9        0.000000        0.347193         3    ;  uncertainty k = 0.232215
        16        17        22        24     9      180.000000        0.291096         4    ;  uncertainty k = 0.074538
        16        17        22        25     9        0.000000        0.297431         1    ;  uncertainty k = 0.338022
        16        17        22        25     9      180.000000        0.087168         2    ;  uncertainty k = 0.381934
        16        17        22        25     9        0.000000        0.347193         3    ;  uncertainty k = 0.232215
        16        17        22        25     9      180.000000        0.291096         4    ;  uncertainty k = 0.074538
        17        16        15        19     9        0.000000       -0.778209         1    ;  uncertainty k = 2.395456
        17        16        15        19     9      180.000000        6.986773         2    ;  uncertainty k = 1.240546
        17        16        15        19     9        0.000000        0.617426         3    ;  uncertainty k = 0.578408
        17        16        15        19     9      180.000000        0.288188         4    ;  uncertainty k = 0.846427
        17        18        19        20     9        0.000000        4.051322         1    ;  uncertainty k = 3.391115
        17        18        19        20     9      180.000000       10.697180         2    ;  uncertainty k = 0.526601
        17        18        19        20     9        0.000000        1.093668         3    ;  uncertainty k = 0.752546
        17        18        19        20     9      180.000000       -0.389374         4    ;  uncertainty k = 0.265720
        17        18        26        27     9        0.000000        8.080941         1    ;  uncertainty k = 2.061712
        17        18        26        27     9      180.000000        9.353073         2    ;  uncertainty k = 0.455751
        17        18        26        27     9        0.000000        0.960301         3    ;  uncertainty k = 0.478476
        17        18        26        27     9      180.000000       -0.922267         4    ;  uncertainty k = 0.215681
        17        18        26        28     9        0.000000        8.080941         1    ;  uncertainty k = 2.061712
        17        18        26        28     9      180.000000        9.353073         2    ;  uncertainty k = 0.455751
        17        18        26        28     9        0.000000        0.960301         3    ;  uncertainty k = 0.478476
        17        18        26        28     9      180.000000       -0.922267         4    ;  uncertainty k = 0.215681
        18        17        16        29     9        0.000000       -0.225774         1    ;  uncertainty k = 3.237560
        18        17        16        29     9      180.000000        7.660703         2    ;  uncertainty k = 0.931236
        18        17        16        29     9        0.000000        0.373526         3    ;  uncertainty k = 0.816132
        18        17        16        29     9      180.000000        0.053274         4    ;  uncertainty k = 0.298389
        18        17        22        23     9        0.000000       -0.260671         1    ;  uncertainty k = 0.510831
        18        17        22        23     9      180.000000       -1.123799         2    ;  uncertainty k = 0.505443
        18        17        22        23     9        0.000000        0.381297         3    ;  uncertainty k = 0.163929
        18        17        22        23     9      180.000000        0.194836         4    ;  uncertainty k = 0.041789
        18        17        22        24     9        0.000000       -0.260671         1    ;  uncertainty k = 0.510831
        18        17        22        24     9      180.000000       -1.123799         2    ;  uncertainty k = 0.505443
        18        17        22        24     9        0.000000        0.381297         3    ;  uncertainty k = 0.163929
        18        17        22        24     9      180.000000        0.194836         4    ;  uncertainty k = 0.041789
        18        17        22        25     9        0.000000       -0.260671         1    ;  uncertainty k = 0.510831
        18        17        22        25     9      180.000000       -1.123799         2    ;  uncertainty k = 0.505443
        18        17        22        25     9        0.000000        0.381297         3    ;  uncertainty k = 0.163929
        18        17        22        25     9      180.000000        0.194836         4    ;  uncertainty k = 0.041789
        19        15        16        29     9        0.000000       -0.013657         1    ;  uncertainty k = 2.204133
        19        15        16        29     9      180.000000        4.137265         2    ;  uncertainty k = 1.330562
        19        15        16        29     9        0.000000        0.397629         3    ;  uncertainty k = 0.206696
        19        15        16        29     9      180.000000        0.442324         4    ;  uncertainty k = 0.159723
        19        18        17        22     9        0.000000       -0.380136         1    ;  uncertainty k = 2.913081
        19        18        17        22     9      180.000000        8.267784         2    ;  uncertainty k = 0.403615
        19        18        17        22     9        0.000000        0.435757         3    ;  uncertainty k = 0.320054
        19        18        17        22     9      180.000000       -0.156996         4    ;  uncertainty k = 0.291188
        19        18        26        27     9        0.000000        6.366443         1    ;  uncertainty k = 1.644722
        19        18        26        27     9      180.000000       10.049531         2    ;  uncertainty k = 0.349760
        19        18        26        27     9        0.000000        1.357511         3    ;  uncertainty k = 0.507490
        19        18        26        27     9      180.000000       -0.656591         4    ;  uncertainty k = 0.287459
        19        18        26        28     9        0.000000        6.366443         1    ;  uncertainty k = 1.644722
        19        18        26        28     9      180.000000       10.049531         2    ;  uncertainty k = 0.349760
        19        18        26        28     9        0.000000        1.357511         3    ;  uncertainty k = 0.507490
        19        18        26        28     9      180.000000       -0.656591         4    ;  uncertainty k = 0.287459
        20        19        18        26     9        0.000000        1.886192         1    ;  uncertainty k = 2.633103
        20        19        18        26     9      180.000000        7.784175         2    ;  uncertainty k = 1.209625
        20        19        18        26     9        0.000000        0.956054         3    ;  uncertainty k = 0.197633
        20        19        18        26     9      180.000000       -0.247909         4    ;  uncertainty k = 0.316191
        22        17        16        29     9        0.000000       -0.743118         1    ;  uncertainty k = 3.324160
        22        17        16        29     9      180.000000        8.127734         2    ;  uncertainty k = 0.445128
        22        17        16        29     9        0.000000        0.693460         3    ;  uncertainty k = 0.571372
        22        17        16        29     9      180.000000        0.151177         4    ;  uncertainty k = 0.263311
        22        17        18        26     9        0.000000       -0.067505         1    ;  uncertainty k = 0.784520
        22        17        18        26     9      180.000000        6.890792         2    ;  uncertainty k = 0.817474
        22        17        18        26     9        0.000000        0.975121         3    ;  uncertainty k = 0.584566
        22        17        18        26     9      180.000000       -0.011356         4    ;  uncertainty k = 0.268200
        30        11        34        35     9        0.000000       -1.168308         1    ;  uncertainty k = 0.299692
        30        11        34        35     9      180.000000        0.150758         2    ;  uncertainty k = 0.296599
        30        11        34        35     9        0.000000        0.668939         3    ;  uncertainty k = 0.064920
        30        11        34        35     9      180.000000       -0.104414         4    ;  uncertainty k = 0.091599
        30        11        34        36     9        0.000000       -1.168308         1    ;  uncertainty k = 0.299692
        30        11        34        36     9      180.000000        0.150758         2    ;  uncertainty k = 0.296599
        30        11        34        36     9        0.000000        0.668939         3    ;  uncertainty k = 0.064920
        30        11        34        36     9      180.000000       -0.104414         4    ;  uncertainty k = 0.091599
        30        11        34        37     9        0.000000       -1.168308         1    ;  uncertainty k = 0.299692
        30        11        34        37     9      180.000000        0.150758         2    ;  uncertainty k = 0.296599
        30        11        34        37     9        0.000000        0.668939         3    ;  uncertainty k = 0.064920
        30        11        34        37     9      180.000000       -0.104414         4    ;  uncertainty k = 0.091599
        31        30        11        34     9        0.000000       -1.168308         1    ;  uncertainty k = 0.299692
        31        30        11        34     9      180.000000        0.150758         2    ;  uncertainty k = 0.296599
        31        30        11        34     9        0.000000        0.668939         3    ;  uncertainty k = 0.064920
        31        30        11        34     9      180.000000       -0.104414         4    ;  uncertainty k = 0.091599
        32        30        11        34     9        0.000000       -1.168308         1    ;  uncertainty k = 0.299692
        32        30        11        34     9      180.000000        0.150758         2    ;  uncertainty k = 0.296599
        32        30        11        34     9        0.000000        0.668939         3    ;  uncertainty k = 0.064920
        32        30        11        34     9      180.000000       -0.104414         4    ;  uncertainty k = 0.091599
        33        30        11        34     9        0.000000       -1.168308         1    ;  uncertainty k = 0.299692
        33        30        11        34     9      180.000000        0.150758         2    ;  uncertainty k = 0.296599
        33        30        11        34     9        0.000000        0.668939         3    ;  uncertainty k = 0.064920
        33        30        11        34     9      180.000000       -0.104414         4    ;  uncertainty k = 0.091599

[ dihedrals ] ; impropers
;       ai        aj        ak        al funct           phase               k        pn
         1         2         8        21     4      180.000000       10.650386         2    ;  uncertainty k = 0.155544
         1         8        21         2     4      180.000000       10.650386         2    ;  uncertainty k = 0.155544
         1        21         2         8     4      180.000000       10.650386         2    ;  uncertainty k = 0.155544
         2         1         3         4     4      180.000000        4.565842         2    ;  uncertainty k = 0.084375
         2         3         4         1     4      180.000000        4.565842         2    ;  uncertainty k = 0.084375
         2         4         1         3     4      180.000000        4.565842         2    ;  uncertainty k = 0.084375
         4         2         5         6     4      180.000000        2.379262         2    ;  uncertainty k = 0.207466
         4         5         6         2     4      180.000000        2.379262         2    ;  uncertainty k = 0.207466
         4         6         2         5     4      180.000000        2.379262         2    ;  uncertainty k = 0.207466
         6         4         7        10     4      180.000000       22.021420         2    ;  uncertainty k = 0.117994
         6         7        10         4     4      180.000000       22.021420         2    ;  uncertainty k = 0.117994
         6        10         4         7     4      180.000000       22.021420         2    ;  uncertainty k = 0.117994
         7         6         8        15     4      180.000000       12.088899         2    ;  uncertainty k = 0.238129
         7         8        15         6     4      180.000000       12.088899         2    ;  uncertainty k = 0.238129
         7        15         6         8     4      180.000000       12.088899         2    ;  uncertainty k = 0.238129
         8         1         7         9     4      180.000000        4.439611         2    ;  uncertainty k = 0.210231
         8         7         9         1     4      180.000000        4.439611         2    ;  uncertainty k = 0.210231
         8         9         1         7     4      180.000000        4.439611         2    ;  uncertainty k = 0.210231
        16        15        17        29     4      180.000000       50.536210         2    ;  uncertainty k = 0.071605
        16        17        29        15     4      180.000000       50.536210         2    ;  uncertainty k = 0.071605
        16        29        15        17     4      180.000000       50.536210         2    ;  uncertainty k = 0.071605
        17        16        18        22     4      180.000000        2.066646         2    ;  uncertainty k = 0.825300
        17        18        22        16     4      180.000000        2.066646         2    ;  uncertainty k = 0.825300
        17        22        16        18     4      180.000000        2.066646         2    ;  uncertainty k = 0.825300
        18        17        19        26     4      180.000000       30.892449         2    ;  uncertainty k = 0.146917
        18        19        26        17     4      180.000000       30.892449         2    ;  uncertainty k = 0.146917
        18        26        17        19     4      180.000000       30.892449         2    ;  uncertainty k = 0.146917
        26        18        27        28     4      180.000000        0.184047         2    ;  uncertainty k = 0.411541
        26        27        28        18     4      180.000000        0.184047         2    ;  uncertainty k = 0.411541
        26        28        18        27     4      180.000000        0.184047         2    ;  uncertainty k = 0.411541

[ pairs ]
;       ai        aj funct
         1         5     1
         1         6     1
         1        15     1
         2         7     1
         2         9     1
         2        10     1
         3         5     1
         3         6     1
         3         8     1
         3        21     1
         4         8     1
         4        11     1
         4        15     1
         4        21     1
         5         7     1
         5        10     1
         6         9     1
         6        12     1
         6        16     1
         6        19     1
         6        30     1
         6        34     1
         7        11     1
         7        13     1
         7        14     1
         7        17     1
         7        18     1
         7        20     1
         7        21     1
         7        29     1
         8        10     1
         8        12     1
         8        16     1
         8        19     1
         9        15     1
         9        21     1
        10        13     1
        10        14     1
        10        15     1
        10        31     1
        10        32     1
        10        33     1
        10        35     1
        10        36     1
        10        37     1
        11        16     1
        11        19     1
        12        17     1
        12        18     1
        12        20     1
        12        29     1
        12        31     1
        12        32     1
        12        33     1
        12        35     1
        12        36     1
        12        37     1
        13        16     1
        13        19     1
        13        30     1
        13        34     1
        14        16     1
        14        19     1
        14        30     1
        14        34     1
        15        22     1
        15        26     1
        15        30     1
        15        34     1
        16        20     1
        16        23     1
        16        24     1
        16        25     1
        16        26     1
        17        20     1
        17        27     1
        17        28     1
        18        23     1
        18        24     1
        18        25     1
        18        29     1
        19        22     1
        19        27     1
        19        28     1
        19        29     1
        20        26     1
        22        26     1
        22        29     1
        30        35     1
        30        36     1
        30        37     1
        31        34     1
        32        34     1
        33        34     1
