; ITP file created by ByteFF-joint-25, 2026-03-14 15:22:54.899176

[ atomtypes ]
;name           bonded.type        at.num        mass        charge   ptype           sigma         epsilon
 c0bf                                   6      0.0000       0.00000       A     3.31490e-01     4.13344e-01    ;  uncertainty sigma = 0.000009, epsilon = 0.000594
 c1bf                                   6      0.0000       0.00000       A     3.31511e-01     4.13435e-01    ;  uncertainty sigma = 0.000006, epsilon = 0.000528
 h2bf                                   1      0.0000       0.00000       A     2.62563e-01     6.71382e-02    ;  uncertainty sigma = 0.000008, epsilon = 0.000500
 c3bf                                   6      0.0000       0.00000       A     3.31523e-01     4.13778e-01    ;  uncertainty sigma = 0.000003, epsilon = 0.000961
 h4bf                                   1      0.0000       0.00000       A     2.62561e-01     6.68067e-02    ;  uncertainty sigma = 0.000012, epsilon = 0.000527
 c5bf                                   6      0.0000       0.00000       A     3.31562e-01     4.13129e-01    ;  uncertainty sigma = 0.000021, epsilon = 0.000953
 c6bf                                   6      0.0000       0.00000       A     3.31604e-01     4.12991e-01    ;  uncertainty sigma = 0.000053, epsilon = 0.001665
 c7bf                                   6      0.0000       0.00000       A     3.31541e-01     4.13363e-01    ;  uncertainty sigma = 0.000018, epsilon = 0.001199
 h8bf                                   1      0.0000       0.00000       A     2.62555e-01     6.73758e-02    ;  uncertainty sigma = 0.000015, epsilon = 0.000633
 o9bf                                   8      0.0000       0.00000       A     3.15675e-01     3.03349e-01    ;  uncertainty sigma = 0.000037, epsilon = 0.000709
 c10bf                                  6      0.0000       0.00000       A     3.39754e-01     4.50298e-01    ;  uncertainty sigma = 0.000022, epsilon = 0.001818
 c11bf                                  6      0.0000       0.00000       A     3.39729e-01     4.51261e-01    ;  uncertainty sigma = 0.000015, epsilon = 0.001388
 h12bf                                  1      0.0000       0.00000       A     2.60113e-01     8.69260e-02    ;  uncertainty sigma = 0.000018, epsilon = 0.001362
 h13bf                                  1      0.0000       0.00000       A     2.60113e-01     8.69260e-02    ;  uncertainty sigma = 0.000018, epsilon = 0.001362
 c14bf                                  6      0.0000       0.00000       A     3.39922e-01     4.52078e-01    ;  uncertainty sigma = 0.000044, epsilon = 0.005050
 c15bf                                  6      0.0000       0.00000       A     3.31534e-01     4.13061e-01    ;  uncertainty sigma = 0.000023, epsilon = 0.000770
 n16bf                                  7      0.0000       0.00000       A     3.18159e-01     6.82058e-01    ;  uncertainty sigma = 0.000074, epsilon = 0.006526
 c17bf                                  6      0.0000       0.00000       A     3.31516e-01     4.13029e-01    ;  uncertainty sigma = 0.000046, epsilon = 0.002102
 n18bf                                  7      0.0000       0.00000       A     3.27895e-01     6.51183e-01    ;  uncertainty sigma = 0.000198, epsilon = 0.011723
 h19bf                                  1      0.0000       0.00000       A     1.10796e-01     4.19443e-02    ;  uncertainty sigma = 0.000445, epsilon = 0.001840
 c20bf                                  6      0.0000       0.00000       A     3.31515e-01     4.13160e-01    ;  uncertainty sigma = 0.000010, epsilon = 0.000514
 c21bf                                  6      0.0000       0.00000       A     3.39747e-01     4.51374e-01    ;  uncertainty sigma = 0.000011, epsilon = 0.001160
 h22bf                                  1      0.0000       0.00000       A     2.42212e-01     8.67416e-02    ;  uncertainty sigma = 0.000033, epsilon = 0.000677
 h23bf                                  1      0.0000       0.00000       A     2.42212e-01     8.67416e-02    ;  uncertainty sigma = 0.000033, epsilon = 0.000677
 h24bf                                  1      0.0000       0.00000       A     2.42212e-01     8.67416e-02    ;  uncertainty sigma = 0.000033, epsilon = 0.000677
 n25bf                                  7      0.0000       0.00000       A     3.36518e-01     4.71691e-01    ;  uncertainty sigma = 0.000108, epsilon = 0.006012
 h26bf                                  1      0.0000       0.00000       A     1.10696e-01     4.11175e-02    ;  uncertainty sigma = 0.000127, epsilon = 0.001410
 h27bf                                  1      0.0000       0.00000       A     1.10696e-01     4.11175e-02    ;  uncertainty sigma = 0.000127, epsilon = 0.001410
 c28bf                                  6      0.0000       0.00000       A     3.31522e-01     4.13386e-01    ;  uncertainty sigma = 0.000007, epsilon = 0.000682
 h29bf                                  1      0.0000       0.00000       A     2.62559e-01     6.71674e-02    ;  uncertainty sigma = 0.000013, epsilon = 0.000620
 c30bf                                  6      0.0000       0.00000       A     3.31521e-01     4.13098e-01    ;  uncertainty sigma = 0.000007, epsilon = 0.000587
 c31bf                                  6      0.0000       0.00000       A     3.31530e-01     4.13533e-01    ;  uncertainty sigma = 0.000006, epsilon = 0.000606
 h32bf                                  1      0.0000       0.00000       A     2.62576e-01     6.72706e-02    ;  uncertainty sigma = 0.000009, epsilon = 0.000517
 c33bf                                  6      0.0000       0.00000       A     3.31510e-01     4.13276e-01    ;  uncertainty sigma = 0.000009, epsilon = 0.000524
 f34bf                                  9      0.0000       0.00000       A     3.03439e-01     3.47909e-01    ;  uncertainty sigma = 0.000008, epsilon = 0.000700
 c35bf                                  6      0.0000       0.00000       A     3.31516e-01     4.13601e-01    ;  uncertainty sigma = 0.000009, epsilon = 0.000727
 h36bf                                  1      0.0000       0.00000       A     2.62558e-01     6.71032e-02    ;  uncertainty sigma = 0.000012, epsilon = 0.000603
 o37bf                                  8      0.0000       0.00000       A     3.04746e-01     6.12575e-01    ;  uncertainty sigma = 0.000054, epsilon = 0.002454
 c38bf                                  6      0.0000       0.00000       A     3.39769e-01     4.50351e-01    ;  uncertainty sigma = 0.000003, epsilon = 0.001331
 h39bf                                  1      0.0000       0.00000       A     2.60031e-01     8.68009e-02    ;  uncertainty sigma = 0.000006, epsilon = 0.000320
 h40bf                                  1      0.0000       0.00000       A     2.60031e-01     8.68009e-02    ;  uncertainty sigma = 0.000006, epsilon = 0.000320
 h41bf                                  1      0.0000       0.00000       A     2.60031e-01     8.68009e-02    ;  uncertainty sigma = 0.000006, epsilon = 0.000320
 c42bf                                  6      0.0000       0.00000       A     3.39769e-01     4.50351e-01    ;  uncertainty sigma = 0.000003, epsilon = 0.001331
 h43bf                                  1      0.0000       0.00000       A     2.60031e-01     8.68009e-02    ;  uncertainty sigma = 0.000006, epsilon = 0.000320
 h44bf                                  1      0.0000       0.00000       A     2.60031e-01     8.68009e-02    ;  uncertainty sigma = 0.000006, epsilon = 0.000320
 h45bf                                  1      0.0000       0.00000       A     2.60031e-01     8.68009e-02    ;  uncertainty sigma = 0.000006, epsilon = 0.000320
 cl46bf                                17      0.0000       0.00000       A     3.46593e-01     1.10394e+00    ;  uncertainty sigma = 0.000014, epsilon = 0.001672

[ moleculetype ]
;name             nrexcl
 MOL                   3

[ atoms ]
;       nr            type      resi   res      atom      cgnr      charge          mass ; qtot
         1            c0bf         1   UNL        c0         1    -0.04231       12.0110 ; qtot   -0.042
         2            c1bf         1   UNL        c1         2    -0.06107       12.0110 ; qtot   -0.103
         3            h2bf         1   UNL        h2         3     0.13936        1.0080 ; qtot    0.036
         4            c3bf         1   UNL        c3         4    -0.14994       12.0110 ; qtot   -0.114
         5            h4bf         1   UNL        h4         5     0.15718        1.0080 ; qtot    0.043
         6            c5bf         1   UNL        c5         6     0.18249       12.0110 ; qtot    0.226
         7            c6bf         1   UNL        c6         7    -0.20467       12.0110 ; qtot    0.021
         8            c7bf         1   UNL        c7         8    -0.05835       12.0110 ; qtot   -0.037
         9            h8bf         1   UNL        h8         9     0.14970        1.0080 ; qtot    0.112
        10            o9bf         1   UNL        o9        10    -0.32527       15.9990 ; qtot   -0.213
        11           c10bf         1   UNL       c10        11     0.16563       12.0110 ; qtot   -0.047
        12           c11bf         1   UNL       c11        12    -0.09875       12.0110 ; qtot   -0.146
        13           h12bf         1   UNL       h12        13     0.09101        1.0080 ; qtot   -0.055
        14           h13bf         1   UNL       h13        14     0.09101        1.0080 ; qtot    0.036
        15           c14bf         1   UNL       c14        15     0.04015       12.0110 ; qtot    0.076
        16           c15bf         1   UNL       c15        16     0.70447       12.0110 ; qtot    0.781
        17           n16bf         1   UNL       n16        17    -0.41729       14.0070 ; qtot    0.363
        18           c17bf         1   UNL       c17        18     0.47248       12.0110 ; qtot    0.836
        19           n18bf         1   UNL       n18        19    -0.37461       14.0070 ; qtot    0.461
        20           h19bf         1   UNL       h19        20     0.35504        1.0080 ; qtot    0.816
        21           c20bf         1   UNL       c20        21    -0.00110       12.0110 ; qtot    0.815
        22           c21bf         1   UNL       c21        22     0.07530       12.0110 ; qtot    0.890
        23           h22bf         1   UNL       h22        23     0.09109        1.0080 ; qtot    0.982
        24           h23bf         1   UNL       h23        24     0.09109        1.0080 ; qtot    1.073
        25           h24bf         1   UNL       h24        25     0.09109        1.0080 ; qtot    1.164
        26           n25bf         1   UNL       n25        26    -0.48596       14.0070 ; qtot    0.678
        27           h26bf         1   UNL       h26        27     0.33929        1.0080 ; qtot    1.017
        28           h27bf         1   UNL       h27        28     0.33929        1.0080 ; qtot    1.356
        29           c28bf         1   UNL       c28        29    -0.12470       12.0110 ; qtot    1.232
        30           h29bf         1   UNL       h29        30     0.15566        1.0080 ; qtot    1.387
        31           c30bf         1   UNL       c30        31     0.05545       12.0110 ; qtot    1.443
        32           c31bf         1   UNL       c31        32    -0.15542       12.0110 ; qtot    1.287
        33           h32bf         1   UNL       h32        33     0.17033        1.0080 ; qtot    1.458
        34           c33bf         1   UNL       c33        34     0.13809       12.0110 ; qtot    1.596
        35           f34bf         1   UNL       f34        35    -0.13921       18.9980 ; qtot    1.457
        36           c35bf         1   UNL       c35        36    -0.15887       12.0110 ; qtot    1.298
        37           h36bf         1   UNL       h36        37     0.15828        1.0080 ; qtot    1.456
        38           o37bf         1   UNL       o37        38    -0.45182       15.9990 ; qtot    1.004
        39           c38bf         1   UNL       c38        39    -0.10337       12.0110 ; qtot    0.901
        40           h39bf         1   UNL       h39        40     0.05101        1.0080 ; qtot    0.952
        41           h40bf         1   UNL       h40        41     0.05101        1.0080 ; qtot    1.003
        42           h41bf         1   UNL       h41        42     0.05101        1.0080 ; qtot    1.054
        43           c42bf         1   UNL       c42        43    -0.10337       12.0110 ; qtot    0.950
        44           h43bf         1   UNL       h43        44     0.05101        1.0080 ; qtot    1.001
        45           h44bf         1   UNL       h44        45     0.05101        1.0080 ; qtot    1.052
        46           h45bf         1   UNL       h45        46     0.05101        1.0080 ; qtot    1.103
        47          cl46bf         1   UNL      cl46        47    -0.10346       35.4530 ; qtot    1.000

[ bonds ]
;       ai        aj funct               r               k
         1         2     1        0.140325   345358.555469    ;  uncertainty r = 0.000046, k = 3.225089
         1         8     1        0.139521   338061.607373    ;  uncertainty r = 0.000103, k = 5.875400
         1        21     1        0.147779   271028.380713    ;  uncertainty r = 0.000060, k = 4.677445
         2         3     1        0.108747   334332.550977    ;  uncertainty r = 0.000025, k = 1.658246
         2         4     1        0.138720   376507.214795    ;  uncertainty r = 0.000065, k = 3.290766
         4         5     1        0.108788   336617.637061    ;  uncertainty r = 0.000017, k = 1.411956
         4         6     1        0.140086   362230.540576    ;  uncertainty r = 0.000052, k = 3.404710
         6         7     1        0.139987   328983.803418    ;  uncertainty r = 0.000163, k = 7.293716
         6        10     1        0.136368   303578.797510    ;  uncertainty r = 0.000194, k = 10.538317
         7         8     1        0.139607   346320.921436    ;  uncertainty r = 0.000123, k = 6.940488
         7        15     1        0.150678   205784.156250    ;  uncertainty r = 0.000110, k = 20.274094
         8         9     1        0.108767   335454.804785    ;  uncertainty r = 0.000067, k = 4.149507
        10        11     1        0.145422   203859.641382    ;  uncertainty r = 0.000221, k = 9.275520
        11        12     1        0.152936   192803.911694    ;  uncertainty r = 0.000262, k = 11.274596
        11        39     1        0.152325   205847.654272    ;  uncertainty r = 0.000037, k = 5.592256
        11        43     1        0.152325   205847.654272    ;  uncertainty r = 0.000037, k = 5.592256
        12        13     1        0.109477   309561.503809    ;  uncertainty r = 0.000048, k = 2.448473
        12        14     1        0.109477   309561.503809    ;  uncertainty r = 0.000048, k = 2.448473
        12        15     1        0.153041   191194.026782    ;  uncertainty r = 0.000126, k = 21.513846
        15        16     1        0.153598   171646.122900    ;  uncertainty r = 0.000173, k = 14.753170
        15        19     1        0.149698   232215.907178    ;  uncertainty r = 0.000407, k = 51.570456
        16        17     1        0.142413   302839.344971    ;  uncertainty r = 0.000236, k = 75.996174
        16        38     1        0.120112   608584.455469    ;  uncertainty r = 0.000161, k = 10.569144
        17        18     1        0.135836   286250.770703    ;  uncertainty r = 0.000260, k = 52.766102
        17        22     1        0.146741   261825.572607    ;  uncertainty r = 0.000154, k = 17.700649
        18        19     1        0.133610   531287.609180    ;  uncertainty r = 0.000191, k = 37.526813
        18        26     1        0.133101   320485.564160    ;  uncertainty r = 0.000146, k = 40.823703
        19        20     1        0.101578   423262.955127    ;  uncertainty r = 0.000083, k = 11.557068
        21        29     1        0.140127   349340.863379    ;  uncertainty r = 0.000042, k = 1.999406
        21        36     1        0.140133   354483.730762    ;  uncertainty r = 0.000078, k = 1.810690
        22        23     1        0.109172   309495.286084    ;  uncertainty r = 0.000053, k = 3.597993
        22        24     1        0.109172   309495.286084    ;  uncertainty r = 0.000053, k = 3.597993
        22        25     1        0.109172   309495.286084    ;  uncertainty r = 0.000053, k = 3.597993
        26        27     1        0.101405   421785.735498    ;  uncertainty r = 0.000064, k = 13.590763
        26        28     1        0.101405   421785.735498    ;  uncertainty r = 0.000064, k = 13.590763
        29        30     1        0.108711   336355.524170    ;  uncertainty r = 0.000027, k = 0.978990
        29        31     1        0.139306   356287.467871    ;  uncertainty r = 0.000034, k = 2.790958
        31        32     1        0.139437   366084.524512    ;  uncertainty r = 0.000009, k = 2.882314
        31        47     1        0.175354   198369.533154    ;  uncertainty r = 0.000042, k = 1.186579
        32        33     1        0.108700   338108.110449    ;  uncertainty r = 0.000004, k = 0.758924
        32        34     1        0.138980   363250.620410    ;  uncertainty r = 0.000041, k = 3.531386
        34        35     1        0.135405   339135.596045    ;  uncertainty r = 0.000030, k = 2.133017
        34        36     1        0.138834   357333.570020    ;  uncertainty r = 0.000036, k = 2.167207
        36        37     1        0.108776   337651.660156    ;  uncertainty r = 0.000028, k = 1.026588
        39        40     1        0.109545   310467.177393    ;  uncertainty r = 0.000018, k = 1.787242
        39        41     1        0.109545   310467.177393    ;  uncertainty r = 0.000018, k = 1.787242
        39        42     1        0.109545   310467.177393    ;  uncertainty r = 0.000018, k = 1.787242
        43        44     1        0.109545   310467.177393    ;  uncertainty r = 0.000018, k = 1.787242
        43        45     1        0.109545   310467.151855    ;  uncertainty r = 0.000018, k = 1.787227
        43        46     1        0.109545   310467.177393    ;  uncertainty r = 0.000018, k = 1.787234

[ angles ]
;       ai        aj        ak funct           theta             cth
         1         2         3     1      118.789528      278.376582    ;  uncertainty theta = 0.001113, k = 0.100722
         1         2         4     1      120.614151      529.166765    ;  uncertainty theta = 0.002843, k = 0.082085
         1         8         7     1      123.308655      507.804654    ;  uncertainty theta = 0.004755, k = 0.241410
         1         8         9     1      118.737465      283.381472    ;  uncertainty theta = 0.002817, k = 0.014386
         1        21        29     1      120.006447      411.849827    ;  uncertainty theta = 0.002350, k = 0.049094
         1        21        36     1      120.136703      413.852926    ;  uncertainty theta = 0.002519, k = 0.046689
         2         1         8     1      119.430565      424.846045    ;  uncertainty theta = 0.003344, k = 0.150521
         2         1        21     1      120.926315      417.482388    ;  uncertainty theta = 0.001356, k = 0.090258
         2         4         5     1      121.420326      280.298154    ;  uncertainty theta = 0.001178, k = 0.034437
         2         4         6     1      119.575096      505.135962    ;  uncertainty theta = 0.002692, k = 0.150532
         3         2         4     1      119.338806      289.601067    ;  uncertainty theta = 0.001318, k = 0.062224
         4         6         7     1      120.988113      370.564749    ;  uncertainty theta = 0.002805, k = 0.132341
         4         6        10     1      118.414932      539.304551    ;  uncertainty theta = 0.003186, k = 0.119404
         5         4         6     1      120.029160      275.838512    ;  uncertainty theta = 0.003388, k = 0.140058
         6         7         8     1      121.646706      436.471335    ;  uncertainty theta = 0.004275, k = 0.120813
         6         7        15     1      120.067566      415.396868    ;  uncertainty theta = 0.008782, k = 0.219694
         6        10        11     1      114.537888      453.333553    ;  uncertainty theta = 0.006687, k = 0.093698
         7         6        10     1      123.896896      494.205441    ;  uncertainty theta = 0.004024, k = 0.262919
         7         8         9     1      117.552780      269.249044    ;  uncertainty theta = 0.003488, k = 0.141356
         7        15        12     1      110.372864      539.933530    ;  uncertainty theta = 0.001408, k = 0.155688
         7        15        16     1      108.946983      466.381260    ;  uncertainty theta = 0.003845, k = 0.382761
         7        15        19     1      110.459412      616.078039    ;  uncertainty theta = 0.004076, k = 0.312915
         8         1        21     1      119.982239      411.253919    ;  uncertainty theta = 0.002284, k = 0.198462
         8         7        15     1      118.179955      406.555665    ;  uncertainty theta = 0.004331, k = 0.175151
        10        11        12     1      109.104774      651.855785    ;  uncertainty theta = 0.004859, k = 0.084503
        10        11        39     1      107.605125      619.338362    ;  uncertainty theta = 0.001081, k = 0.064685
        10        11        43     1      107.605125      619.338362    ;  uncertainty theta = 0.001081, k = 0.064685
        11        12        13     1      107.678444      386.201185    ;  uncertainty theta = 0.003165, k = 0.032000
        11        12        14     1      107.678444      386.201185    ;  uncertainty theta = 0.003165, k = 0.032000
        11        12        15     1      109.859573      530.089421    ;  uncertainty theta = 0.006963, k = 0.198376
        11        39        40     1      107.221069      387.594393    ;  uncertainty theta = 0.001065, k = 0.069193
        11        39        41     1      107.221069      387.594393    ;  uncertainty theta = 0.001065, k = 0.069193
        11        39        42     1      107.221069      387.594393    ;  uncertainty theta = 0.001065, k = 0.069193
        11        43        44     1      107.221069      387.594393    ;  uncertainty theta = 0.001065, k = 0.069193
        11        43        45     1      107.221069      387.594393    ;  uncertainty theta = 0.001065, k = 0.069193
        11        43        46     1      107.221069      387.594393    ;  uncertainty theta = 0.001065, k = 0.069193
        12        11        39     1      109.374954      548.046988    ;  uncertainty theta = 0.004356, k = 0.115347
        12        11        43     1      109.374954      548.046988    ;  uncertainty theta = 0.004356, k = 0.115347
        12        15        16     1      107.815041      449.614456    ;  uncertainty theta = 0.007030, k = 0.162708
        12        15        19     1      109.812546      627.822301    ;  uncertainty theta = 0.007991, k = 0.271564
        13        12        14     1      106.986496      321.844700    ;  uncertainty theta = 0.004263, k = 0.066652
        13        12        15     1      106.651634      397.354709    ;  uncertainty theta = 0.003140, k = 0.080198
        14        12        15     1      106.651634      397.354709    ;  uncertainty theta = 0.003140, k = 0.080198
        15        16        17     1      110.177444      536.173382    ;  uncertainty theta = 0.011689, k = 0.712083
        15        16        38     1      125.836937      424.636737    ;  uncertainty theta = 0.006696, k = 0.210364
        15        19        18     1      111.019447      602.235713    ;  uncertainty theta = 0.016031, k = 0.385577
        15        19        20     1      118.127907      280.649416    ;  uncertainty theta = 0.015278, k = 0.121870
        16        15        19     1      103.837784      815.585174    ;  uncertainty theta = 0.012174, k = 0.852513
        16        17        18     1      110.293701      728.609291    ;  uncertainty theta = 0.010426, k = 0.320486
        16        17        22     1      119.398109      397.513773    ;  uncertainty theta = 0.006832, k = 0.281808
        17        16        38     1      125.307961      629.051912    ;  uncertainty theta = 0.008036, k = 0.165829
        17        18        19     1      113.250023      720.106327    ;  uncertainty theta = 0.006756, k = 0.305315
        17        18        26     1      125.598953      549.524885    ;  uncertainty theta = 0.008546, k = 0.324469
        17        22        23     1      107.360855      470.851946    ;  uncertainty theta = 0.002522, k = 0.203983
        17        22        24     1      107.360855      470.851946    ;  uncertainty theta = 0.002522, k = 0.203983
        17        22        25     1      107.360855      470.851946    ;  uncertainty theta = 0.002522, k = 0.203983
        18        17        22     1      118.646042      371.786540    ;  uncertainty theta = 0.007230, k = 0.373049
        18        19        20     1      119.824707      355.581520    ;  uncertainty theta = 0.006083, k = 0.153034
        18        26        27     1      114.903091      371.138312    ;  uncertainty theta = 0.001582, k = 0.210952
        18        26        28     1      114.903091      371.138312    ;  uncertainty theta = 0.001582, k = 0.210952
        19        18        26     1      128.730377      637.313550    ;  uncertainty theta = 0.008927, k = 0.256741
        21        29        30     1      120.063889      273.331981    ;  uncertainty theta = 0.000980, k = 0.035633
        21        29        31     1      119.344925      510.331551    ;  uncertainty theta = 0.001314, k = 0.087771
        21        36        34     1      118.769577      504.196675    ;  uncertainty theta = 0.002190, k = 0.137952
        21        36        37     1      120.761459      271.118999    ;  uncertainty theta = 0.001181, k = 0.060089
        23        22        24     1      107.634499      325.466948    ;  uncertainty theta = 0.003233, k = 0.098676
        23        22        25     1      107.634499      325.466948    ;  uncertainty theta = 0.003233, k = 0.098676
        24        22        25     1      107.634499      325.466948    ;  uncertainty theta = 0.003233, k = 0.098676
        27        26        28     1      112.323524      263.743259    ;  uncertainty theta = 0.015210, k = 0.362876
        29        21        36     1      121.147888      408.471651    ;  uncertainty theta = 0.001764, k = 0.252462
        29        31        32     1      122.380760      362.286512    ;  uncertainty theta = 0.001352, k = 0.145666
        29        31        47     1      120.218918      441.212108    ;  uncertainty theta = 0.000504, k = 0.108630
        30        29        31     1      120.813881      293.315631    ;  uncertainty theta = 0.001320, k = 0.038440
        31        32        33     1      122.528244      282.102574    ;  uncertainty theta = 0.001923, k = 0.041759
        31        32        34     1      115.953018      480.326373    ;  uncertainty theta = 0.001394, k = 0.138699
        32        31        47     1      119.999100      445.888911    ;  uncertainty theta = 0.001441, k = 0.092212
        32        34        35     1      118.428207      502.527570    ;  uncertainty theta = 0.002085, k = 0.040621
        32        34        36     1      123.636559      358.847908    ;  uncertainty theta = 0.004071, k = 0.210765
        33        32        34     1      121.662209      280.971407    ;  uncertainty theta = 0.002482, k = 0.042650
        34        36        37     1      120.655090      288.499364    ;  uncertainty theta = 0.000939, k = 0.034179
        35        34        36     1      118.754372      506.799673    ;  uncertainty theta = 0.001630, k = 0.045976
        39        11        43     1      110.900230      580.347218    ;  uncertainty theta = 0.002949, k = 0.067890
        40        39        41     1      106.043396      316.610518    ;  uncertainty theta = 0.000878, k = 0.018252
        40        39        42     1      106.043396      316.610518    ;  uncertainty theta = 0.000878, k = 0.018252
        41        39        42     1      106.043396      316.610518    ;  uncertainty theta = 0.000878, k = 0.018252
        44        43        45     1      106.043396      316.610518    ;  uncertainty theta = 0.000878, k = 0.018252
        44        43        46     1      106.043396      316.610518    ;  uncertainty theta = 0.000878, k = 0.018252
        45        43        46     1      106.043396      316.610518    ;  uncertainty theta = 0.000878, k = 0.018252

[ dihedrals ] ; propers for gromacs 4.5 or higher, use funct 9
;       ai        aj        ak        al funct           phase               k        pn
         1         2         4         5     9        0.000000        0.042834         1    ;  uncertainty k = 0.074694
         1         2         4         5     9      180.000000        8.369570         2    ;  uncertainty k = 0.451031
         1         2         4         5     9        0.000000        1.372425         3    ;  uncertainty k = 0.270714
         1         2         4         5     9      180.000000        1.905693         4    ;  uncertainty k = 0.255871
         1         2         4         6     9        0.000000       -0.060093         1    ;  uncertainty k = 0.398655
         1         2         4         6     9      180.000000       14.073830         2    ;  uncertainty k = 0.236882
         1         2         4         6     9        0.000000       -0.301764         3    ;  uncertainty k = 0.399483
         1         2         4         6     9      180.000000        0.948636         4    ;  uncertainty k = 0.218327
         1         8         7         6     9        0.000000       -0.286311         1    ;  uncertainty k = 0.181649
         1         8         7         6     9      180.000000       10.948311         2    ;  uncertainty k = 0.461831
         1         8         7         6     9        0.000000       -0.044962         3    ;  uncertainty k = 0.123531
         1         8         7         6     9      180.000000        1.165024         4    ;  uncertainty k = 0.327156
         1         8         7        15     9        0.000000        0.416488         1    ;  uncertainty k = 0.249330
         1         8         7        15     9      180.000000        8.880597         2    ;  uncertainty k = 0.413511
         1         8         7        15     9        0.000000        1.657597         3    ;  uncertainty k = 0.200333
         1         8         7        15     9      180.000000        1.925058         4    ;  uncertainty k = 0.381353
         1        21        29        30     9        0.000000       -0.168101         1    ;  uncertainty k = 0.263748
         1        21        29        30     9      180.000000        7.203895         2    ;  uncertainty k = 0.407305
         1        21        29        30     9        0.000000        0.850014         3    ;  uncertainty k = 0.168806
         1        21        29        30     9      180.000000        1.157693         4    ;  uncertainty k = 0.199425
         1        21        29        31     9        0.000000       -0.007741         1    ;  uncertainty k = 0.183905
         1        21        29        31     9      180.000000        8.804463         2    ;  uncertainty k = 0.425837
         1        21        29        31     9        0.000000        1.249764         3    ;  uncertainty k = 0.275835
         1        21        29        31     9      180.000000        1.663725         4    ;  uncertainty k = 0.091063
         1        21        36        34     9        0.000000       -0.016537         1    ;  uncertainty k = 0.146730
         1        21        36        34     9      180.000000        8.691441         2    ;  uncertainty k = 0.489406
         1        21        36        34     9        0.000000        1.216341         3    ;  uncertainty k = 0.323904
         1        21        36        34     9      180.000000        1.684789         4    ;  uncertainty k = 0.083164
         1        21        36        37     9        0.000000       -0.212851         1    ;  uncertainty k = 0.297838
         1        21        36        37     9      180.000000        7.077200         2    ;  uncertainty k = 0.410330
         1        21        36        37     9        0.000000        0.830504         3    ;  uncertainty k = 0.182344
         1        21        36        37     9      180.000000        1.117933         4    ;  uncertainty k = 0.223135
         2         1         8         7     9        0.000000        0.177397         1    ;  uncertainty k = 0.497752
         2         1         8         7     9      180.000000       10.678895         2    ;  uncertainty k = 0.388644
         2         1         8         7     9        0.000000       -0.192963         3    ;  uncertainty k = 0.292188
         2         1         8         7     9      180.000000        1.145292         4    ;  uncertainty k = 0.383827
         2         1         8         9     9        0.000000        0.121840         1    ;  uncertainty k = 0.312473
         2         1         8         9     9      180.000000        7.474516         2    ;  uncertainty k = 0.643781
         2         1         8         9     9        0.000000        1.336697         3    ;  uncertainty k = 0.184676
         2         1         8         9     9      180.000000        1.668406         4    ;  uncertainty k = 0.260918
         2         1        21        29     9        0.000000       -0.306951         1    ;  uncertainty k = 0.223271
         2         1        21        29     9      180.000000        4.041179         2    ;  uncertainty k = 0.123700
         2         1        21        29     9        0.000000        0.332281         3    ;  uncertainty k = 0.073700
         2         1        21        29     9      180.000000       -0.020349         4    ;  uncertainty k = 0.046000
         2         1        21        36     9        0.000000       -0.320842         1    ;  uncertainty k = 0.236384
         2         1        21        36     9      180.000000        3.985569         2    ;  uncertainty k = 0.106033
         2         1        21        36     9        0.000000        0.345879         3    ;  uncertainty k = 0.096400
         2         1        21        36     9      180.000000       -0.027270         4    ;  uncertainty k = 0.052463
         2         4         6         7     9        0.000000        0.214863         1    ;  uncertainty k = 0.437118
         2         4         6         7     9      180.000000        7.808154         2    ;  uncertainty k = 0.549355
         2         4         6         7     9        0.000000        0.200021         3    ;  uncertainty k = 0.543484
         2         4         6         7     9      180.000000        1.302184         4    ;  uncertainty k = 0.240864
         2         4         6        10     9        0.000000        0.371444         1    ;  uncertainty k = 0.218852
         2         4         6        10     9      180.000000       11.420675         2    ;  uncertainty k = 0.283685
         2         4         6        10     9        0.000000        1.317991         3    ;  uncertainty k = 0.223096
         2         4         6        10     9      180.000000        1.545231         4    ;  uncertainty k = 0.131504
         3         2         1         8     9        0.000000        0.189902         1    ;  uncertainty k = 0.287260
         3         2         1         8     9      180.000000        6.825584         2    ;  uncertainty k = 0.501030
         3         2         1         8     9        0.000000        1.312068         3    ;  uncertainty k = 0.236755
         3         2         1         8     9      180.000000        1.541592         4    ;  uncertainty k = 0.286955
         3         2         1        21     9        0.000000       -0.242146         1    ;  uncertainty k = 0.327064
         3         2         1        21     9      180.000000        7.238923         2    ;  uncertainty k = 0.355838
         3         2         1        21     9        0.000000        0.810067         3    ;  uncertainty k = 0.164030
         3         2         1        21     9      180.000000        1.151709         4    ;  uncertainty k = 0.188776
         3         2         4         5     9        0.000000        0.025279         1    ;  uncertainty k = 0.361523
         3         2         4         5     9      180.000000        7.978306         2    ;  uncertainty k = 0.296130
         3         2         4         5     9        0.000000       -0.407095         3    ;  uncertainty k = 0.351032
         3         2         4         5     9      180.000000        0.202278         4    ;  uncertainty k = 0.133160
         3         2         4         6     9        0.000000        0.287758         1    ;  uncertainty k = 0.249638
         3         2         4         6     9      180.000000        8.768124         2    ;  uncertainty k = 0.408739
         3         2         4         6     9        0.000000        1.325866         3    ;  uncertainty k = 0.304196
         3         2         4         6     9      180.000000        1.727245         4    ;  uncertainty k = 0.217766
         4         2         1         8     9        0.000000        0.063642         1    ;  uncertainty k = 0.284313
         4         2         1         8     9      180.000000       10.691736         2    ;  uncertainty k = 0.263753
         4         2         1         8     9        0.000000       -0.440059         3    ;  uncertainty k = 0.266227
         4         2         1         8     9      180.000000        1.016890         4    ;  uncertainty k = 0.167481
         4         2         1        21     9        0.000000        0.012937         1    ;  uncertainty k = 0.226360
         4         2         1        21     9      180.000000        8.376329         2    ;  uncertainty k = 0.538430
         4         2         1        21     9        0.000000        1.133258         3    ;  uncertainty k = 0.386885
         4         2         1        21     9      180.000000        1.812834         4    ;  uncertainty k = 0.162446
         4         6         7         8     9        0.000000       -0.024302         1    ;  uncertainty k = 0.185564
         4         6         7         8     9      180.000000        6.939175         2    ;  uncertainty k = 0.467225
         4         6         7         8     9        0.000000        0.361257         3    ;  uncertainty k = 0.294715
         4         6         7         8     9      180.000000        1.357296         4    ;  uncertainty k = 0.258045
         4         6         7        15     9        0.000000        0.348935         1    ;  uncertainty k = 0.173791
         4         6         7        15     9      180.000000        5.007786         2    ;  uncertainty k = 0.411251
         4         6         7        15     9        0.000000        1.468368         3    ;  uncertainty k = 0.261774
         4         6         7        15     9      180.000000        1.669236         4    ;  uncertainty k = 0.209865
         4         6        10        11     9        0.000000       -0.006126         1    ;  uncertainty k = 0.860183
         4         6        10        11     9      180.000000        1.463692         2    ;  uncertainty k = 0.468672
         4         6        10        11     9        0.000000        0.942767         3    ;  uncertainty k = 0.141382
         4         6        10        11     9      180.000000        0.269400         4    ;  uncertainty k = 0.169428
         5         4         6         7     9        0.000000        0.319226         1    ;  uncertainty k = 0.558349
         5         4         6         7     9      180.000000        5.772399         2    ;  uncertainty k = 0.428881
         5         4         6         7     9        0.000000        1.337220         3    ;  uncertainty k = 0.195636
         5         4         6         7     9      180.000000        1.401976         4    ;  uncertainty k = 0.132735
         5         4         6        10     9        0.000000       -0.143362         1    ;  uncertainty k = 0.595170
         5         4         6        10     9      180.000000        8.971333         2    ;  uncertainty k = 0.422660
         5         4         6        10     9        0.000000        0.767158         3    ;  uncertainty k = 0.278987
         5         4         6        10     9      180.000000        1.249859         4    ;  uncertainty k = 0.280971
         6         7         8         9     9        0.000000        0.261142         1    ;  uncertainty k = 0.444638
         6         7         8         9     9      180.000000        7.886567         2    ;  uncertainty k = 0.701412
         6         7         8         9     9        0.000000        1.275188         3    ;  uncertainty k = 0.213636
         6         7         8         9     9      180.000000        1.656070         4    ;  uncertainty k = 0.156100
         6         7        15        12     9        0.000000       -0.553827         1    ;  uncertainty k = 1.466850
         6         7        15        12     9      180.000000        0.634513         2    ;  uncertainty k = 0.585096
         6         7        15        12     9        0.000000        0.297861         3    ;  uncertainty k = 0.330860
         6         7        15        12     9      180.000000        0.274107         4    ;  uncertainty k = 0.208342
         6         7        15        16     9        0.000000        2.102711         1    ;  uncertainty k = 2.528116
         6         7        15        16     9      180.000000        0.546699         2    ;  uncertainty k = 1.018066
         6         7        15        16     9        0.000000        0.457521         3    ;  uncertainty k = 0.289759
         6         7        15        16     9      180.000000        0.336866         4    ;  uncertainty k = 0.183129
         6         7        15        19     9        0.000000       -1.847814         1    ;  uncertainty k = 1.697255
         6         7        15        19     9      180.000000        1.430867         2    ;  uncertainty k = 0.383929
         6         7        15        19     9        0.000000        0.601224         3    ;  uncertainty k = 0.476577
         6         7        15        19     9      180.000000        0.025936         4    ;  uncertainty k = 0.174309
         6        10        11        12     9        0.000000        4.367103         1    ;  uncertainty k = 0.568223
         6        10        11        12     9      180.000000       -1.721484         2    ;  uncertainty k = 1.273232
         6        10        11        12     9        0.000000       -0.456864         3    ;  uncertainty k = 0.472174
         6        10        11        12     9      180.000000        0.328459         4    ;  uncertainty k = 0.236646
         6        10        11        39     9        0.000000       -1.366437         1    ;  uncertainty k = 0.443902
         6        10        11        39     9      180.000000        1.117988         2    ;  uncertainty k = 0.670204
         6        10        11        39     9        0.000000        0.420512         3    ;  uncertainty k = 0.232671
         6        10        11        39     9      180.000000        0.169724         4    ;  uncertainty k = 0.171412
         6        10        11        43     9        0.000000       -1.366437         1    ;  uncertainty k = 0.443902
         6        10        11        43     9      180.000000        1.117988         2    ;  uncertainty k = 0.670204
         6        10        11        43     9        0.000000        0.420512         3    ;  uncertainty k = 0.232671
         6        10        11        43     9      180.000000        0.169724         4    ;  uncertainty k = 0.171412
         7         6        10        11     9        0.000000        4.306085         1    ;  uncertainty k = 1.768454
         7         6        10        11     9      180.000000       -1.360043         2    ;  uncertainty k = 1.430515
         7         6        10        11     9        0.000000       -0.393905         3    ;  uncertainty k = 0.710259
         7         6        10        11     9      180.000000        0.655625         4    ;  uncertainty k = 0.252123
         7         8         1        21     9        0.000000        0.453892         1    ;  uncertainty k = 0.449413
         7         8         1        21     9      180.000000        8.871266         2    ;  uncertainty k = 0.298632
         7         8         1        21     9        0.000000        1.319629         3    ;  uncertainty k = 0.308670
         7         8         1        21     9      180.000000        1.676277         4    ;  uncertainty k = 0.111306
         7        15        12        11     9        0.000000        1.962873         1    ;  uncertainty k = 1.227301
         7        15        12        11     9      180.000000       -1.078194         2    ;  uncertainty k = 0.502447
         7        15        12        11     9        0.000000        0.369332         3    ;  uncertainty k = 0.176636
         7        15        12        11     9      180.000000       -0.278407         4    ;  uncertainty k = 0.249392
         7        15        12        13     9        0.000000       -0.179115         1    ;  uncertainty k = 0.140621
         7        15        12        13     9      180.000000        0.089626         2    ;  uncertainty k = 0.458905
         7        15        12        13     9        0.000000        0.456477         3    ;  uncertainty k = 0.237033
         7        15        12        13     9      180.000000       -0.095026         4    ;  uncertainty k = 0.141404
         7        15        12        14     9        0.000000       -0.179115         1    ;  uncertainty k = 0.140621
         7        15        12        14     9      180.000000        0.089626         2    ;  uncertainty k = 0.458905
         7        15        12        14     9        0.000000        0.456477         3    ;  uncertainty k = 0.237033
         7        15        12        14     9      180.000000       -0.095026         4    ;  uncertainty k = 0.141404
         7        15        16        17     9        0.000000       -2.280414         1    ;  uncertainty k = 2.717069
         7        15        16        17     9      180.000000        2.456410         2    ;  uncertainty k = 1.222701
         7        15        16        17     9        0.000000        1.453247         3    ;  uncertainty k = 0.188385
         7        15        16        17     9      180.000000        0.681716         4    ;  uncertainty k = 0.441731
         7        15        16        38     9        0.000000       -0.746001         1    ;  uncertainty k = 2.339485
         7        15        16        38     9      180.000000        3.144072         2    ;  uncertainty k = 0.500306
         7        15        16        38     9        0.000000        0.221997         3    ;  uncertainty k = 0.280086
         7        15        16        38     9      180.000000        0.150864         4    ;  uncertainty k = 0.276471
         7        15        19        18     9        0.000000        0.863485         1    ;  uncertainty k = 1.247541
         7        15        19        18     9      180.000000        0.544771         2    ;  uncertainty k = 0.542404
         7        15        19        18     9        0.000000        0.864493         3    ;  uncertainty k = 0.370882
         7        15        19        18     9      180.000000        0.387104         4    ;  uncertainty k = 0.143944
         7        15        19        20     9        0.000000        0.953248         1    ;  uncertainty k = 2.750545
         7        15        19        20     9      180.000000       -1.060847         2    ;  uncertainty k = 1.247199
         7        15        19        20     9        0.000000        0.527755         3    ;  uncertainty k = 0.498974
         7        15        19        20     9      180.000000       -0.043717         4    ;  uncertainty k = 0.110691
         8         1        21        29     9        0.000000       -0.294047         1    ;  uncertainty k = 0.244913
         8         1        21        29     9      180.000000        4.262022         2    ;  uncertainty k = 0.242781
         8         1        21        29     9        0.000000        0.284053         3    ;  uncertainty k = 0.163861
         8         1        21        29     9      180.000000        0.064269         4    ;  uncertainty k = 0.092591
         8         1        21        36     9        0.000000       -0.299034         1    ;  uncertainty k = 0.301262
         8         1        21        36     9      180.000000        4.212714         2    ;  uncertainty k = 0.235608
         8         1        21        36     9        0.000000        0.287055         3    ;  uncertainty k = 0.167480
         8         1        21        36     9      180.000000        0.050066         4    ;  uncertainty k = 0.075234
         8         7         6        10     9        0.000000        0.502288         1    ;  uncertainty k = 0.334285
         8         7         6        10     9      180.000000        8.131837         2    ;  uncertainty k = 0.246810
         8         7         6        10     9        0.000000        1.516209         3    ;  uncertainty k = 0.284264
         8         7         6        10     9      180.000000        1.564323         4    ;  uncertainty k = 0.188848
         8         7        15        12     9        0.000000       -0.691333         1    ;  uncertainty k = 1.137398
         8         7        15        12     9      180.000000        0.985400         2    ;  uncertainty k = 0.405711
         8         7        15        12     9        0.000000       -0.289961         3    ;  uncertainty k = 0.374786
         8         7        15        12     9      180.000000        0.164090         4    ;  uncertainty k = 0.189301
         8         7        15        16     9        0.000000        0.853117         1    ;  uncertainty k = 1.974013
         8         7        15        16     9      180.000000        0.166248         2    ;  uncertainty k = 0.609933
         8         7        15        16     9        0.000000        0.128488         3    ;  uncertainty k = 0.275120
         8         7        15        16     9      180.000000        0.312202         4    ;  uncertainty k = 0.133232
         8         7        15        19     9        0.000000       -0.405631         1    ;  uncertainty k = 0.831937
         8         7        15        19     9      180.000000        1.964315         2    ;  uncertainty k = 0.372178
         8         7        15        19     9        0.000000       -0.051018         3    ;  uncertainty k = 0.360156
         8         7        15        19     9      180.000000        0.092103         4    ;  uncertainty k = 0.251996
         9         8         1        21     9        0.000000       -0.102467         1    ;  uncertainty k = 0.173826
         9         8         1        21     9      180.000000        7.543875         2    ;  uncertainty k = 0.302314
         9         8         1        21     9        0.000000        0.869051         3    ;  uncertainty k = 0.163548
         9         8         1        21     9      180.000000        1.295893         4    ;  uncertainty k = 0.133735
         9         8         7        15     9        0.000000       -0.372295         1    ;  uncertainty k = 0.437955
         9         8         7        15     9      180.000000        6.783379         2    ;  uncertainty k = 0.317440
         9         8         7        15     9        0.000000        0.965065         3    ;  uncertainty k = 0.301999
         9         8         7        15     9      180.000000        1.269073         4    ;  uncertainty k = 0.233090
        10         6         7        15     9        0.000000        0.498340         1    ;  uncertainty k = 0.988077
        10         6         7        15     9      180.000000        5.670085         2    ;  uncertainty k = 0.712561
        10         6         7        15     9        0.000000        1.748936         3    ;  uncertainty k = 0.456836
        10         6         7        15     9      180.000000        1.062497         4    ;  uncertainty k = 0.416588
        10        11        12        13     9        0.000000       -1.286357         1    ;  uncertainty k = 0.418982
        10        11        12        13     9      180.000000       -0.843338         2    ;  uncertainty k = 0.564486
        10        11        12        13     9        0.000000        0.398057         3    ;  uncertainty k = 0.233267
        10        11        12        13     9      180.000000       -0.189590         4    ;  uncertainty k = 0.165011
        10        11        12        14     9        0.000000       -1.286357         1    ;  uncertainty k = 0.418982
        10        11        12        14     9      180.000000       -0.843338         2    ;  uncertainty k = 0.564486
        10        11        12        14     9        0.000000        0.398057         3    ;  uncertainty k = 0.233267
        10        11        12        14     9      180.000000       -0.189590         4    ;  uncertainty k = 0.165011
        10        11        12        15     9        0.000000        7.476955         1    ;  uncertainty k = 0.712372
        10        11        12        15     9      180.000000       -4.264126         2    ;  uncertainty k = 1.996417
        10        11        12        15     9        0.000000       -0.268865         3    ;  uncertainty k = 0.560592
        10        11        12        15     9      180.000000       -0.018620         4    ;  uncertainty k = 0.403705
        10        11        39        40     9        0.000000       -0.556685         1    ;  uncertainty k = 0.641512
        10        11        39        40     9      180.000000       -2.127823         2    ;  uncertainty k = 0.599046
        10        11        39        40     9        0.000000        0.863808         3    ;  uncertainty k = 0.110663
        10        11        39        40     9      180.000000       -0.195070         4    ;  uncertainty k = 0.150407
        10        11        39        41     9        0.000000       -0.556685         1    ;  uncertainty k = 0.641512
        10        11        39        41     9      180.000000       -2.127823         2    ;  uncertainty k = 0.599046
        10        11        39        41     9        0.000000        0.863808         3    ;  uncertainty k = 0.110663
        10        11        39        41     9      180.000000       -0.195070         4    ;  uncertainty k = 0.150407
        10        11        39        42     9        0.000000       -0.556685         1    ;  uncertainty k = 0.641512
        10        11        39        42     9      180.000000       -2.127823         2    ;  uncertainty k = 0.599046
        10        11        39        42     9        0.000000        0.863808         3    ;  uncertainty k = 0.110663
        10        11        39        42     9      180.000000       -0.195070         4    ;  uncertainty k = 0.150407
        10        11        43        44     9        0.000000       -0.556685         1    ;  uncertainty k = 0.641512
        10        11        43        44     9      180.000000       -2.127823         2    ;  uncertainty k = 0.599046
        10        11        43        44     9        0.000000        0.863808         3    ;  uncertainty k = 0.110663
        10        11        43        44     9      180.000000       -0.195070         4    ;  uncertainty k = 0.150407
        10        11        43        45     9        0.000000       -0.556685         1    ;  uncertainty k = 0.641512
        10        11        43        45     9      180.000000       -2.127823         2    ;  uncertainty k = 0.599046
        10        11        43        45     9        0.000000        0.863808         3    ;  uncertainty k = 0.110663
        10        11        43        45     9      180.000000       -0.195070         4    ;  uncertainty k = 0.150407
        10        11        43        46     9        0.000000       -0.556685         1    ;  uncertainty k = 0.641512
        10        11        43        46     9      180.000000       -2.127823         2    ;  uncertainty k = 0.599046
        10        11        43        46     9        0.000000        0.863808         3    ;  uncertainty k = 0.110663
        10        11        43        46     9      180.000000       -0.195070         4    ;  uncertainty k = 0.150407
        11        12        15        16     9        0.000000       -1.228978         1    ;  uncertainty k = 1.347491
        11        12        15        16     9      180.000000       -0.515847         2    ;  uncertainty k = 0.500826
        11        12        15        16     9        0.000000        0.433214         3    ;  uncertainty k = 0.247206
        11        12        15        16     9      180.000000       -0.080465         4    ;  uncertainty k = 0.226810
        11        12        15        19     9        0.000000       -2.978697         1    ;  uncertainty k = 1.009148
        11        12        15        19     9      180.000000       -1.349811         2    ;  uncertainty k = 1.012802
        11        12        15        19     9        0.000000        1.198772         3    ;  uncertainty k = 0.505781
        11        12        15        19     9      180.000000        0.002053         4    ;  uncertainty k = 0.225805
        12        11        39        40     9        0.000000       -0.810618         1    ;  uncertainty k = 0.476463
        12        11        39        40     9      180.000000       -0.740441         2    ;  uncertainty k = 0.208398
        12        11        39        40     9        0.000000        0.585176         3    ;  uncertainty k = 0.093112
        12        11        39        40     9      180.000000       -0.179618         4    ;  uncertainty k = 0.029902
        12        11        39        41     9        0.000000       -0.810618         1    ;  uncertainty k = 0.476463
        12        11        39        41     9      180.000000       -0.740441         2    ;  uncertainty k = 0.208398
        12        11        39        41     9        0.000000        0.585176         3    ;  uncertainty k = 0.093112
        12        11        39        41     9      180.000000       -0.179618         4    ;  uncertainty k = 0.029902
        12        11        39        42     9        0.000000       -0.810618         1    ;  uncertainty k = 0.476463
        12        11        39        42     9      180.000000       -0.740441         2    ;  uncertainty k = 0.208398
        12        11        39        42     9        0.000000        0.585176         3    ;  uncertainty k = 0.093112
        12        11        39        42     9      180.000000       -0.179618         4    ;  uncertainty k = 0.029902
        12        11        43        44     9        0.000000       -0.810618         1    ;  uncertainty k = 0.476463
        12        11        43        44     9      180.000000       -0.740441         2    ;  uncertainty k = 0.208398
        12        11        43        44     9        0.000000        0.585176         3    ;  uncertainty k = 0.093112
        12        11        43        44     9      180.000000       -0.179618         4    ;  uncertainty k = 0.029902
        12        11        43        45     9        0.000000       -0.810618         1    ;  uncertainty k = 0.476463
        12        11        43        45     9      180.000000       -0.740441         2    ;  uncertainty k = 0.208398
        12        11        43        45     9        0.000000        0.585176         3    ;  uncertainty k = 0.093112
        12        11        43        45     9      180.000000       -0.179618         4    ;  uncertainty k = 0.029902
        12        11        43        46     9        0.000000       -0.810618         1    ;  uncertainty k = 0.476463
        12        11        43        46     9      180.000000       -0.740441         2    ;  uncertainty k = 0.208398
        12        11        43        46     9        0.000000        0.585176         3    ;  uncertainty k = 0.093112
        12        11        43        46     9      180.000000       -0.179618         4    ;  uncertainty k = 0.029902
        12        15        16        17     9        0.000000       -3.062352         1    ;  uncertainty k = 1.276839
        12        15        16        17     9      180.000000        2.894127         2    ;  uncertainty k = 0.258588
        12        15        16        17     9        0.000000        0.860445         3    ;  uncertainty k = 0.091746
        12        15        16        17     9      180.000000        0.587117         4    ;  uncertainty k = 0.338989
        12        15        16        38     9        0.000000       -0.574292         1    ;  uncertainty k = 2.046094
        12        15        16        38     9      180.000000        3.928919         2    ;  uncertainty k = 1.075276
        12        15        16        38     9        0.000000        0.161227         3    ;  uncertainty k = 0.381109
        12        15        16        38     9      180.000000        0.057219         4    ;  uncertainty k = 0.338212
        12        15        19        18     9        0.000000       -0.720185         1    ;  uncertainty k = 0.363424
        12        15        19        18     9      180.000000        1.466373         2    ;  uncertainty k = 0.671881
        12        15        19        18     9        0.000000        0.362475         3    ;  uncertainty k = 0.242092
        12        15        19        18     9      180.000000        0.276221         4    ;  uncertainty k = 0.143829
        12        15        19        20     9        0.000000        1.014477         1    ;  uncertainty k = 3.207549
        12        15        19        20     9      180.000000       -0.447187         2    ;  uncertainty k = 0.880594
        12        15        19        20     9        0.000000        0.406773         3    ;  uncertainty k = 0.479851
        12        15        19        20     9      180.000000        0.075628         4    ;  uncertainty k = 0.078933
        13        12        11        39     9        0.000000       -0.868529         1    ;  uncertainty k = 0.359708
        13        12        11        39     9      180.000000        0.339049         2    ;  uncertainty k = 0.271426
        13        12        11        39     9        0.000000        0.030221         3    ;  uncertainty k = 0.169820
        13        12        11        39     9      180.000000       -0.198172         4    ;  uncertainty k = 0.102797
        13        12        11        43     9        0.000000       -0.868529         1    ;  uncertainty k = 0.359708
        13        12        11        43     9      180.000000        0.339049         2    ;  uncertainty k = 0.271426
        13        12        11        43     9        0.000000        0.030221         3    ;  uncertainty k = 0.169820
        13        12        11        43     9      180.000000       -0.198172         4    ;  uncertainty k = 0.102797
        13        12        15        16     9        0.000000        0.636692         1    ;  uncertainty k = 0.443881
        13        12        15        16     9      180.000000       -1.082831         2    ;  uncertainty k = 0.432291
        13        12        15        16     9        0.000000        0.083911         3    ;  uncertainty k = 0.203429
        13        12        15        16     9      180.000000       -0.053905         4    ;  uncertainty k = 0.095175
        13        12        15        19     9        0.000000       -1.014378         1    ;  uncertainty k = 0.666770
        13        12        15        19     9      180.000000       -0.206347         2    ;  uncertainty k = 0.431023
        13        12        15        19     9        0.000000        0.529827         3    ;  uncertainty k = 0.228576
        13        12        15        19     9      180.000000       -0.286824         4    ;  uncertainty k = 0.129461
        14        12        11        39     9        0.000000       -0.868529         1    ;  uncertainty k = 0.359708
        14        12        11        39     9      180.000000        0.339049         2    ;  uncertainty k = 0.271426
        14        12        11        39     9        0.000000        0.030221         3    ;  uncertainty k = 0.169820
        14        12        11        39     9      180.000000       -0.198172         4    ;  uncertainty k = 0.102797
        14        12        11        43     9        0.000000       -0.868529         1    ;  uncertainty k = 0.359708
        14        12        11        43     9      180.000000        0.339049         2    ;  uncertainty k = 0.271426
        14        12        11        43     9        0.000000        0.030221         3    ;  uncertainty k = 0.169820
        14        12        11        43     9      180.000000       -0.198172         4    ;  uncertainty k = 0.102797
        14        12        15        16     9        0.000000        0.636692         1    ;  uncertainty k = 0.443881
        14        12        15        16     9      180.000000       -1.082831         2    ;  uncertainty k = 0.432291
        14        12        15        16     9        0.000000        0.083911         3    ;  uncertainty k = 0.203429
        14        12        15        16     9      180.000000       -0.053905         4    ;  uncertainty k = 0.095175
        14        12        15        19     9        0.000000       -1.014378         1    ;  uncertainty k = 0.666770
        14        12        15        19     9      180.000000       -0.206347         2    ;  uncertainty k = 0.431023
        14        12        15        19     9        0.000000        0.529827         3    ;  uncertainty k = 0.228576
        14        12        15        19     9      180.000000       -0.286824         4    ;  uncertainty k = 0.129461
        15        12        11        39     9        0.000000       -0.394043         1    ;  uncertainty k = 0.952250
        15        12        11        39     9      180.000000       -0.298782         2    ;  uncertainty k = 0.210060
        15        12        11        39     9        0.000000        0.102279         3    ;  uncertainty k = 0.252570
        15        12        11        39     9      180.000000       -0.158350         4    ;  uncertainty k = 0.062640
        15        12        11        43     9        0.000000       -0.394043         1    ;  uncertainty k = 0.952250
        15        12        11        43     9      180.000000       -0.298782         2    ;  uncertainty k = 0.210060
        15        12        11        43     9        0.000000        0.102279         3    ;  uncertainty k = 0.252570
        15        12        11        43     9      180.000000       -0.158350         4    ;  uncertainty k = 0.062640
        15        16        17        18     9        0.000000        3.190561         1    ;  uncertainty k = 2.129280
        15        16        17        18     9      180.000000        4.165517         2    ;  uncertainty k = 2.103257
        15        16        17        18     9        0.000000       -0.163634         3    ;  uncertainty k = 0.825879
        15        16        17        18     9      180.000000        0.629686         4    ;  uncertainty k = 0.355315
        15        16        17        22     9        0.000000        4.948397         1    ;  uncertainty k = 2.742747
        15        16        17        22     9      180.000000        3.665594         2    ;  uncertainty k = 2.655463
        15        16        17        22     9        0.000000        1.132039         3    ;  uncertainty k = 0.860258
        15        16        17        22     9      180.000000        0.328976         4    ;  uncertainty k = 0.593115
        15        19        18        17     9        0.000000        1.152349         1    ;  uncertainty k = 2.624977
        15        19        18        17     9      180.000000       15.352878         2    ;  uncertainty k = 0.482589
        15        19        18        17     9        0.000000       -0.706328         3    ;  uncertainty k = 1.011989
        15        19        18        17     9      180.000000       -0.606107         4    ;  uncertainty k = 0.206718
        15        19        18        26     9        0.000000        3.692759         1    ;  uncertainty k = 0.866356
        15        19        18        26     9      180.000000       11.333780         2    ;  uncertainty k = 0.611404
        15        19        18        26     9        0.000000        0.314850         3    ;  uncertainty k = 0.239643
        15        19        18        26     9      180.000000       -0.482788         4    ;  uncertainty k = 0.513934
        16        15        19        18     9        0.000000        1.075899         1    ;  uncertainty k = 0.686753
        16        15        19        18     9      180.000000        2.337056         2    ;  uncertainty k = 0.668402
        16        15        19        18     9        0.000000        0.174345         3    ;  uncertainty k = 0.624028
        16        15        19        18     9      180.000000        0.491041         4    ;  uncertainty k = 0.337525
        16        15        19        20     9        0.000000        1.870130         1    ;  uncertainty k = 2.124003
        16        15        19        20     9      180.000000       -0.788361         2    ;  uncertainty k = 0.765206
        16        15        19        20     9        0.000000        0.063928         3    ;  uncertainty k = 0.474210
        16        15        19        20     9      180.000000        0.018852         4    ;  uncertainty k = 0.243518
        16        17        18        19     9        0.000000       -0.598871         1    ;  uncertainty k = 1.517512
        16        17        18        19     9      180.000000        9.023777         2    ;  uncertainty k = 0.890262
        16        17        18        19     9        0.000000       -1.321226         3    ;  uncertainty k = 1.261849
        16        17        18        19     9      180.000000       -0.043685         4    ;  uncertainty k = 0.510427
        16        17        18        26     9        0.000000       -0.742539         1    ;  uncertainty k = 0.884320
        16        17        18        26     9      180.000000        6.821150         2    ;  uncertainty k = 1.300514
        16        17        18        26     9        0.000000        0.216631         3    ;  uncertainty k = 0.558836
        16        17        18        26     9      180.000000       -0.098970         4    ;  uncertainty k = 0.493923
        16        17        22        23     9        0.000000        0.297431         1    ;  uncertainty k = 0.338022
        16        17        22        23     9      180.000000        0.087168         2    ;  uncertainty k = 0.381934
        16        17        22        23     9        0.000000        0.347193         3    ;  uncertainty k = 0.232215
        16        17        22        23     9      180.000000        0.291096         4    ;  uncertainty k = 0.074538
        16        17        22        24     9        0.000000        0.297431         1    ;  uncertainty k = 0.338022
        16        17        22        24     9      180.000000        0.087168         2    ;  uncertainty k = 0.381934
        16        17        22        24     9        0.000000        0.347193         3    ;  uncertainty k = 0.232215
        16        17        22        24     9      180.000000        0.291096         4    ;  uncertainty k = 0.074538
        16        17        22        25     9        0.000000        0.297431         1    ;  uncertainty k = 0.338022
        16        17        22        25     9      180.000000        0.087168         2    ;  uncertainty k = 0.381934
        16        17        22        25     9        0.000000        0.347193         3    ;  uncertainty k = 0.232215
        16        17        22        25     9      180.000000        0.291096         4    ;  uncertainty k = 0.074538
        17        16        15        19     9        0.000000       -0.734672         1    ;  uncertainty k = 2.407400
        17        16        15        19     9      180.000000        6.965369         2    ;  uncertainty k = 1.234531
        17        16        15        19     9        0.000000        0.624658         3    ;  uncertainty k = 0.577006
        17        16        15        19     9      180.000000        0.290059         4    ;  uncertainty k = 0.846479
        17        18        19        20     9        0.000000        4.051322         1    ;  uncertainty k = 3.391115
        17        18        19        20     9      180.000000       10.697180         2    ;  uncertainty k = 0.526601
        17        18        19        20     9        0.000000        1.093668         3    ;  uncertainty k = 0.752546
        17        18        19        20     9      180.000000       -0.389374         4    ;  uncertainty k = 0.265720
        17        18        26        27     9        0.000000        8.080941         1    ;  uncertainty k = 2.061712
        17        18        26        27     9      180.000000        9.353073         2    ;  uncertainty k = 0.455751
        17        18        26        27     9        0.000000        0.960301         3    ;  uncertainty k = 0.478476
        17        18        26        27     9      180.000000       -0.922267         4    ;  uncertainty k = 0.215681
        17        18        26        28     9        0.000000        8.080941         1    ;  uncertainty k = 2.061712
        17        18        26        28     9      180.000000        9.353073         2    ;  uncertainty k = 0.455751
        17        18        26        28     9        0.000000        0.960301         3    ;  uncertainty k = 0.478476
        17        18        26        28     9      180.000000       -0.922267         4    ;  uncertainty k = 0.215681
        18        17        16        38     9        0.000000       -0.225774         1    ;  uncertainty k = 3.237560
        18        17        16        38     9      180.000000        7.660703         2    ;  uncertainty k = 0.931236
        18        17        16        38     9        0.000000        0.373526         3    ;  uncertainty k = 0.816132
        18        17        16        38     9      180.000000        0.053274         4    ;  uncertainty k = 0.298389
        18        17        22        23     9        0.000000       -0.260671         1    ;  uncertainty k = 0.510831
        18        17        22        23     9      180.000000       -1.123799         2    ;  uncertainty k = 0.505443
        18        17        22        23     9        0.000000        0.381297         3    ;  uncertainty k = 0.163929
        18        17        22        23     9      180.000000        0.194836         4    ;  uncertainty k = 0.041789
        18        17        22        24     9        0.000000       -0.260671         1    ;  uncertainty k = 0.510831
        18        17        22        24     9      180.000000       -1.123799         2    ;  uncertainty k = 0.505443
        18        17        22        24     9        0.000000        0.381297         3    ;  uncertainty k = 0.163929
        18        17        22        24     9      180.000000        0.194836         4    ;  uncertainty k = 0.041789
        18        17        22        25     9        0.000000       -0.260671         1    ;  uncertainty k = 0.510831
        18        17        22        25     9      180.000000       -1.123799         2    ;  uncertainty k = 0.505443
        18        17        22        25     9        0.000000        0.381297         3    ;  uncertainty k = 0.163929
        18        17        22        25     9      180.000000        0.194836         4    ;  uncertainty k = 0.041789
        19        15        16        38     9        0.000000        0.024534         1    ;  uncertainty k = 2.213974
        19        15        16        38     9      180.000000        4.149250         2    ;  uncertainty k = 1.312392
        19        15        16        38     9        0.000000        0.407424         3    ;  uncertainty k = 0.206510
        19        15        16        38     9      180.000000        0.443240         4    ;  uncertainty k = 0.158688
        19        18        17        22     9        0.000000       -0.380136         1    ;  uncertainty k = 2.913081
        19        18        17        22     9      180.000000        8.267784         2    ;  uncertainty k = 0.403615
        19        18        17        22     9        0.000000        0.435757         3    ;  uncertainty k = 0.320054
        19        18        17        22     9      180.000000       -0.156996         4    ;  uncertainty k = 0.291188
        19        18        26        27     9        0.000000        6.366443         1    ;  uncertainty k = 1.644722
        19        18        26        27     9      180.000000       10.049531         2    ;  uncertainty k = 0.349760
        19        18        26        27     9        0.000000        1.357511         3    ;  uncertainty k = 0.507490
        19        18        26        27     9      180.000000       -0.656591         4    ;  uncertainty k = 0.287459
        19        18        26        28     9        0.000000        6.366443         1    ;  uncertainty k = 1.644722
        19        18        26        28     9      180.000000       10.049531         2    ;  uncertainty k = 0.349760
        19        18        26        28     9        0.000000        1.357511         3    ;  uncertainty k = 0.507490
        19        18        26        28     9      180.000000       -0.656591         4    ;  uncertainty k = 0.287459
        20        19        18        26     9        0.000000        1.886192         1    ;  uncertainty k = 2.633103
        20        19        18        26     9      180.000000        7.784175         2    ;  uncertainty k = 1.209625
        20        19        18        26     9        0.000000        0.956054         3    ;  uncertainty k = 0.197633
        20        19        18        26     9      180.000000       -0.247909         4    ;  uncertainty k = 0.316191
        21        29        31        32     9        0.000000       -0.019471         1    ;  uncertainty k = 0.264102
        21        29        31        32     9      180.000000       10.058556         2    ;  uncertainty k = 0.445139
        21        29        31        32     9        0.000000       -0.068053         3    ;  uncertainty k = 0.381362
        21        29        31        32     9      180.000000        1.171397         4    ;  uncertainty k = 0.317497
        21        29        31        47     9        0.000000       -0.027132         1    ;  uncertainty k = 0.108945
        21        29        31        47     9      180.000000        9.456792         2    ;  uncertainty k = 0.531917
        21        29        31        47     9        0.000000        1.368941         3    ;  uncertainty k = 0.396948
        21        29        31        47     9      180.000000        1.678984         4    ;  uncertainty k = 0.081340
        21        36        34        32     9        0.000000        0.047225         1    ;  uncertainty k = 0.249418
        21        36        34        32     9      180.000000        9.059073         2    ;  uncertainty k = 0.621401
        21        36        34        32     9        0.000000        0.000083         3    ;  uncertainty k = 0.321150
        21        36        34        32     9      180.000000        1.216419         4    ;  uncertainty k = 0.324669
        21        36        34        35     9        0.000000       -0.071654         1    ;  uncertainty k = 0.112459
        21        36        34        35     9      180.000000       12.698525         2    ;  uncertainty k = 0.489719
        21        36        34        35     9        0.000000        1.482684         3    ;  uncertainty k = 0.313256
        21        36        34        35     9      180.000000        1.481881         4    ;  uncertainty k = 0.186205
        22        17        16        38     9        0.000000       -0.743118         1    ;  uncertainty k = 3.324160
        22        17        16        38     9      180.000000        8.127734         2    ;  uncertainty k = 0.445128
        22        17        16        38     9        0.000000        0.693460         3    ;  uncertainty k = 0.571372
        22        17        16        38     9      180.000000        0.151177         4    ;  uncertainty k = 0.263311
        22        17        18        26     9        0.000000       -0.067505         1    ;  uncertainty k = 0.784520
        22        17        18        26     9      180.000000        6.890792         2    ;  uncertainty k = 0.817474
        22        17        18        26     9        0.000000        0.975121         3    ;  uncertainty k = 0.584566
        22        17        18        26     9      180.000000       -0.011356         4    ;  uncertainty k = 0.268200
        29        21        36        34     9        0.000000        0.014726         1    ;  uncertainty k = 0.181885
        29        21        36        34     9      180.000000       11.213450         2    ;  uncertainty k = 0.320479
        29        21        36        34     9        0.000000       -0.335513         3    ;  uncertainty k = 0.404100
        29        21        36        34     9      180.000000        0.986061         4    ;  uncertainty k = 0.298209
        29        21        36        37     9        0.000000        0.223601         1    ;  uncertainty k = 0.131806
        29        21        36        37     9      180.000000        6.895360         2    ;  uncertainty k = 0.561585
        29        21        36        37     9        0.000000        1.515250         3    ;  uncertainty k = 0.259888
        29        21        36        37     9      180.000000        1.624749         4    ;  uncertainty k = 0.227710
        29        31        32        33     9        0.000000        0.102884         1    ;  uncertainty k = 0.138492
        29        31        32        33     9      180.000000        6.162984         2    ;  uncertainty k = 0.603690
        29        31        32        33     9        0.000000        1.397260         3    ;  uncertainty k = 0.352901
        29        31        32        33     9      180.000000        1.494882         4    ;  uncertainty k = 0.147323
        29        31        32        34     9        0.000000       -0.047422         1    ;  uncertainty k = 0.118147
        29        31        32        34     9      180.000000        9.864375         2    ;  uncertainty k = 0.372324
        29        31        32        34     9        0.000000       -0.179843         3    ;  uncertainty k = 0.537736
        29        31        32        34     9      180.000000        1.162257         4    ;  uncertainty k = 0.311293
        30        29        21        36     9        0.000000        0.164162         1    ;  uncertainty k = 0.232333
        30        29        21        36     9      180.000000        7.059418         2    ;  uncertainty k = 0.575213
        30        29        21        36     9        0.000000        1.495720         3    ;  uncertainty k = 0.236501
        30        29        21        36     9      180.000000        1.652894         4    ;  uncertainty k = 0.236045
        30        29        31        32     9        0.000000       -0.065192         1    ;  uncertainty k = 0.292582
        30        29        31        32     9      180.000000        6.450822         2    ;  uncertainty k = 0.614343
        30        29        31        32     9        0.000000        1.422761         3    ;  uncertainty k = 0.358657
        30        29        31        32     9      180.000000        1.627161         4    ;  uncertainty k = 0.148238
        30        29        31        47     9        0.000000       -0.311442         1    ;  uncertainty k = 0.312536
        30        29        31        47     9      180.000000        7.533556         2    ;  uncertainty k = 0.283552
        30        29        31        47     9        0.000000        0.596962         3    ;  uncertainty k = 0.300997
        30        29        31        47     9      180.000000        1.003178         4    ;  uncertainty k = 0.194965
        31        29        21        36     9        0.000000        0.026009         1    ;  uncertainty k = 0.199800
        31        29        21        36     9      180.000000       11.581806         2    ;  uncertainty k = 0.368161
        31        29        21        36     9        0.000000       -0.371164         3    ;  uncertainty k = 0.443265
        31        29        21        36     9      180.000000        0.925348         4    ;  uncertainty k = 0.287406
        31        32        34        35     9        0.000000       -0.085202         1    ;  uncertainty k = 0.252771
        31        32        34        35     9      180.000000       13.120091         2    ;  uncertainty k = 0.663761
        31        32        34        35     9        0.000000        1.491947         3    ;  uncertainty k = 0.183909
        31        32        34        35     9      180.000000        1.455672         4    ;  uncertainty k = 0.278862
        31        32        34        36     9        0.000000        0.080390         1    ;  uncertainty k = 0.224975
        31        32        34        36     9      180.000000        9.265097         2    ;  uncertainty k = 0.564916
        31        32        34        36     9        0.000000       -0.198830         3    ;  uncertainty k = 0.511237
        31        32        34        36     9      180.000000        1.194614         4    ;  uncertainty k = 0.252037
        32        34        36        37     9        0.000000        0.006398         1    ;  uncertainty k = 0.139609
        32        34        36        37     9      180.000000        5.807783         2    ;  uncertainty k = 0.656230
        32        34        36        37     9        0.000000        1.325371         3    ;  uncertainty k = 0.310176
        32        34        36        37     9      180.000000        1.598564         4    ;  uncertainty k = 0.139530
        33        32        31        47     9        0.000000       -0.156895         1    ;  uncertainty k = 0.136868
        33        32        31        47     9      180.000000        7.203872         2    ;  uncertainty k = 0.298462
        33        32        31        47     9        0.000000        0.578024         3    ;  uncertainty k = 0.404933
        33        32        31        47     9      180.000000        0.946695         4    ;  uncertainty k = 0.175631
        33        32        34        35     9        0.000000       -0.318592         1    ;  uncertainty k = 0.194102
        33        32        34        35     9      180.000000        8.739806         2    ;  uncertainty k = 0.348469
        33        32        34        35     9        0.000000        0.779172         3    ;  uncertainty k = 0.280295
        33        32        34        35     9      180.000000        0.996192         4    ;  uncertainty k = 0.168776
        33        32        34        36     9        0.000000        0.072705         1    ;  uncertainty k = 0.132922
        33        32        34        36     9      180.000000        5.631135         2    ;  uncertainty k = 0.671114
        33        32        34        36     9        0.000000        1.285319         3    ;  uncertainty k = 0.282333
        33        32        34        36     9      180.000000        1.510894         4    ;  uncertainty k = 0.113594
        34        32        31        47     9        0.000000       -0.042320         1    ;  uncertainty k = 0.202714
        34        32        31        47     9      180.000000        9.582452         2    ;  uncertainty k = 0.638106
        34        32        31        47     9        0.000000        1.420443         3    ;  uncertainty k = 0.494510
        34        32        31        47     9      180.000000        1.642536         4    ;  uncertainty k = 0.193139
        35        34        36        37     9        0.000000       -0.427250         1    ;  uncertainty k = 0.156632
        35        34        36        37     9      180.000000        9.083842         2    ;  uncertainty k = 0.439261
        35        34        36        37     9        0.000000        0.773466         3    ;  uncertainty k = 0.215442
        35        34        36        37     9      180.000000        1.015400         4    ;  uncertainty k = 0.246198
        39        11        43        44     9        0.000000       -1.168308         1    ;  uncertainty k = 0.299692
        39        11        43        44     9      180.000000        0.150758         2    ;  uncertainty k = 0.296599
        39        11        43        44     9        0.000000        0.668939         3    ;  uncertainty k = 0.064920
        39        11        43        44     9      180.000000       -0.104414         4    ;  uncertainty k = 0.091599
        39        11        43        45     9        0.000000       -1.168308         1    ;  uncertainty k = 0.299692
        39        11        43        45     9      180.000000        0.150758         2    ;  uncertainty k = 0.296599
        39        11        43        45     9        0.000000        0.668939         3    ;  uncertainty k = 0.064920
        39        11        43        45     9      180.000000       -0.104414         4    ;  uncertainty k = 0.091599
        39        11        43        46     9        0.000000       -1.168308         1    ;  uncertainty k = 0.299692
        39        11        43        46     9      180.000000        0.150758         2    ;  uncertainty k = 0.296599
        39        11        43        46     9        0.000000        0.668939         3    ;  uncertainty k = 0.064920
        39        11        43        46     9      180.000000       -0.104414         4    ;  uncertainty k = 0.091599
        40        39        11        43     9        0.000000       -1.168308         1    ;  uncertainty k = 0.299692
        40        39        11        43     9      180.000000        0.150758         2    ;  uncertainty k = 0.296599
        40        39        11        43     9        0.000000        0.668939         3    ;  uncertainty k = 0.064920
        40        39        11        43     9      180.000000       -0.104414         4    ;  uncertainty k = 0.091599
        41        39        11        43     9        0.000000       -1.168308         1    ;  uncertainty k = 0.299692
        41        39        11        43     9      180.000000        0.150758         2    ;  uncertainty k = 0.296599
        41        39        11        43     9        0.000000        0.668939         3    ;  uncertainty k = 0.064920
        41        39        11        43     9      180.000000       -0.104414         4    ;  uncertainty k = 0.091599
        42        39        11        43     9        0.000000       -1.168308         1    ;  uncertainty k = 0.299692
        42        39        11        43     9      180.000000        0.150758         2    ;  uncertainty k = 0.296599
        42        39        11        43     9        0.000000        0.668939         3    ;  uncertainty k = 0.064920
        42        39        11        43     9      180.000000       -0.104414         4    ;  uncertainty k = 0.091599

[ dihedrals ] ; impropers
;       ai        aj        ak        al funct           phase               k        pn
         1         2         8        21     4      180.000000       12.981524         2    ;  uncertainty k = 0.119404
         1         8        21         2     4      180.000000       12.981524         2    ;  uncertainty k = 0.119404
         1        21         2         8     4      180.000000       12.981524         2    ;  uncertainty k = 0.119404
         2         1         3         4     4      180.000000        4.747561         2    ;  uncertainty k = 0.193850
         2         3         4         1     4      180.000000        4.747561         2    ;  uncertainty k = 0.193850
         2         4         1         3     4      180.000000        4.747561         2    ;  uncertainty k = 0.193850
         4         2         5         6     4      180.000000        1.916582         2    ;  uncertainty k = 0.189189
         4         5         6         2     4      180.000000        1.916582         2    ;  uncertainty k = 0.189189
         4         6         2         5     4      180.000000        1.916582         2    ;  uncertainty k = 0.189189
         6         4         7        10     4      180.000000       22.038012         2    ;  uncertainty k = 0.126561
         6         7        10         4     4      180.000000       22.038012         2    ;  uncertainty k = 0.126561
         6        10         4         7     4      180.000000       22.038012         2    ;  uncertainty k = 0.126561
         7         6         8        15     4      180.000000       11.758551         2    ;  uncertainty k = 0.248599
         7         8        15         6     4      180.000000       11.758551         2    ;  uncertainty k = 0.248599
         7        15         6         8     4      180.000000       11.758551         2    ;  uncertainty k = 0.248599
         8         1         7         9     4      180.000000        4.955429         2    ;  uncertainty k = 0.407069
         8         7         9         1     4      180.000000        4.955429         2    ;  uncertainty k = 0.407069
         8         9         1         7     4      180.000000        4.955429         2    ;  uncertainty k = 0.407069
        16        15        17        38     4      180.000000       50.512062         2    ;  uncertainty k = 0.072585
        16        17        38        15     4      180.000000       50.512062         2    ;  uncertainty k = 0.072585
        16        38        15        17     4      180.000000       50.512062         2    ;  uncertainty k = 0.072585
        17        16        18        22     4      180.000000        2.066646         2    ;  uncertainty k = 0.825300
        17        18        22        16     4      180.000000        2.066646         2    ;  uncertainty k = 0.825300
        17        22        16        18     4      180.000000        2.066646         2    ;  uncertainty k = 0.825300
        18        17        19        26     4      180.000000       30.892449         2    ;  uncertainty k = 0.146917
        18        19        26        17     4      180.000000       30.892449         2    ;  uncertainty k = 0.146917
        18        26        17        19     4      180.000000       30.892449         2    ;  uncertainty k = 0.146917
        21         1        29        36     4      180.000000       15.305573         2    ;  uncertainty k = 0.053591
        21        29        36         1     4      180.000000       15.305573         2    ;  uncertainty k = 0.053591
        21        36         1        29     4      180.000000       15.305573         2    ;  uncertainty k = 0.053591
        26        18        27        28     4      180.000000        0.184047         2    ;  uncertainty k = 0.411542
        26        27        28        18     4      180.000000        0.184047         2    ;  uncertainty k = 0.411542
        26        28        18        27     4      180.000000        0.184047         2    ;  uncertainty k = 0.411542
        29        21        30        31     4      180.000000        2.918909         2    ;  uncertainty k = 0.090976
        29        30        31        21     4      180.000000        2.918909         2    ;  uncertainty k = 0.090976
        29        31        21        30     4      180.000000        2.918909         2    ;  uncertainty k = 0.090976
        31        29        32        47     4      180.000000       14.106985         2    ;  uncertainty k = 0.058534
        31        32        47        29     4      180.000000       14.106985         2    ;  uncertainty k = 0.058534
        31        47        29        32     4      180.000000       14.106985         2    ;  uncertainty k = 0.058534
        32        31        33        34     4      180.000000        1.793536         2    ;  uncertainty k = 0.284340
        32        33        34        31     4      180.000000        1.793536         2    ;  uncertainty k = 0.284340
        32        34        31        33     4      180.000000        1.793536         2    ;  uncertainty k = 0.284340
        34        32        35        36     4      180.000000       17.535628         2    ;  uncertainty k = 0.024123
        34        35        36        32     4      180.000000       17.535628         2    ;  uncertainty k = 0.024123
        34        36        32        35     4      180.000000       17.535628         2    ;  uncertainty k = 0.024123
        36        21        34        37     4      180.000000        1.988762         2    ;  uncertainty k = 0.217566
        36        34        37        21     4      180.000000        1.988762         2    ;  uncertainty k = 0.217566
        36        37        21        34     4      180.000000        1.988762         2    ;  uncertainty k = 0.217566

[ pairs ]
;       ai        aj funct
         1         5     1
         1         6     1
         1        15     1
         1        30     1
         1        31     1
         1        34     1
         1        37     1
         2         7     1
         2         9     1
         2        10     1
         2        29     1
         2        36     1
         3         5     1
         3         6     1
         3         8     1
         3        21     1
         4         8     1
         4        11     1
         4        15     1
         4        21     1
         5         7     1
         5        10     1
         6         9     1
         6        12     1
         6        16     1
         6        19     1
         6        39     1
         6        43     1
         7        11     1
         7        13     1
         7        14     1
         7        17     1
         7        18     1
         7        20     1
         7        21     1
         7        38     1
         8        10     1
         8        12     1
         8        16     1
         8        19     1
         8        29     1
         8        36     1
         9        15     1
         9        21     1
        10        13     1
        10        14     1
        10        15     1
        10        40     1
        10        41     1
        10        42     1
        10        44     1
        10        45     1
        10        46     1
        11        16     1
        11        19     1
        12        17     1
        12        18     1
        12        20     1
        12        38     1
        12        40     1
        12        41     1
        12        42     1
        12        44     1
        12        45     1
        12        46     1
        13        16     1
        13        19     1
        13        39     1
        13        43     1
        14        16     1
        14        19     1
        14        39     1
        14        43     1
        15        22     1
        15        26     1
        15        39     1
        15        43     1
        16        20     1
        16        23     1
        16        24     1
        16        25     1
        16        26     1
        17        20     1
        17        27     1
        17        28     1
        18        23     1
        18        24     1
        18        25     1
        18        38     1
        19        22     1
        19        27     1
        19        28     1
        19        38     1
        20        26     1
        21        32     1
        21        35     1
        21        47     1
        22        26     1
        22        38     1
        29        33     1
        29        34     1
        29        37     1
        30        32     1
        30        36     1
        30        47     1
        31        35     1
        31        36     1
        32        37     1
        33        35     1
        33        36     1
        33        47     1
        34        47     1
        35        37     1
        39        44     1
        39        45     1
        39        46     1
        40        43     1
        41        43     1
        42        43     1
