; ITP file created by ByteFF-joint-25, 2026-03-14 15:24:26.598453

[ atomtypes ]
;name           bonded.type        at.num        mass        charge   ptype           sigma         epsilon
 c0bf                                   6      0.0000       0.00000       A     3.31490e-01     4.13318e-01    ;  uncertainty sigma = 0.000012, epsilon = 0.000486
 c1bf                                   6      0.0000       0.00000       A     3.31511e-01     4.13435e-01    ;  uncertainty sigma = 0.000006, epsilon = 0.000528
 h2bf                                   1      0.0000       0.00000       A     2.62563e-01     6.71382e-02    ;  uncertainty sigma = 0.000008, epsilon = 0.000500
 c3bf                                   6      0.0000       0.00000       A     3.31523e-01     4.13778e-01    ;  uncertainty sigma = 0.000003, epsilon = 0.000961
 h4bf                                   1      0.0000       0.00000       A     2.62561e-01     6.68067e-02    ;  uncertainty sigma = 0.000012, epsilon = 0.000527
 c5bf                                   6      0.0000       0.00000       A     3.31562e-01     4.13129e-01    ;  uncertainty sigma = 0.000021, epsilon = 0.000953
 c6bf                                   6      0.0000       0.00000       A     3.31604e-01     4.12991e-01    ;  uncertainty sigma = 0.000053, epsilon = 0.001665
 c7bf                                   6      0.0000       0.00000       A     3.31541e-01     4.13363e-01    ;  uncertainty sigma = 0.000018, epsilon = 0.001199
 h8bf                                   1      0.0000       0.00000       A     2.62555e-01     6.73758e-02    ;  uncertainty sigma = 0.000015, epsilon = 0.000633
 o9bf                                   8      0.0000       0.00000       A     3.15675e-01     3.03349e-01    ;  uncertainty sigma = 0.000037, epsilon = 0.000709
 c10bf                                  6      0.0000       0.00000       A     3.39754e-01     4.50298e-01    ;  uncertainty sigma = 0.000022, epsilon = 0.001818
 c11bf                                  6      0.0000       0.00000       A     3.39729e-01     4.51261e-01    ;  uncertainty sigma = 0.000015, epsilon = 0.001388
 h12bf                                  1      0.0000       0.00000       A     2.60113e-01     8.69260e-02    ;  uncertainty sigma = 0.000018, epsilon = 0.001362
 h13bf                                  1      0.0000       0.00000       A     2.60113e-01     8.69260e-02    ;  uncertainty sigma = 0.000018, epsilon = 0.001362
 c14bf                                  6      0.0000       0.00000       A     3.39922e-01     4.52078e-01    ;  uncertainty sigma = 0.000044, epsilon = 0.005050
 c15bf                                  6      0.0000       0.00000       A     3.31534e-01     4.13061e-01    ;  uncertainty sigma = 0.000023, epsilon = 0.000770
 n16bf                                  7      0.0000       0.00000       A     3.18159e-01     6.82058e-01    ;  uncertainty sigma = 0.000074, epsilon = 0.006526
 c17bf                                  6      0.0000       0.00000       A     3.31516e-01     4.13029e-01    ;  uncertainty sigma = 0.000046, epsilon = 0.002102
 n18bf                                  7      0.0000       0.00000       A     3.27895e-01     6.51183e-01    ;  uncertainty sigma = 0.000198, epsilon = 0.011723
 h19bf                                  1      0.0000       0.00000       A     1.10796e-01     4.19443e-02    ;  uncertainty sigma = 0.000445, epsilon = 0.001840
 c20bf                                  6      0.0000       0.00000       A     3.31512e-01     4.13201e-01    ;  uncertainty sigma = 0.000007, epsilon = 0.000603
 c21bf                                  6      0.0000       0.00000       A     3.39747e-01     4.51374e-01    ;  uncertainty sigma = 0.000011, epsilon = 0.001160
 h22bf                                  1      0.0000       0.00000       A     2.42212e-01     8.67416e-02    ;  uncertainty sigma = 0.000033, epsilon = 0.000677
 h23bf                                  1      0.0000       0.00000       A     2.42212e-01     8.67416e-02    ;  uncertainty sigma = 0.000033, epsilon = 0.000677
 h24bf                                  1      0.0000       0.00000       A     2.42212e-01     8.67416e-02    ;  uncertainty sigma = 0.000033, epsilon = 0.000677
 n25bf                                  7      0.0000       0.00000       A     3.36518e-01     4.71691e-01    ;  uncertainty sigma = 0.000108, epsilon = 0.006012
 h26bf                                  1      0.0000       0.00000       A     1.10696e-01     4.11175e-02    ;  uncertainty sigma = 0.000127, epsilon = 0.001410
 h27bf                                  1      0.0000       0.00000       A     1.10696e-01     4.11175e-02    ;  uncertainty sigma = 0.000127, epsilon = 0.001410
 c28bf                                  6      0.0000       0.00000       A     3.31517e-01     4.13241e-01    ;  uncertainty sigma = 0.000005, epsilon = 0.000631
 h29bf                                  1      0.0000       0.00000       A     2.62562e-01     6.70409e-02    ;  uncertainty sigma = 0.000012, epsilon = 0.000507
 c30bf                                  6      0.0000       0.00000       A     3.31523e-01     4.13469e-01    ;  uncertainty sigma = 0.000003, epsilon = 0.000655
 c31bf                                  6      0.0000       0.00000       A     3.31515e-01     4.13361e-01    ;  uncertainty sigma = 0.000002, epsilon = 0.000699
 h32bf                                  1      0.0000       0.00000       A     2.62564e-01     6.71213e-02    ;  uncertainty sigma = 0.000006, epsilon = 0.000469
 c33bf                                  6      0.0000       0.00000       A     3.31515e-01     4.13435e-01    ;  uncertainty sigma = 0.000006, epsilon = 0.000948
 o34bf                                  8      0.0000       0.00000       A     3.15654e-01     3.04507e-01    ;  uncertainty sigma = 0.000033, epsilon = 0.001719
 c35bf                                  6      0.0000       0.00000       A     3.39781e-01     4.50876e-01    ;  uncertainty sigma = 0.000006, epsilon = 0.000553
 c36bf                                  6      0.0000       0.00000       A     3.39772e-01     4.50696e-01    ;  uncertainty sigma = 0.000003, epsilon = 0.000668
 h37bf                                  1      0.0000       0.00000       A     2.60028e-01     8.66116e-02    ;  uncertainty sigma = 0.000010, epsilon = 0.000666
 h38bf                                  1      0.0000       0.00000       A     2.60028e-01     8.66116e-02    ;  uncertainty sigma = 0.000010, epsilon = 0.000666
 h39bf                                  1      0.0000       0.00000       A     2.60028e-01     8.66116e-02    ;  uncertainty sigma = 0.000010, epsilon = 0.000666
 c40bf                                  6      0.0000       0.00000       A     3.39772e-01     4.50696e-01    ;  uncertainty sigma = 0.000003, epsilon = 0.000668
 h41bf                                  1      0.0000       0.00000       A     2.60028e-01     8.66116e-02    ;  uncertainty sigma = 0.000010, epsilon = 0.000666
 h42bf                                  1      0.0000       0.00000       A     2.60028e-01     8.66116e-02    ;  uncertainty sigma = 0.000010, epsilon = 0.000666
 h43bf                                  1      0.0000       0.00000       A     2.60028e-01     8.66116e-02    ;  uncertainty sigma = 0.000010, epsilon = 0.000666
 h44bf                                  1      0.0000       0.00000       A     2.42162e-01     8.70264e-02    ;  uncertainty sigma = 0.000062, epsilon = 0.000532
 c45bf                                  6      0.0000       0.00000       A     3.31524e-01     4.13217e-01    ;  uncertainty sigma = 0.000007, epsilon = 0.000983
 h46bf                                  1      0.0000       0.00000       A     2.62557e-01     6.71597e-02    ;  uncertainty sigma = 0.000013, epsilon = 0.000769
 o47bf                                  8      0.0000       0.00000       A     3.04746e-01     6.12575e-01    ;  uncertainty sigma = 0.000054, epsilon = 0.002454
 c48bf                                  6      0.0000       0.00000       A     3.39769e-01     4.50351e-01    ;  uncertainty sigma = 0.000003, epsilon = 0.001331
 h49bf                                  1      0.0000       0.00000       A     2.60031e-01     8.68009e-02    ;  uncertainty sigma = 0.000006, epsilon = 0.000320
 h50bf                                  1      0.0000       0.00000       A     2.60031e-01     8.68009e-02    ;  uncertainty sigma = 0.000006, epsilon = 0.000320
 h51bf                                  1      0.0000       0.00000       A     2.60031e-01     8.68009e-02    ;  uncertainty sigma = 0.000006, epsilon = 0.000320
 c52bf                                  6      0.0000       0.00000       A     3.39769e-01     4.50351e-01    ;  uncertainty sigma = 0.000003, epsilon = 0.001331
 h53bf                                  1      0.0000       0.00000       A     2.60031e-01     8.68009e-02    ;  uncertainty sigma = 0.000006, epsilon = 0.000320
 h54bf                                  1      0.0000       0.00000       A     2.60031e-01     8.68009e-02    ;  uncertainty sigma = 0.000006, epsilon = 0.000320
 h55bf                                  1      0.0000       0.00000       A     2.60031e-01     8.68009e-02    ;  uncertainty sigma = 0.000006, epsilon = 0.000320
 h56bf                                  1      0.0000       0.00000       A     2.62568e-01     6.69690e-02    ;  uncertainty sigma = 0.000011, epsilon = 0.000459

[ moleculetype ]
;name             nrexcl
 MOL                   3

[ atoms ]
;       nr            type      resi   res      atom      cgnr      charge          mass ; qtot
         1            c0bf         1   UNL        c0         1    -0.03134       12.0110 ; qtot   -0.031
         2            c1bf         1   UNL        c1         2    -0.06702       12.0110 ; qtot   -0.098
         3            h2bf         1   UNL        h2         3     0.13936        1.0080 ; qtot    0.041
         4            c3bf         1   UNL        c3         4    -0.14994       12.0110 ; qtot   -0.109
         5            h4bf         1   UNL        h4         5     0.15718        1.0080 ; qtot    0.048
         6            c5bf         1   UNL        c5         6     0.18249       12.0110 ; qtot    0.231
         7            c6bf         1   UNL        c6         7    -0.20467       12.0110 ; qtot    0.026
         8            c7bf         1   UNL        c7         8    -0.06459       12.0110 ; qtot   -0.039
         9            h8bf         1   UNL        h8         9     0.14970        1.0080 ; qtot    0.111
        10            o9bf         1   UNL        o9        10    -0.32527       15.9990 ; qtot   -0.214
        11           c10bf         1   UNL       c10        11     0.16563       12.0110 ; qtot   -0.048
        12           c11bf         1   UNL       c11        12    -0.09875       12.0110 ; qtot   -0.147
        13           h12bf         1   UNL       h12        13     0.09101        1.0080 ; qtot   -0.056
        14           h13bf         1   UNL       h13        14     0.09101        1.0080 ; qtot    0.035
        15           c14bf         1   UNL       c14        15     0.04015       12.0110 ; qtot    0.075
        16           c15bf         1   UNL       c15        16     0.70447       12.0110 ; qtot    0.779
        17           n16bf         1   UNL       n16        17    -0.41729       14.0070 ; qtot    0.362
        18           c17bf         1   UNL       c17        18     0.47248       12.0110 ; qtot    0.835
        19           n18bf         1   UNL       n18        19    -0.37461       14.0070 ; qtot    0.460
        20           h19bf         1   UNL       h19        20     0.35504        1.0080 ; qtot    0.815
        21           c20bf         1   UNL       c20        21    -0.01676       12.0110 ; qtot    0.798
        22           c21bf         1   UNL       c21        22     0.07530       12.0110 ; qtot    0.874
        23           h22bf         1   UNL       h22        23     0.09109        1.0080 ; qtot    0.965
        24           h23bf         1   UNL       h23        24     0.09109        1.0080 ; qtot    1.056
        25           h24bf         1   UNL       h24        25     0.09109        1.0080 ; qtot    1.147
        26           n25bf         1   UNL       n25        26    -0.48596       14.0070 ; qtot    0.661
        27           h26bf         1   UNL       h26        27     0.33929        1.0080 ; qtot    1.000
        28           h27bf         1   UNL       h27        28     0.33929        1.0080 ; qtot    1.339
        29           c28bf         1   UNL       c28        29    -0.13963       12.0110 ; qtot    1.200
        30           h29bf         1   UNL       h29        30     0.13766        1.0080 ; qtot    1.338
        31           c30bf         1   UNL       c30        31    -0.09917       12.0110 ; qtot    1.238
        32           c31bf         1   UNL       c31        32    -0.17956       12.0110 ; qtot    1.059
        33           h32bf         1   UNL       h32        33     0.14420        1.0080 ; qtot    1.203
        34           c33bf         1   UNL       c33        34     0.13393       12.0110 ; qtot    1.337
        35           o34bf         1   UNL       o34        35    -0.34533       15.9990 ; qtot    0.992
        36           c35bf         1   UNL       c35        36     0.14569       12.0110 ; qtot    1.137
        37           c36bf         1   UNL       c36        37    -0.10878       12.0110 ; qtot    1.028
        38           h37bf         1   UNL       h37        38     0.04574        1.0080 ; qtot    1.074
        39           h38bf         1   UNL       h38        39     0.04574        1.0080 ; qtot    1.120
        40           h39bf         1   UNL       h39        40     0.04574        1.0080 ; qtot    1.166
        41           c40bf         1   UNL       c40        41    -0.10878       12.0110 ; qtot    1.057
        42           h41bf         1   UNL       h41        42     0.04574        1.0080 ; qtot    1.103
        43           h42bf         1   UNL       h42        43     0.04574        1.0080 ; qtot    1.148
        44           h43bf         1   UNL       h43        44     0.04574        1.0080 ; qtot    1.194
        45           h44bf         1   UNL       h44        45     0.04472        1.0080 ; qtot    1.239
        46           c45bf         1   UNL       c45        46    -0.16834       12.0110 ; qtot    1.071
        47           h46bf         1   UNL       h46        47     0.14572        1.0080 ; qtot    1.216
        48           o47bf         1   UNL       o47        48    -0.45182       15.9990 ; qtot    0.764
        49           c48bf         1   UNL       c48        49    -0.10337       12.0110 ; qtot    0.661
        50           h49bf         1   UNL       h49        50     0.05101        1.0080 ; qtot    0.712
        51           h50bf         1   UNL       h50        51     0.05101        1.0080 ; qtot    0.763
        52           h51bf         1   UNL       h51        52     0.05101        1.0080 ; qtot    0.814
        53           c52bf         1   UNL       c52        53    -0.10337       12.0110 ; qtot    0.711
        54           h53bf         1   UNL       h53        54     0.05101        1.0080 ; qtot    0.762
        55           h54bf         1   UNL       h54        55     0.05101        1.0080 ; qtot    0.813
        56           h55bf         1   UNL       h55        56     0.05101        1.0080 ; qtot    0.864
        57           h56bf         1   UNL       h56        57     0.13626        1.0080 ; qtot    1.000

[ bonds ]
;       ai        aj funct               r               k
         1         2     1        0.140364   345283.629590    ;  uncertainty r = 0.000044, k = 3.704131
         1         8     1        0.139592   338465.093701    ;  uncertainty r = 0.000096, k = 6.137484
         1        21     1        0.147761   271498.927490    ;  uncertainty r = 0.000072, k = 4.445656
         2         3     1        0.108747   334332.550977    ;  uncertainty r = 0.000025, k = 1.658246
         2         4     1        0.138720   376507.214795    ;  uncertainty r = 0.000065, k = 3.290766
         4         5     1        0.108788   336617.637061    ;  uncertainty r = 0.000017, k = 1.411956
         4         6     1        0.140086   362230.540576    ;  uncertainty r = 0.000052, k = 3.404710
         6         7     1        0.139987   328983.803418    ;  uncertainty r = 0.000163, k = 7.293716
         6        10     1        0.136368   303578.797510    ;  uncertainty r = 0.000194, k = 10.538317
         7         8     1        0.139607   346320.921436    ;  uncertainty r = 0.000123, k = 6.940488
         7        15     1        0.150678   205784.156250    ;  uncertainty r = 0.000110, k = 20.274094
         8         9     1        0.108767   335454.804785    ;  uncertainty r = 0.000067, k = 4.149507
        10        11     1        0.145422   203859.641382    ;  uncertainty r = 0.000221, k = 9.275520
        11        12     1        0.152936   192803.911694    ;  uncertainty r = 0.000262, k = 11.274596
        11        49     1        0.152325   205847.654272    ;  uncertainty r = 0.000037, k = 5.592256
        11        53     1        0.152325   205847.654272    ;  uncertainty r = 0.000037, k = 5.592256
        12        13     1        0.109477   309561.503809    ;  uncertainty r = 0.000048, k = 2.448473
        12        14     1        0.109477   309561.503809    ;  uncertainty r = 0.000048, k = 2.448473
        12        15     1        0.153041   191194.026782    ;  uncertainty r = 0.000126, k = 21.513846
        15        16     1        0.153598   171646.122900    ;  uncertainty r = 0.000173, k = 14.753170
        15        19     1        0.149698   232215.907178    ;  uncertainty r = 0.000407, k = 51.570456
        16        17     1        0.142413   302839.344971    ;  uncertainty r = 0.000236, k = 75.996174
        16        48     1        0.120112   608584.455469    ;  uncertainty r = 0.000161, k = 10.569144
        17        18     1        0.135836   286250.770703    ;  uncertainty r = 0.000260, k = 52.766102
        17        22     1        0.146741   261825.572607    ;  uncertainty r = 0.000154, k = 17.700649
        18        19     1        0.133610   531287.609180    ;  uncertainty r = 0.000191, k = 37.526813
        18        26     1        0.133101   320485.564160    ;  uncertainty r = 0.000146, k = 40.823703
        19        20     1        0.101578   423262.955127    ;  uncertainty r = 0.000083, k = 11.557068
        21        29     1        0.140193   346242.343750    ;  uncertainty r = 0.000044, k = 1.492038
        21        46     1        0.139975   346957.382812    ;  uncertainty r = 0.000056, k = 5.390702
        22        23     1        0.109172   309495.286084    ;  uncertainty r = 0.000053, k = 3.597993
        22        24     1        0.109172   309495.286084    ;  uncertainty r = 0.000053, k = 3.597993
        22        25     1        0.109172   309495.286084    ;  uncertainty r = 0.000053, k = 3.597993
        26        27     1        0.101405   421785.735498    ;  uncertainty r = 0.000064, k = 13.590763
        26        28     1        0.101405   421785.735498    ;  uncertainty r = 0.000064, k = 13.590763
        29        30     1        0.108810   335001.495557    ;  uncertainty r = 0.000032, k = 1.299048
        29        31     1        0.139444   366867.875342    ;  uncertainty r = 0.000016, k = 2.403263
        31        32     1        0.139413   371633.099951    ;  uncertainty r = 0.000039, k = 1.975194
        31        57     1        0.108774   332532.491211    ;  uncertainty r = 0.000015, k = 1.362350
        32        33     1        0.108812   337613.814160    ;  uncertainty r = 0.000022, k = 0.962874
        32        34     1        0.139847   359904.160986    ;  uncertainty r = 0.000039, k = 3.529513
        34        35     1        0.136567   323168.697168    ;  uncertainty r = 0.000105, k = 6.441543
        34        46     1        0.139731   353213.489404    ;  uncertainty r = 0.000035, k = 2.513430
        35        36     1        0.143621   223078.933740    ;  uncertainty r = 0.000071, k = 5.003211
        36        37     1        0.152636   216826.734326    ;  uncertainty r = 0.000031, k = 0.887372
        36        41     1        0.152636   216826.734326    ;  uncertainty r = 0.000031, k = 0.887372
        36        45     1        0.109773   305795.750586    ;  uncertainty r = 0.000040, k = 2.894549
        37        38     1        0.109585   310881.465918    ;  uncertainty r = 0.000010, k = 1.780887
        37        39     1        0.109585   310881.465918    ;  uncertainty r = 0.000010, k = 1.780887
        37        40     1        0.109585   310881.465918    ;  uncertainty r = 0.000010, k = 1.780887
        41        42     1        0.109585   310881.465918    ;  uncertainty r = 0.000010, k = 1.780887
        41        43     1        0.109585   310881.465918    ;  uncertainty r = 0.000010, k = 1.780887
        41        44     1        0.109585   310881.465918    ;  uncertainty r = 0.000010, k = 1.780887
        46        47     1        0.108839   338176.039160    ;  uncertainty r = 0.000045, k = 1.649692
        49        50     1        0.109545   310467.177393    ;  uncertainty r = 0.000018, k = 1.787242
        49        51     1        0.109545   310467.177393    ;  uncertainty r = 0.000018, k = 1.787242
        49        52     1        0.109545   310467.177393    ;  uncertainty r = 0.000018, k = 1.787242
        53        54     1        0.109545   310467.177393    ;  uncertainty r = 0.000018, k = 1.787242
        53        55     1        0.109545   310467.177393    ;  uncertainty r = 0.000018, k = 1.787242
        53        56     1        0.109545   310467.177393    ;  uncertainty r = 0.000018, k = 1.787242

[ angles ]
;       ai        aj        ak funct           theta             cth
         1         2         3     1      118.983505      277.845984    ;  uncertainty theta = 0.000767, k = 0.106392
         1         2         4     1      120.591530      529.036622    ;  uncertainty theta = 0.003094, k = 0.083348
         1         8         7     1      123.274796      508.364236    ;  uncertainty theta = 0.004791, k = 0.252184
         1         8         9     1      118.900536      283.229463    ;  uncertainty theta = 0.002831, k = 0.014605
         1        21        29     1      120.440041      409.781800    ;  uncertainty theta = 0.002255, k = 0.059358
         1        21        46     1      119.660667      410.019742    ;  uncertainty theta = 0.002481, k = 0.053258
         2         1         8     1      119.174423      424.151436    ;  uncertainty theta = 0.003218, k = 0.158993
         2         1        21     1      121.199814      415.689427    ;  uncertainty theta = 0.001151, k = 0.085934
         2         4         5     1      121.420326      280.298154    ;  uncertainty theta = 0.001178, k = 0.034437
         2         4         6     1      119.575096      505.135962    ;  uncertainty theta = 0.002692, k = 0.150532
         3         2         4     1      119.338806      289.601067    ;  uncertainty theta = 0.001318, k = 0.062224
         4         6         7     1      120.988113      370.564749    ;  uncertainty theta = 0.002805, k = 0.132341
         4         6        10     1      118.414932      539.304551    ;  uncertainty theta = 0.003186, k = 0.119404
         5         4         6     1      120.029160      275.838512    ;  uncertainty theta = 0.003388, k = 0.140058
         6         7         8     1      121.646706      436.471335    ;  uncertainty theta = 0.004275, k = 0.120813
         6         7        15     1      120.067566      415.396868    ;  uncertainty theta = 0.008782, k = 0.219694
         6        10        11     1      114.537888      453.333553    ;  uncertainty theta = 0.006687, k = 0.093698
         7         6        10     1      123.896896      494.205441    ;  uncertainty theta = 0.004024, k = 0.262919
         7         8         9     1      117.552780      269.249044    ;  uncertainty theta = 0.003488, k = 0.141356
         7        15        12     1      110.372864      539.933530    ;  uncertainty theta = 0.001408, k = 0.155688
         7        15        16     1      108.946983      466.381260    ;  uncertainty theta = 0.003845, k = 0.382761
         7        15        19     1      110.459412      616.078039    ;  uncertainty theta = 0.004076, k = 0.312915
         8         1        21     1      120.180374      412.235565    ;  uncertainty theta = 0.002378, k = 0.218882
         8         7        15     1      118.179955      406.555665    ;  uncertainty theta = 0.004331, k = 0.175151
        10        11        12     1      109.104774      651.855785    ;  uncertainty theta = 0.004859, k = 0.084503
        10        11        49     1      107.605125      619.338362    ;  uncertainty theta = 0.001081, k = 0.064685
        10        11        53     1      107.605125      619.338362    ;  uncertainty theta = 0.001081, k = 0.064685
        11        12        13     1      107.678444      386.201185    ;  uncertainty theta = 0.003165, k = 0.032000
        11        12        14     1      107.678444      386.201185    ;  uncertainty theta = 0.003165, k = 0.032000
        11        12        15     1      109.859573      530.089421    ;  uncertainty theta = 0.006963, k = 0.198376
        11        49        50     1      107.221069      387.594393    ;  uncertainty theta = 0.001065, k = 0.069193
        11        49        51     1      107.221069      387.594393    ;  uncertainty theta = 0.001065, k = 0.069193
        11        49        52     1      107.221069      387.594393    ;  uncertainty theta = 0.001065, k = 0.069193
        11        53        54     1      107.221069      387.594393    ;  uncertainty theta = 0.001065, k = 0.069193
        11        53        55     1      107.221069      387.594393    ;  uncertainty theta = 0.001065, k = 0.069193
        11        53        56     1      107.221069      387.594393    ;  uncertainty theta = 0.001065, k = 0.069193
        12        11        49     1      109.374954      548.046988    ;  uncertainty theta = 0.004356, k = 0.115347
        12        11        53     1      109.374954      548.046988    ;  uncertainty theta = 0.004356, k = 0.115347
        12        15        16     1      107.815041      449.614456    ;  uncertainty theta = 0.007030, k = 0.162708
        12        15        19     1      109.812546      627.822301    ;  uncertainty theta = 0.007991, k = 0.271564
        13        12        14     1      106.986496      321.844700    ;  uncertainty theta = 0.004263, k = 0.066652
        13        12        15     1      106.651634      397.354709    ;  uncertainty theta = 0.003140, k = 0.080198
        14        12        15     1      106.651634      397.354709    ;  uncertainty theta = 0.003140, k = 0.080198
        15        16        17     1      110.177444      536.173382    ;  uncertainty theta = 0.011689, k = 0.712083
        15        16        48     1      125.836937      424.636737    ;  uncertainty theta = 0.006696, k = 0.210364
        15        19        18     1      111.019447      602.235713    ;  uncertainty theta = 0.016031, k = 0.385577
        15        19        20     1      118.127907      280.649416    ;  uncertainty theta = 0.015278, k = 0.121870
        16        15        19     1      103.837784      815.585174    ;  uncertainty theta = 0.012174, k = 0.852513
        16        17        18     1      110.293701      728.609291    ;  uncertainty theta = 0.010426, k = 0.320486
        16        17        22     1      119.398109      397.513773    ;  uncertainty theta = 0.006832, k = 0.281808
        17        16        48     1      125.307961      629.051912    ;  uncertainty theta = 0.008036, k = 0.165829
        17        18        19     1      113.250023      720.106327    ;  uncertainty theta = 0.006756, k = 0.305315
        17        18        26     1      125.598953      549.524885    ;  uncertainty theta = 0.008546, k = 0.324469
        17        22        23     1      107.360855      470.851946    ;  uncertainty theta = 0.002522, k = 0.203983
        17        22        24     1      107.360855      470.851946    ;  uncertainty theta = 0.002522, k = 0.203983
        17        22        25     1      107.360855      470.851946    ;  uncertainty theta = 0.002522, k = 0.203983
        18        17        22     1      118.646042      371.786540    ;  uncertainty theta = 0.007230, k = 0.373049
        18        19        20     1      119.824707      355.581520    ;  uncertainty theta = 0.006083, k = 0.153034
        18        26        27     1      114.903091      371.138312    ;  uncertainty theta = 0.001582, k = 0.210952
        18        26        28     1      114.903091      371.138312    ;  uncertainty theta = 0.001582, k = 0.210952
        19        18        26     1      128.730377      637.313550    ;  uncertainty theta = 0.008927, k = 0.256741
        21        29        30     1      119.245163      279.284075    ;  uncertainty theta = 0.001129, k = 0.051739
        21        29        31     1      119.921669      529.499354    ;  uncertainty theta = 0.001764, k = 0.057669
        21        46        34     1      120.499184      525.067293    ;  uncertainty theta = 0.002312, k = 0.100947
        21        46        47     1      119.857224      275.272323    ;  uncertainty theta = 0.000690, k = 0.091110
        23        22        24     1      107.634499      325.466948    ;  uncertainty theta = 0.003233, k = 0.098676
        23        22        25     1      107.634499      325.466948    ;  uncertainty theta = 0.003233, k = 0.098676
        24        22        25     1      107.634499      325.466948    ;  uncertainty theta = 0.003233, k = 0.098676
        27        26        28     1      112.323532      263.743275    ;  uncertainty theta = 0.015210, k = 0.362876
        29        21        46     1      120.638893      398.363935    ;  uncertainty theta = 0.002266, k = 0.165702
        29        31        32     1      121.031006      507.877243    ;  uncertainty theta = 0.001789, k = 0.062941
        29        31        57     1      120.218727      281.521285    ;  uncertainty theta = 0.000895, k = 0.028890
        30        29        31     1      120.433060      294.878790    ;  uncertainty theta = 0.001274, k = 0.045368
        31        32        33     1      121.266342      288.954340    ;  uncertainty theta = 0.001464, k = 0.027261
        31        32        34     1      118.090416      530.056254    ;  uncertainty theta = 0.002342, k = 0.072086
        32        31        57     1      119.890015      282.187165    ;  uncertainty theta = 0.000666, k = 0.028577
        32        34        35     1      120.550171      427.639997    ;  uncertainty theta = 0.005447, k = 0.047859
        32        34        46     1      121.174156      369.512077    ;  uncertainty theta = 0.003803, k = 0.091835
        33        32        34     1      119.985573      271.989144    ;  uncertainty theta = 0.001574, k = 0.037716
        34        35        36     1      110.653702      501.154791    ;  uncertainty theta = 0.000598, k = 0.086899
        34        46        47     1      119.782959      277.148949    ;  uncertainty theta = 0.002164, k = 0.022681
        35        34        46     1      119.743996      419.761032    ;  uncertainty theta = 0.004897, k = 0.128172
        35        36        37     1      108.615234      575.898654    ;  uncertainty theta = 0.002475, k = 0.034529
        35        36        41     1      108.615234      575.898654    ;  uncertainty theta = 0.002475, k = 0.034529
        35        36        45     1      105.725815      432.889245    ;  uncertainty theta = 0.003832, k = 0.111610
        36        37        38     1      107.491333      398.703770    ;  uncertainty theta = 0.001029, k = 0.049137
        36        37        39     1      107.491333      398.703770    ;  uncertainty theta = 0.001029, k = 0.049137
        36        37        40     1      107.491333      398.703770    ;  uncertainty theta = 0.001029, k = 0.049137
        36        41        42     1      107.491333      398.703770    ;  uncertainty theta = 0.001029, k = 0.049137
        36        41        43     1      107.491333      398.703770    ;  uncertainty theta = 0.001029, k = 0.049137
        36        41        44     1      107.491333      398.703770    ;  uncertainty theta = 0.001029, k = 0.049137
        37        36        41     1      112.302734      598.431641    ;  uncertainty theta = 0.002172, k = 0.067360
        37        36        45     1      108.811195      412.549895    ;  uncertainty theta = 0.002838, k = 0.026123
        38        37        39     1      105.459518      316.176866    ;  uncertainty theta = 0.001691, k = 0.010553
        38        37        40     1      105.459518      316.176866    ;  uncertainty theta = 0.001691, k = 0.010553
        39        37        40     1      105.459518      316.176866    ;  uncertainty theta = 0.001691, k = 0.010553
        41        36        45     1      108.811195      412.549895    ;  uncertainty theta = 0.002838, k = 0.026123
        42        41        43     1      105.459518      316.176866    ;  uncertainty theta = 0.001691, k = 0.010553
        42        41        44     1      105.459518      316.176866    ;  uncertainty theta = 0.001691, k = 0.010553
        43        41        44     1      105.459518      316.176866    ;  uncertainty theta = 0.001691, k = 0.010553
        49        11        53     1      110.900230      580.347218    ;  uncertainty theta = 0.002949, k = 0.067890
        50        49        51     1      106.043396      316.610518    ;  uncertainty theta = 0.000878, k = 0.018252
        50        49        52     1      106.043396      316.610518    ;  uncertainty theta = 0.000878, k = 0.018252
        51        49        52     1      106.043396      316.610518    ;  uncertainty theta = 0.000878, k = 0.018252
        54        53        55     1      106.043396      316.610518    ;  uncertainty theta = 0.000878, k = 0.018252
        54        53        56     1      106.043396      316.610518    ;  uncertainty theta = 0.000878, k = 0.018252
        55        53        56     1      106.043396      316.610518    ;  uncertainty theta = 0.000878, k = 0.018252

[ dihedrals ] ; propers for gromacs 4.5 or higher, use funct 9
;       ai        aj        ak        al funct           phase               k        pn
         1         2         4         5     9        0.000000        0.050158         1    ;  uncertainty k = 0.060064
         1         2         4         5     9      180.000000        8.352883         2    ;  uncertainty k = 0.444150
         1         2         4         5     9        0.000000        1.368533         3    ;  uncertainty k = 0.283146
         1         2         4         5     9      180.000000        1.908496         4    ;  uncertainty k = 0.249621
         1         2         4         6     9        0.000000       -0.053844         1    ;  uncertainty k = 0.392370
         1         2         4         6     9      180.000000       14.168904         2    ;  uncertainty k = 0.232590
         1         2         4         6     9        0.000000       -0.335341         3    ;  uncertainty k = 0.409067
         1         2         4         6     9      180.000000        0.933423         4    ;  uncertainty k = 0.224039
         1         8         7         6     9        0.000000       -0.297983         1    ;  uncertainty k = 0.188426
         1         8         7         6     9      180.000000       10.986745         2    ;  uncertainty k = 0.448494
         1         8         7         6     9        0.000000       -0.049453         3    ;  uncertainty k = 0.122191
         1         8         7         6     9      180.000000        1.157843         4    ;  uncertainty k = 0.325301
         1         8         7        15     9        0.000000        0.408461         1    ;  uncertainty k = 0.248035
         1         8         7        15     9      180.000000        8.848558         2    ;  uncertainty k = 0.407714
         1         8         7        15     9        0.000000        1.653256         3    ;  uncertainty k = 0.211920
         1         8         7        15     9      180.000000        1.927918         4    ;  uncertainty k = 0.366033
         1        21        29        30     9        0.000000       -0.236242         1    ;  uncertainty k = 0.322891
         1        21        29        30     9      180.000000        7.017318         2    ;  uncertainty k = 0.413152
         1        21        29        30     9        0.000000        0.843618         3    ;  uncertainty k = 0.131480
         1        21        29        30     9      180.000000        1.160235         4    ;  uncertainty k = 0.194054
         1        21        29        31     9        0.000000       -0.056689         1    ;  uncertainty k = 0.219299
         1        21        29        31     9      180.000000        8.742109         2    ;  uncertainty k = 0.615128
         1        21        29        31     9        0.000000        1.160466         3    ;  uncertainty k = 0.411028
         1        21        29        31     9      180.000000        1.733852         4    ;  uncertainty k = 0.142662
         1        21        46        34     9        0.000000        0.016176         1    ;  uncertainty k = 0.219869
         1        21        46        34     9      180.000000        8.813567         2    ;  uncertainty k = 0.598050
         1        21        46        34     9        0.000000        1.202213         3    ;  uncertainty k = 0.389313
         1        21        46        34     9      180.000000        1.646094         4    ;  uncertainty k = 0.179560
         1        21        46        47     9        0.000000       -0.238990         1    ;  uncertainty k = 0.347043
         1        21        46        47     9      180.000000        7.235662         2    ;  uncertainty k = 0.391603
         1        21        46        47     9        0.000000        0.821883         3    ;  uncertainty k = 0.173859
         1        21        46        47     9      180.000000        1.126891         4    ;  uncertainty k = 0.244291
         2         1         8         7     9        0.000000        0.211707         1    ;  uncertainty k = 0.507463
         2         1         8         7     9      180.000000       10.489304         2    ;  uncertainty k = 0.407117
         2         1         8         7     9        0.000000       -0.144880         3    ;  uncertainty k = 0.307890
         2         1         8         7     9      180.000000        1.174174         4    ;  uncertainty k = 0.392135
         2         1         8         9     9        0.000000        0.149840         1    ;  uncertainty k = 0.300364
         2         1         8         9     9      180.000000        7.417064         2    ;  uncertainty k = 0.625682
         2         1         8         9     9        0.000000        1.350473         3    ;  uncertainty k = 0.192110
         2         1         8         9     9      180.000000        1.670988         4    ;  uncertainty k = 0.261434
         2         1        21        29     9        0.000000       -0.375355         1    ;  uncertainty k = 0.354614
         2         1        21        29     9      180.000000        4.016060         2    ;  uncertainty k = 0.120419
         2         1        21        29     9        0.000000        0.333112         3    ;  uncertainty k = 0.080903
         2         1        21        29     9      180.000000       -0.034136         4    ;  uncertainty k = 0.024238
         2         1        21        46     9        0.000000       -0.291751         1    ;  uncertainty k = 0.399431
         2         1        21        46     9      180.000000        4.050923         2    ;  uncertainty k = 0.186577
         2         1        21        46     9        0.000000        0.308632         3    ;  uncertainty k = 0.161310
         2         1        21        46     9      180.000000       -0.006489         4    ;  uncertainty k = 0.070510
         2         4         6         7     9        0.000000        0.214863         1    ;  uncertainty k = 0.437118
         2         4         6         7     9      180.000000        7.808154         2    ;  uncertainty k = 0.549355
         2         4         6         7     9        0.000000        0.200021         3    ;  uncertainty k = 0.543484
         2         4         6         7     9      180.000000        1.302184         4    ;  uncertainty k = 0.240864
         2         4         6        10     9        0.000000        0.371444         1    ;  uncertainty k = 0.218852
         2         4         6        10     9      180.000000       11.420675         2    ;  uncertainty k = 0.283685
         2         4         6        10     9        0.000000        1.317991         3    ;  uncertainty k = 0.223096
         2         4         6        10     9      180.000000        1.545231         4    ;  uncertainty k = 0.131504
         3         2         1         8     9        0.000000        0.201612         1    ;  uncertainty k = 0.298581
         3         2         1         8     9      180.000000        6.777436         2    ;  uncertainty k = 0.485744
         3         2         1         8     9        0.000000        1.320483         3    ;  uncertainty k = 0.243789
         3         2         1         8     9      180.000000        1.546577         4    ;  uncertainty k = 0.282282
         3         2         1        21     9        0.000000       -0.207765         1    ;  uncertainty k = 0.360874
         3         2         1        21     9      180.000000        7.116856         2    ;  uncertainty k = 0.363513
         3         2         1        21     9        0.000000        0.811247         3    ;  uncertainty k = 0.167744
         3         2         1        21     9      180.000000        1.165422         4    ;  uncertainty k = 0.188459
         3         2         4         5     9        0.000000        0.025279         1    ;  uncertainty k = 0.361523
         3         2         4         5     9      180.000000        7.978306         2    ;  uncertainty k = 0.296130
         3         2         4         5     9        0.000000       -0.407095         3    ;  uncertainty k = 0.351032
         3         2         4         5     9      180.000000        0.202278         4    ;  uncertainty k = 0.133160
         3         2         4         6     9        0.000000        0.287758         1    ;  uncertainty k = 0.249638
         3         2         4         6     9      180.000000        8.768124         2    ;  uncertainty k = 0.408739
         3         2         4         6     9        0.000000        1.325866         3    ;  uncertainty k = 0.304196
         3         2         4         6     9      180.000000        1.727245         4    ;  uncertainty k = 0.217766
         4         2         1         8     9        0.000000        0.071908         1    ;  uncertainty k = 0.293009
         4         2         1         8     9      180.000000       10.558783         2    ;  uncertainty k = 0.254028
         4         2         1         8     9        0.000000       -0.398967         3    ;  uncertainty k = 0.264323
         4         2         1         8     9      180.000000        1.038592         4    ;  uncertainty k = 0.178519
         4         2         1        21     9        0.000000        0.027496         1    ;  uncertainty k = 0.276113
         4         2         1        21     9      180.000000        8.396319         2    ;  uncertainty k = 0.511940
         4         2         1        21     9        0.000000        1.112926         3    ;  uncertainty k = 0.396761
         4         2         1        21     9      180.000000        1.802559         4    ;  uncertainty k = 0.140322
         4         6         7         8     9        0.000000       -0.024302         1    ;  uncertainty k = 0.185564
         4         6         7         8     9      180.000000        6.939175         2    ;  uncertainty k = 0.467225
         4         6         7         8     9        0.000000        0.361257         3    ;  uncertainty k = 0.294715
         4         6         7         8     9      180.000000        1.357296         4    ;  uncertainty k = 0.258045
         4         6         7        15     9        0.000000        0.348935         1    ;  uncertainty k = 0.173791
         4         6         7        15     9      180.000000        5.007786         2    ;  uncertainty k = 0.411251
         4         6         7        15     9        0.000000        1.468368         3    ;  uncertainty k = 0.261774
         4         6         7        15     9      180.000000        1.669236         4    ;  uncertainty k = 0.209865
         4         6        10        11     9        0.000000       -0.006126         1    ;  uncertainty k = 0.860183
         4         6        10        11     9      180.000000        1.463692         2    ;  uncertainty k = 0.468672
         4         6        10        11     9        0.000000        0.942767         3    ;  uncertainty k = 0.141382
         4         6        10        11     9      180.000000        0.269400         4    ;  uncertainty k = 0.169428
         5         4         6         7     9        0.000000        0.319226         1    ;  uncertainty k = 0.558349
         5         4         6         7     9      180.000000        5.772399         2    ;  uncertainty k = 0.428881
         5         4         6         7     9        0.000000        1.337220         3    ;  uncertainty k = 0.195636
         5         4         6         7     9      180.000000        1.401976         4    ;  uncertainty k = 0.132735
         5         4         6        10     9        0.000000       -0.143362         1    ;  uncertainty k = 0.595170
         5         4         6        10     9      180.000000        8.971333         2    ;  uncertainty k = 0.422660
         5         4         6        10     9        0.000000        0.767158         3    ;  uncertainty k = 0.278987
         5         4         6        10     9      180.000000        1.249859         4    ;  uncertainty k = 0.280971
         6         7         8         9     9        0.000000        0.261142         1    ;  uncertainty k = 0.444638
         6         7         8         9     9      180.000000        7.886567         2    ;  uncertainty k = 0.701412
         6         7         8         9     9        0.000000        1.275188         3    ;  uncertainty k = 0.213636
         6         7         8         9     9      180.000000        1.656070         4    ;  uncertainty k = 0.156100
         6         7        15        12     9        0.000000       -0.553827         1    ;  uncertainty k = 1.466850
         6         7        15        12     9      180.000000        0.634513         2    ;  uncertainty k = 0.585096
         6         7        15        12     9        0.000000        0.297861         3    ;  uncertainty k = 0.330860
         6         7        15        12     9      180.000000        0.274107         4    ;  uncertainty k = 0.208342
         6         7        15        16     9        0.000000        2.102711         1    ;  uncertainty k = 2.528116
         6         7        15        16     9      180.000000        0.546699         2    ;  uncertainty k = 1.018066
         6         7        15        16     9        0.000000        0.457521         3    ;  uncertainty k = 0.289759
         6         7        15        16     9      180.000000        0.336866         4    ;  uncertainty k = 0.183129
         6         7        15        19     9        0.000000       -1.847814         1    ;  uncertainty k = 1.697255
         6         7        15        19     9      180.000000        1.430867         2    ;  uncertainty k = 0.383929
         6         7        15        19     9        0.000000        0.601224         3    ;  uncertainty k = 0.476577
         6         7        15        19     9      180.000000        0.025936         4    ;  uncertainty k = 0.174309
         6        10        11        12     9        0.000000        4.367103         1    ;  uncertainty k = 0.568223
         6        10        11        12     9      180.000000       -1.721484         2    ;  uncertainty k = 1.273232
         6        10        11        12     9        0.000000       -0.456864         3    ;  uncertainty k = 0.472174
         6        10        11        12     9      180.000000        0.328459         4    ;  uncertainty k = 0.236646
         6        10        11        49     9        0.000000       -1.366437         1    ;  uncertainty k = 0.443902
         6        10        11        49     9      180.000000        1.117988         2    ;  uncertainty k = 0.670204
         6        10        11        49     9        0.000000        0.420512         3    ;  uncertainty k = 0.232671
         6        10        11        49     9      180.000000        0.169724         4    ;  uncertainty k = 0.171412
         6        10        11        53     9        0.000000       -1.366437         1    ;  uncertainty k = 0.443902
         6        10        11        53     9      180.000000        1.117988         2    ;  uncertainty k = 0.670204
         6        10        11        53     9        0.000000        0.420512         3    ;  uncertainty k = 0.232671
         6        10        11        53     9      180.000000        0.169724         4    ;  uncertainty k = 0.171412
         7         6        10        11     9        0.000000        4.306085         1    ;  uncertainty k = 1.768454
         7         6        10        11     9      180.000000       -1.360043         2    ;  uncertainty k = 1.430515
         7         6        10        11     9        0.000000       -0.393905         3    ;  uncertainty k = 0.710259
         7         6        10        11     9      180.000000        0.655625         4    ;  uncertainty k = 0.252123
         7         8         1        21     9        0.000000        0.465326         1    ;  uncertainty k = 0.458960
         7         8         1        21     9      180.000000        8.790198         2    ;  uncertainty k = 0.281224
         7         8         1        21     9        0.000000        1.312626         3    ;  uncertainty k = 0.320418
         7         8         1        21     9      180.000000        1.684871         4    ;  uncertainty k = 0.103994
         7        15        12        11     9        0.000000        1.962873         1    ;  uncertainty k = 1.227301
         7        15        12        11     9      180.000000       -1.078194         2    ;  uncertainty k = 0.502447
         7        15        12        11     9        0.000000        0.369332         3    ;  uncertainty k = 0.176636
         7        15        12        11     9      180.000000       -0.278407         4    ;  uncertainty k = 0.249392
         7        15        12        13     9        0.000000       -0.179115         1    ;  uncertainty k = 0.140621
         7        15        12        13     9      180.000000        0.089626         2    ;  uncertainty k = 0.458905
         7        15        12        13     9        0.000000        0.456477         3    ;  uncertainty k = 0.237033
         7        15        12        13     9      180.000000       -0.095026         4    ;  uncertainty k = 0.141404
         7        15        12        14     9        0.000000       -0.179115         1    ;  uncertainty k = 0.140621
         7        15        12        14     9      180.000000        0.089626         2    ;  uncertainty k = 0.458905
         7        15        12        14     9        0.000000        0.456477         3    ;  uncertainty k = 0.237033
         7        15        12        14     9      180.000000       -0.095026         4    ;  uncertainty k = 0.141404
         7        15        16        17     9        0.000000       -2.280414         1    ;  uncertainty k = 2.717069
         7        15        16        17     9      180.000000        2.456410         2    ;  uncertainty k = 1.222701
         7        15        16        17     9        0.000000        1.453247         3    ;  uncertainty k = 0.188385
         7        15        16        17     9      180.000000        0.681716         4    ;  uncertainty k = 0.441731
         7        15        16        48     9        0.000000       -0.746001         1    ;  uncertainty k = 2.339485
         7        15        16        48     9      180.000000        3.144072         2    ;  uncertainty k = 0.500306
         7        15        16        48     9        0.000000        0.221997         3    ;  uncertainty k = 0.280086
         7        15        16        48     9      180.000000        0.150864         4    ;  uncertainty k = 0.276471
         7        15        19        18     9        0.000000        0.863485         1    ;  uncertainty k = 1.247541
         7        15        19        18     9      180.000000        0.544771         2    ;  uncertainty k = 0.542404
         7        15        19        18     9        0.000000        0.864493         3    ;  uncertainty k = 0.370882
         7        15        19        18     9      180.000000        0.387104         4    ;  uncertainty k = 0.143944
         7        15        19        20     9        0.000000        0.953248         1    ;  uncertainty k = 2.750545
         7        15        19        20     9      180.000000       -1.060847         2    ;  uncertainty k = 1.247199
         7        15        19        20     9        0.000000        0.527755         3    ;  uncertainty k = 0.498974
         7        15        19        20     9      180.000000       -0.043717         4    ;  uncertainty k = 0.110691
         8         1        21        29     9        0.000000       -0.421727         1    ;  uncertainty k = 0.414015
         8         1        21        29     9      180.000000        4.231598         2    ;  uncertainty k = 0.216289
         8         1        21        29     9        0.000000        0.312582         3    ;  uncertainty k = 0.156300
         8         1        21        29     9      180.000000        0.050369         4    ;  uncertainty k = 0.080475
         8         1        21        46     9        0.000000       -0.367758         1    ;  uncertainty k = 0.482659
         8         1        21        46     9      180.000000        4.273084         2    ;  uncertainty k = 0.256604
         8         1        21        46     9        0.000000        0.260274         3    ;  uncertainty k = 0.214919
         8         1        21        46     9      180.000000        0.069315         4    ;  uncertainty k = 0.039592
         8         7         6        10     9        0.000000        0.502288         1    ;  uncertainty k = 0.334285
         8         7         6        10     9      180.000000        8.131837         2    ;  uncertainty k = 0.246810
         8         7         6        10     9        0.000000        1.516209         3    ;  uncertainty k = 0.284264
         8         7         6        10     9      180.000000        1.564323         4    ;  uncertainty k = 0.188848
         8         7        15        12     9        0.000000       -0.691333         1    ;  uncertainty k = 1.137398
         8         7        15        12     9      180.000000        0.985400         2    ;  uncertainty k = 0.405711
         8         7        15        12     9        0.000000       -0.289961         3    ;  uncertainty k = 0.374786
         8         7        15        12     9      180.000000        0.164090         4    ;  uncertainty k = 0.189301
         8         7        15        16     9        0.000000        0.853117         1    ;  uncertainty k = 1.974013
         8         7        15        16     9      180.000000        0.166248         2    ;  uncertainty k = 0.609933
         8         7        15        16     9        0.000000        0.128488         3    ;  uncertainty k = 0.275120
         8         7        15        16     9      180.000000        0.312202         4    ;  uncertainty k = 0.133232
         8         7        15        19     9        0.000000       -0.405631         1    ;  uncertainty k = 0.831937
         8         7        15        19     9      180.000000        1.964315         2    ;  uncertainty k = 0.372178
         8         7        15        19     9        0.000000       -0.051018         3    ;  uncertainty k = 0.360156
         8         7        15        19     9      180.000000        0.092103         4    ;  uncertainty k = 0.251996
         9         8         1        21     9        0.000000       -0.092829         1    ;  uncertainty k = 0.258720
         9         8         1        21     9      180.000000        7.478980         2    ;  uncertainty k = 0.338026
         9         8         1        21     9        0.000000        0.886354         3    ;  uncertainty k = 0.178562
         9         8         1        21     9      180.000000        1.317062         4    ;  uncertainty k = 0.139796
         9         8         7        15     9        0.000000       -0.372295         1    ;  uncertainty k = 0.437955
         9         8         7        15     9      180.000000        6.783379         2    ;  uncertainty k = 0.317440
         9         8         7        15     9        0.000000        0.965065         3    ;  uncertainty k = 0.301999
         9         8         7        15     9      180.000000        1.269073         4    ;  uncertainty k = 0.233090
        10         6         7        15     9        0.000000        0.498340         1    ;  uncertainty k = 0.988077
        10         6         7        15     9      180.000000        5.670085         2    ;  uncertainty k = 0.712561
        10         6         7        15     9        0.000000        1.748936         3    ;  uncertainty k = 0.456836
        10         6         7        15     9      180.000000        1.062497         4    ;  uncertainty k = 0.416588
        10        11        12        13     9        0.000000       -1.286357         1    ;  uncertainty k = 0.418982
        10        11        12        13     9      180.000000       -0.843338         2    ;  uncertainty k = 0.564486
        10        11        12        13     9        0.000000        0.398057         3    ;  uncertainty k = 0.233267
        10        11        12        13     9      180.000000       -0.189590         4    ;  uncertainty k = 0.165011
        10        11        12        14     9        0.000000       -1.286357         1    ;  uncertainty k = 0.418982
        10        11        12        14     9      180.000000       -0.843338         2    ;  uncertainty k = 0.564486
        10        11        12        14     9        0.000000        0.398057         3    ;  uncertainty k = 0.233267
        10        11        12        14     9      180.000000       -0.189590         4    ;  uncertainty k = 0.165011
        10        11        12        15     9        0.000000        7.476955         1    ;  uncertainty k = 0.712372
        10        11        12        15     9      180.000000       -4.264126         2    ;  uncertainty k = 1.996417
        10        11        12        15     9        0.000000       -0.268865         3    ;  uncertainty k = 0.560592
        10        11        12        15     9      180.000000       -0.018620         4    ;  uncertainty k = 0.403705
        10        11        49        50     9        0.000000       -0.556685         1    ;  uncertainty k = 0.641512
        10        11        49        50     9      180.000000       -2.127823         2    ;  uncertainty k = 0.599046
        10        11        49        50     9        0.000000        0.863808         3    ;  uncertainty k = 0.110663
        10        11        49        50     9      180.000000       -0.195070         4    ;  uncertainty k = 0.150407
        10        11        49        51     9        0.000000       -0.556685         1    ;  uncertainty k = 0.641512
        10        11        49        51     9      180.000000       -2.127823         2    ;  uncertainty k = 0.599046
        10        11        49        51     9        0.000000        0.863808         3    ;  uncertainty k = 0.110663
        10        11        49        51     9      180.000000       -0.195070         4    ;  uncertainty k = 0.150407
        10        11        49        52     9        0.000000       -0.556685         1    ;  uncertainty k = 0.641512
        10        11        49        52     9      180.000000       -2.127823         2    ;  uncertainty k = 0.599046
        10        11        49        52     9        0.000000        0.863808         3    ;  uncertainty k = 0.110663
        10        11        49        52     9      180.000000       -0.195070         4    ;  uncertainty k = 0.150407
        10        11        53        54     9        0.000000       -0.556685         1    ;  uncertainty k = 0.641512
        10        11        53        54     9      180.000000       -2.127823         2    ;  uncertainty k = 0.599046
        10        11        53        54     9        0.000000        0.863808         3    ;  uncertainty k = 0.110663
        10        11        53        54     9      180.000000       -0.195070         4    ;  uncertainty k = 0.150407
        10        11        53        55     9        0.000000       -0.556685         1    ;  uncertainty k = 0.641512
        10        11        53        55     9      180.000000       -2.127823         2    ;  uncertainty k = 0.599046
        10        11        53        55     9        0.000000        0.863808         3    ;  uncertainty k = 0.110663
        10        11        53        55     9      180.000000       -0.195070         4    ;  uncertainty k = 0.150407
        10        11        53        56     9        0.000000       -0.556685         1    ;  uncertainty k = 0.641512
        10        11        53        56     9      180.000000       -2.127823         2    ;  uncertainty k = 0.599046
        10        11        53        56     9        0.000000        0.863808         3    ;  uncertainty k = 0.110663
        10        11        53        56     9      180.000000       -0.195070         4    ;  uncertainty k = 0.150407
        11        12        15        16     9        0.000000       -1.228978         1    ;  uncertainty k = 1.347491
        11        12        15        16     9      180.000000       -0.515847         2    ;  uncertainty k = 0.500826
        11        12        15        16     9        0.000000        0.433214         3    ;  uncertainty k = 0.247206
        11        12        15        16     9      180.000000       -0.080465         4    ;  uncertainty k = 0.226810
        11        12        15        19     9        0.000000       -2.978697         1    ;  uncertainty k = 1.009148
        11        12        15        19     9      180.000000       -1.349811         2    ;  uncertainty k = 1.012802
        11        12        15        19     9        0.000000        1.198772         3    ;  uncertainty k = 0.505781
        11        12        15        19     9      180.000000        0.002053         4    ;  uncertainty k = 0.225805
        12        11        49        50     9        0.000000       -0.810618         1    ;  uncertainty k = 0.476463
        12        11        49        50     9      180.000000       -0.740441         2    ;  uncertainty k = 0.208398
        12        11        49        50     9        0.000000        0.585176         3    ;  uncertainty k = 0.093112
        12        11        49        50     9      180.000000       -0.179618         4    ;  uncertainty k = 0.029902
        12        11        49        51     9        0.000000       -0.810618         1    ;  uncertainty k = 0.476463
        12        11        49        51     9      180.000000       -0.740441         2    ;  uncertainty k = 0.208398
        12        11        49        51     9        0.000000        0.585176         3    ;  uncertainty k = 0.093112
        12        11        49        51     9      180.000000       -0.179618         4    ;  uncertainty k = 0.029902
        12        11        49        52     9        0.000000       -0.810618         1    ;  uncertainty k = 0.476463
        12        11        49        52     9      180.000000       -0.740441         2    ;  uncertainty k = 0.208398
        12        11        49        52     9        0.000000        0.585176         3    ;  uncertainty k = 0.093112
        12        11        49        52     9      180.000000       -0.179618         4    ;  uncertainty k = 0.029902
        12        11        53        54     9        0.000000       -0.810618         1    ;  uncertainty k = 0.476463
        12        11        53        54     9      180.000000       -0.740441         2    ;  uncertainty k = 0.208398
        12        11        53        54     9        0.000000        0.585176         3    ;  uncertainty k = 0.093112
        12        11        53        54     9      180.000000       -0.179618         4    ;  uncertainty k = 0.029902
        12        11        53        55     9        0.000000       -0.810618         1    ;  uncertainty k = 0.476463
        12        11        53        55     9      180.000000       -0.740441         2    ;  uncertainty k = 0.208398
        12        11        53        55     9        0.000000        0.585176         3    ;  uncertainty k = 0.093112
        12        11        53        55     9      180.000000       -0.179618         4    ;  uncertainty k = 0.029902
        12        11        53        56     9        0.000000       -0.810618         1    ;  uncertainty k = 0.476463
        12        11        53        56     9      180.000000       -0.740441         2    ;  uncertainty k = 0.208398
        12        11        53        56     9        0.000000        0.585176         3    ;  uncertainty k = 0.093112
        12        11        53        56     9      180.000000       -0.179618         4    ;  uncertainty k = 0.029902
        12        15        16        17     9        0.000000       -3.062352         1    ;  uncertainty k = 1.276839
        12        15        16        17     9      180.000000        2.894127         2    ;  uncertainty k = 0.258588
        12        15        16        17     9        0.000000        0.860445         3    ;  uncertainty k = 0.091746
        12        15        16        17     9      180.000000        0.587117         4    ;  uncertainty k = 0.338989
        12        15        16        48     9        0.000000       -0.574292         1    ;  uncertainty k = 2.046094
        12        15        16        48     9      180.000000        3.928919         2    ;  uncertainty k = 1.075276
        12        15        16        48     9        0.000000        0.161227         3    ;  uncertainty k = 0.381109
        12        15        16        48     9      180.000000        0.057219         4    ;  uncertainty k = 0.338212
        12        15        19        18     9        0.000000       -0.720185         1    ;  uncertainty k = 0.363424
        12        15        19        18     9      180.000000        1.466373         2    ;  uncertainty k = 0.671881
        12        15        19        18     9        0.000000        0.362475         3    ;  uncertainty k = 0.242092
        12        15        19        18     9      180.000000        0.276221         4    ;  uncertainty k = 0.143829
        12        15        19        20     9        0.000000        1.014477         1    ;  uncertainty k = 3.207549
        12        15        19        20     9      180.000000       -0.447187         2    ;  uncertainty k = 0.880594
        12        15        19        20     9        0.000000        0.406773         3    ;  uncertainty k = 0.479851
        12        15        19        20     9      180.000000        0.075628         4    ;  uncertainty k = 0.078933
        13        12        11        49     9        0.000000       -0.868529         1    ;  uncertainty k = 0.359708
        13        12        11        49     9      180.000000        0.339049         2    ;  uncertainty k = 0.271426
        13        12        11        49     9        0.000000        0.030221         3    ;  uncertainty k = 0.169820
        13        12        11        49     9      180.000000       -0.198172         4    ;  uncertainty k = 0.102797
        13        12        11        53     9        0.000000       -0.868529         1    ;  uncertainty k = 0.359708
        13        12        11        53     9      180.000000        0.339049         2    ;  uncertainty k = 0.271426
        13        12        11        53     9        0.000000        0.030221         3    ;  uncertainty k = 0.169820
        13        12        11        53     9      180.000000       -0.198172         4    ;  uncertainty k = 0.102797
        13        12        15        16     9        0.000000        0.636692         1    ;  uncertainty k = 0.443881
        13        12        15        16     9      180.000000       -1.082831         2    ;  uncertainty k = 0.432291
        13        12        15        16     9        0.000000        0.083911         3    ;  uncertainty k = 0.203429
        13        12        15        16     9      180.000000       -0.053905         4    ;  uncertainty k = 0.095175
        13        12        15        19     9        0.000000       -1.014378         1    ;  uncertainty k = 0.666770
        13        12        15        19     9      180.000000       -0.206347         2    ;  uncertainty k = 0.431023
        13        12        15        19     9        0.000000        0.529827         3    ;  uncertainty k = 0.228576
        13        12        15        19     9      180.000000       -0.286824         4    ;  uncertainty k = 0.129461
        14        12        11        49     9        0.000000       -0.868529         1    ;  uncertainty k = 0.359708
        14        12        11        49     9      180.000000        0.339049         2    ;  uncertainty k = 0.271426
        14        12        11        49     9        0.000000        0.030221         3    ;  uncertainty k = 0.169820
        14        12        11        49     9      180.000000       -0.198172         4    ;  uncertainty k = 0.102797
        14        12        11        53     9        0.000000       -0.868529         1    ;  uncertainty k = 0.359708
        14        12        11        53     9      180.000000        0.339049         2    ;  uncertainty k = 0.271426
        14        12        11        53     9        0.000000        0.030221         3    ;  uncertainty k = 0.169820
        14        12        11        53     9      180.000000       -0.198172         4    ;  uncertainty k = 0.102797
        14        12        15        16     9        0.000000        0.636692         1    ;  uncertainty k = 0.443881
        14        12        15        16     9      180.000000       -1.082831         2    ;  uncertainty k = 0.432291
        14        12        15        16     9        0.000000        0.083911         3    ;  uncertainty k = 0.203429
        14        12        15        16     9      180.000000       -0.053905         4    ;  uncertainty k = 0.095175
        14        12        15        19     9        0.000000       -1.014378         1    ;  uncertainty k = 0.666770
        14        12        15        19     9      180.000000       -0.206347         2    ;  uncertainty k = 0.431023
        14        12        15        19     9        0.000000        0.529827         3    ;  uncertainty k = 0.228576
        14        12        15        19     9      180.000000       -0.286824         4    ;  uncertainty k = 0.129461
        15        12        11        49     9        0.000000       -0.394043         1    ;  uncertainty k = 0.952250
        15        12        11        49     9      180.000000       -0.298782         2    ;  uncertainty k = 0.210060
        15        12        11        49     9        0.000000        0.102279         3    ;  uncertainty k = 0.252570
        15        12        11        49     9      180.000000       -0.158350         4    ;  uncertainty k = 0.062640
        15        12        11        53     9        0.000000       -0.394043         1    ;  uncertainty k = 0.952250
        15        12        11        53     9      180.000000       -0.298782         2    ;  uncertainty k = 0.210060
        15        12        11        53     9        0.000000        0.102279         3    ;  uncertainty k = 0.252570
        15        12        11        53     9      180.000000       -0.158350         4    ;  uncertainty k = 0.062640
        15        16        17        18     9        0.000000        3.190561         1    ;  uncertainty k = 2.129280
        15        16        17        18     9      180.000000        4.165517         2    ;  uncertainty k = 2.103257
        15        16        17        18     9        0.000000       -0.163634         3    ;  uncertainty k = 0.825879
        15        16        17        18     9      180.000000        0.629686         4    ;  uncertainty k = 0.355315
        15        16        17        22     9        0.000000        4.948397         1    ;  uncertainty k = 2.742747
        15        16        17        22     9      180.000000        3.665594         2    ;  uncertainty k = 2.655463
        15        16        17        22     9        0.000000        1.132039         3    ;  uncertainty k = 0.860258
        15        16        17        22     9      180.000000        0.328976         4    ;  uncertainty k = 0.593115
        15        19        18        17     9        0.000000        1.152349         1    ;  uncertainty k = 2.624977
        15        19        18        17     9      180.000000       15.352878         2    ;  uncertainty k = 0.482589
        15        19        18        17     9        0.000000       -0.706328         3    ;  uncertainty k = 1.011989
        15        19        18        17     9      180.000000       -0.606107         4    ;  uncertainty k = 0.206718
        15        19        18        26     9        0.000000        3.692759         1    ;  uncertainty k = 0.866356
        15        19        18        26     9      180.000000       11.333780         2    ;  uncertainty k = 0.611404
        15        19        18        26     9        0.000000        0.314850         3    ;  uncertainty k = 0.239643
        15        19        18        26     9      180.000000       -0.482788         4    ;  uncertainty k = 0.513934
        16        15        19        18     9        0.000000        1.075899         1    ;  uncertainty k = 0.686753
        16        15        19        18     9      180.000000        2.337056         2    ;  uncertainty k = 0.668402
        16        15        19        18     9        0.000000        0.174345         3    ;  uncertainty k = 0.624028
        16        15        19        18     9      180.000000        0.491041         4    ;  uncertainty k = 0.337525
        16        15        19        20     9        0.000000        1.870130         1    ;  uncertainty k = 2.124003
        16        15        19        20     9      180.000000       -0.788361         2    ;  uncertainty k = 0.765206
        16        15        19        20     9        0.000000        0.063928         3    ;  uncertainty k = 0.474210
        16        15        19        20     9      180.000000        0.018852         4    ;  uncertainty k = 0.243518
        16        17        18        19     9        0.000000       -0.598871         1    ;  uncertainty k = 1.517512
        16        17        18        19     9      180.000000        9.023777         2    ;  uncertainty k = 0.890262
        16        17        18        19     9        0.000000       -1.321226         3    ;  uncertainty k = 1.261849
        16        17        18        19     9      180.000000       -0.043685         4    ;  uncertainty k = 0.510427
        16        17        18        26     9        0.000000       -0.742539         1    ;  uncertainty k = 0.884320
        16        17        18        26     9      180.000000        6.821150         2    ;  uncertainty k = 1.300514
        16        17        18        26     9        0.000000        0.216631         3    ;  uncertainty k = 0.558836
        16        17        18        26     9      180.000000       -0.098970         4    ;  uncertainty k = 0.493923
        16        17        22        23     9        0.000000        0.297431         1    ;  uncertainty k = 0.338022
        16        17        22        23     9      180.000000        0.087168         2    ;  uncertainty k = 0.381934
        16        17        22        23     9        0.000000        0.347193         3    ;  uncertainty k = 0.232215
        16        17        22        23     9      180.000000        0.291096         4    ;  uncertainty k = 0.074538
        16        17        22        24     9        0.000000        0.297431         1    ;  uncertainty k = 0.338022
        16        17        22        24     9      180.000000        0.087168         2    ;  uncertainty k = 0.381934
        16        17        22        24     9        0.000000        0.347193         3    ;  uncertainty k = 0.232215
        16        17        22        24     9      180.000000        0.291096         4    ;  uncertainty k = 0.074538
        16        17        22        25     9        0.000000        0.297431         1    ;  uncertainty k = 0.338022
        16        17        22        25     9      180.000000        0.087168         2    ;  uncertainty k = 0.381934
        16        17        22        25     9        0.000000        0.347193         3    ;  uncertainty k = 0.232215
        16        17        22        25     9      180.000000        0.291096         4    ;  uncertainty k = 0.074538
        17        16        15        19     9        0.000000       -0.734672         1    ;  uncertainty k = 2.407400
        17        16        15        19     9      180.000000        6.965369         2    ;  uncertainty k = 1.234531
        17        16        15        19     9        0.000000        0.624658         3    ;  uncertainty k = 0.577006
        17        16        15        19     9      180.000000        0.290059         4    ;  uncertainty k = 0.846479
        17        18        19        20     9        0.000000        4.051322         1    ;  uncertainty k = 3.391115
        17        18        19        20     9      180.000000       10.697180         2    ;  uncertainty k = 0.526601
        17        18        19        20     9        0.000000        1.093668         3    ;  uncertainty k = 0.752546
        17        18        19        20     9      180.000000       -0.389374         4    ;  uncertainty k = 0.265720
        17        18        26        27     9        0.000000        8.080941         1    ;  uncertainty k = 2.061712
        17        18        26        27     9      180.000000        9.353073         2    ;  uncertainty k = 0.455751
        17        18        26        27     9        0.000000        0.960301         3    ;  uncertainty k = 0.478476
        17        18        26        27     9      180.000000       -0.922267         4    ;  uncertainty k = 0.215681
        17        18        26        28     9        0.000000        8.080941         1    ;  uncertainty k = 2.061712
        17        18        26        28     9      180.000000        9.353073         2    ;  uncertainty k = 0.455751
        17        18        26        28     9        0.000000        0.960301         3    ;  uncertainty k = 0.478476
        17        18        26        28     9      180.000000       -0.922267         4    ;  uncertainty k = 0.215681
        18        17        16        48     9        0.000000       -0.225774         1    ;  uncertainty k = 3.237560
        18        17        16        48     9      180.000000        7.660703         2    ;  uncertainty k = 0.931236
        18        17        16        48     9        0.000000        0.373526         3    ;  uncertainty k = 0.816132
        18        17        16        48     9      180.000000        0.053274         4    ;  uncertainty k = 0.298389
        18        17        22        23     9        0.000000       -0.260671         1    ;  uncertainty k = 0.510831
        18        17        22        23     9      180.000000       -1.123799         2    ;  uncertainty k = 0.505443
        18        17        22        23     9        0.000000        0.381297         3    ;  uncertainty k = 0.163929
        18        17        22        23     9      180.000000        0.194836         4    ;  uncertainty k = 0.041789
        18        17        22        24     9        0.000000       -0.260671         1    ;  uncertainty k = 0.510831
        18        17        22        24     9      180.000000       -1.123799         2    ;  uncertainty k = 0.505443
        18        17        22        24     9        0.000000        0.381297         3    ;  uncertainty k = 0.163929
        18        17        22        24     9      180.000000        0.194836         4    ;  uncertainty k = 0.041789
        18        17        22        25     9        0.000000       -0.260671         1    ;  uncertainty k = 0.510831
        18        17        22        25     9      180.000000       -1.123799         2    ;  uncertainty k = 0.505443
        18        17        22        25     9        0.000000        0.381297         3    ;  uncertainty k = 0.163929
        18        17        22        25     9      180.000000        0.194836         4    ;  uncertainty k = 0.041789
        19        15        16        48     9        0.000000        0.024534         1    ;  uncertainty k = 2.213974
        19        15        16        48     9      180.000000        4.149250         2    ;  uncertainty k = 1.312392
        19        15        16        48     9        0.000000        0.407424         3    ;  uncertainty k = 0.206510
        19        15        16        48     9      180.000000        0.443240         4    ;  uncertainty k = 0.158688
        19        18        17        22     9        0.000000       -0.380136         1    ;  uncertainty k = 2.913081
        19        18        17        22     9      180.000000        8.267784         2    ;  uncertainty k = 0.403615
        19        18        17        22     9        0.000000        0.435757         3    ;  uncertainty k = 0.320054
        19        18        17        22     9      180.000000       -0.156996         4    ;  uncertainty k = 0.291188
        19        18        26        27     9        0.000000        6.366443         1    ;  uncertainty k = 1.644722
        19        18        26        27     9      180.000000       10.049531         2    ;  uncertainty k = 0.349760
        19        18        26        27     9        0.000000        1.357511         3    ;  uncertainty k = 0.507490
        19        18        26        27     9      180.000000       -0.656591         4    ;  uncertainty k = 0.287459
        19        18        26        28     9        0.000000        6.366443         1    ;  uncertainty k = 1.644722
        19        18        26        28     9      180.000000       10.049531         2    ;  uncertainty k = 0.349760
        19        18        26        28     9        0.000000        1.357511         3    ;  uncertainty k = 0.507490
        19        18        26        28     9      180.000000       -0.656591         4    ;  uncertainty k = 0.287459
        20        19        18        26     9        0.000000        1.886192         1    ;  uncertainty k = 2.633103
        20        19        18        26     9      180.000000        7.784175         2    ;  uncertainty k = 1.209625
        20        19        18        26     9        0.000000        0.956054         3    ;  uncertainty k = 0.197633
        20        19        18        26     9      180.000000       -0.247909         4    ;  uncertainty k = 0.316191
        21        29        31        32     9        0.000000       -0.017600         1    ;  uncertainty k = 0.280743
        21        29        31        32     9      180.000000       14.383526         2    ;  uncertainty k = 0.229109
        21        29        31        32     9        0.000000       -0.953868         3    ;  uncertainty k = 0.500604
        21        29        31        32     9      180.000000        0.693509         4    ;  uncertainty k = 0.239362
        21        29        31        57     9        0.000000        0.008758         1    ;  uncertainty k = 0.225514
        21        29        31        57     9      180.000000        7.617227         2    ;  uncertainty k = 0.322121
        21        29        31        57     9        0.000000        1.341121         3    ;  uncertainty k = 0.250623
        21        29        31        57     9      180.000000        1.816881         4    ;  uncertainty k = 0.189990
        21        46        34        32     9        0.000000        0.084422         1    ;  uncertainty k = 0.337932
        21        46        34        32     9      180.000000        9.349981         2    ;  uncertainty k = 0.437355
        21        46        34        32     9        0.000000        0.173571         3    ;  uncertainty k = 0.278118
        21        46        34        32     9      180.000000        1.211918         4    ;  uncertainty k = 0.313838
        21        46        34        35     9        0.000000        0.097165         1    ;  uncertainty k = 0.335285
        21        46        34        35     9      180.000000       11.370260         2    ;  uncertainty k = 0.347869
        21        46        34        35     9        0.000000        1.052247         3    ;  uncertainty k = 0.254047
        21        46        34        35     9      180.000000        1.542985         4    ;  uncertainty k = 0.115031
        22        17        16        48     9        0.000000       -0.743118         1    ;  uncertainty k = 3.324160
        22        17        16        48     9      180.000000        8.127734         2    ;  uncertainty k = 0.445128
        22        17        16        48     9        0.000000        0.693460         3    ;  uncertainty k = 0.571372
        22        17        16        48     9      180.000000        0.151177         4    ;  uncertainty k = 0.263311
        22        17        18        26     9        0.000000       -0.067505         1    ;  uncertainty k = 0.784520
        22        17        18        26     9      180.000000        6.890792         2    ;  uncertainty k = 0.817474
        22        17        18        26     9        0.000000        0.975121         3    ;  uncertainty k = 0.584566
        22        17        18        26     9      180.000000       -0.011356         4    ;  uncertainty k = 0.268200
        29        21        46        34     9        0.000000       -0.007483         1    ;  uncertainty k = 0.204387
        29        21        46        34     9      180.000000       11.198073         2    ;  uncertainty k = 0.376430
        29        21        46        34     9        0.000000       -0.149711         3    ;  uncertainty k = 0.214219
        29        21        46        34     9      180.000000        0.996280         4    ;  uncertainty k = 0.241361
        29        21        46        47     9        0.000000        0.231530         1    ;  uncertainty k = 0.161226
        29        21        46        47     9      180.000000        7.030796         2    ;  uncertainty k = 0.524116
        29        21        46        47     9        0.000000        1.514338         3    ;  uncertainty k = 0.228346
        29        21        46        47     9      180.000000        1.629573         4    ;  uncertainty k = 0.195692
        29        31        32        33     9        0.000000        0.144800         1    ;  uncertainty k = 0.092894
        29        31        32        33     9      180.000000        7.578646         2    ;  uncertainty k = 0.347283
        29        31        32        33     9        0.000000        1.541144         3    ;  uncertainty k = 0.259167
        29        31        32        33     9      180.000000        1.829498         4    ;  uncertainty k = 0.123746
        29        31        32        34     9        0.000000       -0.157693         1    ;  uncertainty k = 0.213787
        29        31        32        34     9      180.000000       14.180885         2    ;  uncertainty k = 0.293028
        29        31        32        34     9        0.000000       -0.868842         3    ;  uncertainty k = 0.455805
        29        31        32        34     9      180.000000        0.789912         4    ;  uncertainty k = 0.201826
        30        29        21        46     9        0.000000        0.121431         1    ;  uncertainty k = 0.187377
        30        29        21        46     9      180.000000        6.977571         2    ;  uncertainty k = 0.579605
        30        29        21        46     9        0.000000        1.496356         3    ;  uncertainty k = 0.248650
        30        29        21        46     9      180.000000        1.638427         4    ;  uncertainty k = 0.250242
        30        29        31        32     9        0.000000        0.125478         1    ;  uncertainty k = 0.144697
        30        29        31        32     9      180.000000        7.912028         2    ;  uncertainty k = 0.296160
        30        29        31        32     9        0.000000        1.448132         3    ;  uncertainty k = 0.267228
        30        29        31        32     9      180.000000        1.858842         4    ;  uncertainty k = 0.181925
        30        29        31        57     9        0.000000       -0.076258         1    ;  uncertainty k = 0.203178
        30        29        31        57     9      180.000000        7.591898         2    ;  uncertainty k = 0.367146
        30        29        31        57     9        0.000000       -0.446306         3    ;  uncertainty k = 0.278616
        30        29        31        57     9      180.000000        0.126488         4    ;  uncertainty k = 0.121696
        31        29        21        46     9        0.000000       -0.072488         1    ;  uncertainty k = 0.052163
        31        29        21        46     9      180.000000       11.873010         2    ;  uncertainty k = 0.304822
        31        29        21        46     9        0.000000       -0.522230         3    ;  uncertainty k = 0.367433
        31        29        21        46     9      180.000000        0.814934         4    ;  uncertainty k = 0.298338
        31        32        34        35     9        0.000000        0.077199         1    ;  uncertainty k = 0.324576
        31        32        34        35     9      180.000000       11.032779         2    ;  uncertainty k = 0.477466
        31        32        34        35     9        0.000000        1.157996         3    ;  uncertainty k = 0.259628
        31        32        34        35     9      180.000000        1.624372         4    ;  uncertainty k = 0.157566
        31        32        34        46     9        0.000000       -0.042989         1    ;  uncertainty k = 0.085862
        31        32        34        46     9      180.000000        9.528705         2    ;  uncertainty k = 0.557899
        31        32        34        46     9        0.000000        0.008533         3    ;  uncertainty k = 0.355618
        31        32        34        46     9      180.000000        1.181948         4    ;  uncertainty k = 0.336506
        32        34        35        36     9        0.000000        1.901395         1    ;  uncertainty k = 0.436774
        32        34        35        36     9      180.000000        6.735098         2    ;  uncertainty k = 0.087367
        32        34        35        36     9        0.000000        0.589747         3    ;  uncertainty k = 0.114670
        32        34        35        36     9      180.000000        0.162500         4    ;  uncertainty k = 0.051556
        32        34        46        47     9        0.000000        0.231739         1    ;  uncertainty k = 0.317987
        32        34        46        47     9      180.000000        6.255690         2    ;  uncertainty k = 0.551940
        32        34        46        47     9        0.000000        1.452787         3    ;  uncertainty k = 0.330579
        32        34        46        47     9      180.000000        1.635452         4    ;  uncertainty k = 0.137001
        33        32        31        57     9        0.000000       -0.115381         1    ;  uncertainty k = 0.114774
        33        32        31        57     9      180.000000        7.551676         2    ;  uncertainty k = 0.389569
        33        32        31        57     9        0.000000       -0.424090         3    ;  uncertainty k = 0.266761
        33        32        31        57     9      180.000000        0.106563         4    ;  uncertainty k = 0.135614
        33        32        34        35     9        0.000000       -0.243097         1    ;  uncertainty k = 0.251666
        33        32        34        35     9      180.000000        8.662058         2    ;  uncertainty k = 0.249859
        33        32        34        35     9        0.000000        0.728482         3    ;  uncertainty k = 0.119419
        33        32        34        35     9      180.000000        1.025369         4    ;  uncertainty k = 0.145033
        33        32        34        46     9        0.000000        0.220260         1    ;  uncertainty k = 0.274171
        33        32        34        46     9      180.000000        6.088541         2    ;  uncertainty k = 0.596434
        33        32        34        46     9        0.000000        1.447775         3    ;  uncertainty k = 0.323123
        33        32        34        46     9      180.000000        1.568430         4    ;  uncertainty k = 0.125954
        34        32        31        57     9        0.000000        0.011895         1    ;  uncertainty k = 0.137114
        34        32        31        57     9      180.000000        7.648540         2    ;  uncertainty k = 0.327376
        34        32        31        57     9        0.000000        1.281915         3    ;  uncertainty k = 0.228859
        34        32        31        57     9      180.000000        1.743385         4    ;  uncertainty k = 0.148810
        34        35        36        37     9        0.000000       -0.729891         1    ;  uncertainty k = 0.698525
        34        35        36        37     9      180.000000       -0.085039         2    ;  uncertainty k = 0.159203
        34        35        36        37     9        0.000000        0.824936         3    ;  uncertainty k = 0.034331
        34        35        36        37     9      180.000000        0.416954         4    ;  uncertainty k = 0.095804
        34        35        36        41     9        0.000000       -0.729891         1    ;  uncertainty k = 0.698525
        34        35        36        41     9      180.000000       -0.085039         2    ;  uncertainty k = 0.159203
        34        35        36        41     9        0.000000        0.824936         3    ;  uncertainty k = 0.034331
        34        35        36        41     9      180.000000        0.416954         4    ;  uncertainty k = 0.095804
        34        35        36        45     9        0.000000        0.394584         1    ;  uncertainty k = 0.533340
        34        35        36        45     9      180.000000       -1.083511         2    ;  uncertainty k = 0.281771
        34        35        36        45     9        0.000000        0.541105         3    ;  uncertainty k = 0.075051
        34        35        36        45     9      180.000000        0.202331         4    ;  uncertainty k = 0.057944
        35        34        46        47     9        0.000000       -0.215354         1    ;  uncertainty k = 0.291632
        35        34        46        47     9      180.000000        8.795218         2    ;  uncertainty k = 0.226545
        35        34        46        47     9        0.000000        0.707459         3    ;  uncertainty k = 0.065872
        35        34        46        47     9      180.000000        1.111138         4    ;  uncertainty k = 0.140857
        35        36        37        38     9        0.000000       -0.782443         1    ;  uncertainty k = 0.367417
        35        36        37        38     9      180.000000       -2.456689         2    ;  uncertainty k = 0.289850
        35        36        37        38     9        0.000000        1.048928         3    ;  uncertainty k = 0.114733
        35        36        37        38     9      180.000000       -0.320682         4    ;  uncertainty k = 0.087380
        35        36        37        39     9        0.000000       -0.782443         1    ;  uncertainty k = 0.367417
        35        36        37        39     9      180.000000       -2.456689         2    ;  uncertainty k = 0.289850
        35        36        37        39     9        0.000000        1.048928         3    ;  uncertainty k = 0.114733
        35        36        37        39     9      180.000000       -0.320682         4    ;  uncertainty k = 0.087380
        35        36        37        40     9        0.000000       -0.782443         1    ;  uncertainty k = 0.367417
        35        36        37        40     9      180.000000       -2.456689         2    ;  uncertainty k = 0.289850
        35        36        37        40     9        0.000000        1.048928         3    ;  uncertainty k = 0.114733
        35        36        37        40     9      180.000000       -0.320682         4    ;  uncertainty k = 0.087380
        35        36        41        42     9        0.000000       -0.782443         1    ;  uncertainty k = 0.367417
        35        36        41        42     9      180.000000       -2.456689         2    ;  uncertainty k = 0.289850
        35        36        41        42     9        0.000000        1.048928         3    ;  uncertainty k = 0.114733
        35        36        41        42     9      180.000000       -0.320682         4    ;  uncertainty k = 0.087380
        35        36        41        43     9        0.000000       -0.782443         1    ;  uncertainty k = 0.367417
        35        36        41        43     9      180.000000       -2.456689         2    ;  uncertainty k = 0.289850
        35        36        41        43     9        0.000000        1.048928         3    ;  uncertainty k = 0.114733
        35        36        41        43     9      180.000000       -0.320682         4    ;  uncertainty k = 0.087380
        35        36        41        44     9        0.000000       -0.782443         1    ;  uncertainty k = 0.367417
        35        36        41        44     9      180.000000       -2.456689         2    ;  uncertainty k = 0.289850
        35        36        41        44     9        0.000000        1.048928         3    ;  uncertainty k = 0.114733
        35        36        41        44     9      180.000000       -0.320682         4    ;  uncertainty k = 0.087380
        36        35        34        46     9        0.000000        1.073564         1    ;  uncertainty k = 0.513821
        36        35        34        46     9      180.000000        6.676017         2    ;  uncertainty k = 0.088812
        36        35        34        46     9        0.000000        0.502327         3    ;  uncertainty k = 0.115378
        36        35        34        46     9      180.000000        0.174882         4    ;  uncertainty k = 0.090237
        37        36        41        42     9        0.000000       -1.533397         1    ;  uncertainty k = 0.275365
        37        36        41        42     9      180.000000       -0.031981         2    ;  uncertainty k = 0.086733
        37        36        41        42     9        0.000000        0.971708         3    ;  uncertainty k = 0.032742
        37        36        41        42     9      180.000000       -0.103414         4    ;  uncertainty k = 0.054075
        37        36        41        43     9        0.000000       -1.533397         1    ;  uncertainty k = 0.275365
        37        36        41        43     9      180.000000       -0.031981         2    ;  uncertainty k = 0.086733
        37        36        41        43     9        0.000000        0.971708         3    ;  uncertainty k = 0.032742
        37        36        41        43     9      180.000000       -0.103414         4    ;  uncertainty k = 0.054075
        37        36        41        44     9        0.000000       -1.533397         1    ;  uncertainty k = 0.275365
        37        36        41        44     9      180.000000       -0.031981         2    ;  uncertainty k = 0.086733
        37        36        41        44     9        0.000000        0.971708         3    ;  uncertainty k = 0.032742
        37        36        41        44     9      180.000000       -0.103414         4    ;  uncertainty k = 0.054075
        38        37        36        41     9        0.000000       -1.533397         1    ;  uncertainty k = 0.275365
        38        37        36        41     9      180.000000       -0.031981         2    ;  uncertainty k = 0.086733
        38        37        36        41     9        0.000000        0.971708         3    ;  uncertainty k = 0.032742
        38        37        36        41     9      180.000000       -0.103414         4    ;  uncertainty k = 0.054075
        38        37        36        45     9        0.000000        0.513548         1    ;  uncertainty k = 0.105460
        38        37        36        45     9      180.000000       -0.890901         2    ;  uncertainty k = 0.077035
        38        37        36        45     9        0.000000        0.413463         3    ;  uncertainty k = 0.016956
        38        37        36        45     9      180.000000       -0.063965         4    ;  uncertainty k = 0.053811
        39        37        36        41     9        0.000000       -1.533397         1    ;  uncertainty k = 0.275365
        39        37        36        41     9      180.000000       -0.031981         2    ;  uncertainty k = 0.086733
        39        37        36        41     9        0.000000        0.971708         3    ;  uncertainty k = 0.032742
        39        37        36        41     9      180.000000       -0.103414         4    ;  uncertainty k = 0.054075
        39        37        36        45     9        0.000000        0.513548         1    ;  uncertainty k = 0.105460
        39        37        36        45     9      180.000000       -0.890901         2    ;  uncertainty k = 0.077035
        39        37        36        45     9        0.000000        0.413463         3    ;  uncertainty k = 0.016956
        39        37        36        45     9      180.000000       -0.063965         4    ;  uncertainty k = 0.053811
        40        37        36        41     9        0.000000       -1.533397         1    ;  uncertainty k = 0.275365
        40        37        36        41     9      180.000000       -0.031981         2    ;  uncertainty k = 0.086733
        40        37        36        41     9        0.000000        0.971708         3    ;  uncertainty k = 0.032742
        40        37        36        41     9      180.000000       -0.103414         4    ;  uncertainty k = 0.054075
        40        37        36        45     9        0.000000        0.513548         1    ;  uncertainty k = 0.105460
        40        37        36        45     9      180.000000       -0.890901         2    ;  uncertainty k = 0.077035
        40        37        36        45     9        0.000000        0.413463         3    ;  uncertainty k = 0.016956
        40        37        36        45     9      180.000000       -0.063965         4    ;  uncertainty k = 0.053811
        42        41        36        45     9        0.000000        0.513548         1    ;  uncertainty k = 0.105460
        42        41        36        45     9      180.000000       -0.890901         2    ;  uncertainty k = 0.077035
        42        41        36        45     9        0.000000        0.413463         3    ;  uncertainty k = 0.016956
        42        41        36        45     9      180.000000       -0.063965         4    ;  uncertainty k = 0.053811
        43        41        36        45     9        0.000000        0.513548         1    ;  uncertainty k = 0.105460
        43        41        36        45     9      180.000000       -0.890901         2    ;  uncertainty k = 0.077035
        43        41        36        45     9        0.000000        0.413463         3    ;  uncertainty k = 0.016956
        43        41        36        45     9      180.000000       -0.063965         4    ;  uncertainty k = 0.053811
        44        41        36        45     9        0.000000        0.513548         1    ;  uncertainty k = 0.105460
        44        41        36        45     9      180.000000       -0.890901         2    ;  uncertainty k = 0.077035
        44        41        36        45     9        0.000000        0.413463         3    ;  uncertainty k = 0.016956
        44        41        36        45     9      180.000000       -0.063965         4    ;  uncertainty k = 0.053811
        49        11        53        54     9        0.000000       -1.168308         1    ;  uncertainty k = 0.299692
        49        11        53        54     9      180.000000        0.150758         2    ;  uncertainty k = 0.296599
        49        11        53        54     9        0.000000        0.668939         3    ;  uncertainty k = 0.064920
        49        11        53        54     9      180.000000       -0.104414         4    ;  uncertainty k = 0.091599
        49        11        53        55     9        0.000000       -1.168308         1    ;  uncertainty k = 0.299692
        49        11        53        55     9      180.000000        0.150758         2    ;  uncertainty k = 0.296599
        49        11        53        55     9        0.000000        0.668939         3    ;  uncertainty k = 0.064920
        49        11        53        55     9      180.000000       -0.104414         4    ;  uncertainty k = 0.091599
        49        11        53        56     9        0.000000       -1.168308         1    ;  uncertainty k = 0.299692
        49        11        53        56     9      180.000000        0.150758         2    ;  uncertainty k = 0.296599
        49        11        53        56     9        0.000000        0.668939         3    ;  uncertainty k = 0.064920
        49        11        53        56     9      180.000000       -0.104414         4    ;  uncertainty k = 0.091599
        50        49        11        53     9        0.000000       -1.168308         1    ;  uncertainty k = 0.299692
        50        49        11        53     9      180.000000        0.150758         2    ;  uncertainty k = 0.296599
        50        49        11        53     9        0.000000        0.668939         3    ;  uncertainty k = 0.064920
        50        49        11        53     9      180.000000       -0.104414         4    ;  uncertainty k = 0.091599
        51        49        11        53     9        0.000000       -1.168308         1    ;  uncertainty k = 0.299692
        51        49        11        53     9      180.000000        0.150758         2    ;  uncertainty k = 0.296599
        51        49        11        53     9        0.000000        0.668939         3    ;  uncertainty k = 0.064920
        51        49        11        53     9      180.000000       -0.104414         4    ;  uncertainty k = 0.091599
        52        49        11        53     9        0.000000       -1.168308         1    ;  uncertainty k = 0.299692
        52        49        11        53     9      180.000000        0.150758         2    ;  uncertainty k = 0.296599
        52        49        11        53     9        0.000000        0.668939         3    ;  uncertainty k = 0.064920
        52        49        11        53     9      180.000000       -0.104414         4    ;  uncertainty k = 0.091599

[ dihedrals ] ; impropers
;       ai        aj        ak        al funct           phase               k        pn
         1         2         8        21     4      180.000000       13.670001         2    ;  uncertainty k = 0.095121
         1         8        21         2     4      180.000000       13.670001         2    ;  uncertainty k = 0.095121
         1        21         2         8     4      180.000000       13.670001         2    ;  uncertainty k = 0.095121
         2         1         3         4     4      180.000000        4.728202         2    ;  uncertainty k = 0.188163
         2         3         4         1     4      180.000000        4.728202         2    ;  uncertainty k = 0.188163
         2         4         1         3     4      180.000000        4.728202         2    ;  uncertainty k = 0.188163
         4         2         5         6     4      180.000000        1.916582         2    ;  uncertainty k = 0.189189
         4         5         6         2     4      180.000000        1.916582         2    ;  uncertainty k = 0.189189
         4         6         2         5     4      180.000000        1.916582         2    ;  uncertainty k = 0.189189
         6         4         7        10     4      180.000000       22.038012         2    ;  uncertainty k = 0.126561
         6         7        10         4     4      180.000000       22.038012         2    ;  uncertainty k = 0.126561
         6        10         4         7     4      180.000000       22.038012         2    ;  uncertainty k = 0.126561
         7         6         8        15     4      180.000000       11.758551         2    ;  uncertainty k = 0.248599
         7         8        15         6     4      180.000000       11.758551         2    ;  uncertainty k = 0.248599
         7        15         6         8     4      180.000000       11.758551         2    ;  uncertainty k = 0.248599
         8         1         7         9     4      180.000000        4.842439         2    ;  uncertainty k = 0.390834
         8         7         9         1     4      180.000000        4.842439         2    ;  uncertainty k = 0.390834
         8         9         1         7     4      180.000000        4.842439         2    ;  uncertainty k = 0.390834
        16        15        17        48     4      180.000000       50.512062         2    ;  uncertainty k = 0.072585
        16        17        48        15     4      180.000000       50.512062         2    ;  uncertainty k = 0.072585
        16        48        15        17     4      180.000000       50.512062         2    ;  uncertainty k = 0.072585
        17        16        18        22     4      180.000000        2.066646         2    ;  uncertainty k = 0.825300
        17        18        22        16     4      180.000000        2.066646         2    ;  uncertainty k = 0.825300
        17        22        16        18     4      180.000000        2.066646         2    ;  uncertainty k = 0.825300
        18        17        19        26     4      180.000000       30.892449         2    ;  uncertainty k = 0.146917
        18        19        26        17     4      180.000000       30.892449         2    ;  uncertainty k = 0.146917
        18        26        17        19     4      180.000000       30.892449         2    ;  uncertainty k = 0.146917
        21         1        29        46     4      180.000000       15.108203         2    ;  uncertainty k = 0.054496
        21        29        46         1     4      180.000000       15.108203         2    ;  uncertainty k = 0.054496
        21        46         1        29     4      180.000000       15.108203         2    ;  uncertainty k = 0.054496
        26        18        27        28     4      180.000000        0.184047         2    ;  uncertainty k = 0.411542
        26        27        28        18     4      180.000000        0.184047         2    ;  uncertainty k = 0.411542
        26        28        18        27     4      180.000000        0.184047         2    ;  uncertainty k = 0.411542
        29        21        30        31     4      180.000000        2.901785         2    ;  uncertainty k = 0.101236
        29        30        31        21     4      180.000000        2.901785         2    ;  uncertainty k = 0.101236
        29        31        21        30     4      180.000000        2.901785         2    ;  uncertainty k = 0.101236
        31        29        32        57     4      180.000000        4.402781         2    ;  uncertainty k = 0.104225
        31        32        57        29     4      180.000000        4.402781         2    ;  uncertainty k = 0.104225
        31        57        29        32     4      180.000000        4.402781         2    ;  uncertainty k = 0.104225
        32        31        33        34     4      180.000000        2.195122         2    ;  uncertainty k = 0.201260
        32        33        34        31     4      180.000000        2.195122         2    ;  uncertainty k = 0.201260
        32        34        31        33     4      180.000000        2.195122         2    ;  uncertainty k = 0.201260
        34        32        35        46     4      180.000000       19.871152         2    ;  uncertainty k = 0.081431
        34        35        46        32     4      180.000000       19.871152         2    ;  uncertainty k = 0.081431
        34        46        32        35     4      180.000000       19.871152         2    ;  uncertainty k = 0.081431
        46        21        34        47     4      180.000000        2.307117         2    ;  uncertainty k = 0.231117
        46        34        47        21     4      180.000000        2.307117         2    ;  uncertainty k = 0.231117
        46        47        21        34     4      180.000000        2.307117         2    ;  uncertainty k = 0.231117

[ pairs ]
;       ai        aj funct
         1         5     1
         1         6     1
         1        15     1
         1        30     1
         1        31     1
         1        34     1
         1        47     1
         2         7     1
         2         9     1
         2        10     1
         2        29     1
         2        46     1
         3         5     1
         3         6     1
         3         8     1
         3        21     1
         4         8     1
         4        11     1
         4        15     1
         4        21     1
         5         7     1
         5        10     1
         6         9     1
         6        12     1
         6        16     1
         6        19     1
         6        49     1
         6        53     1
         7        11     1
         7        13     1
         7        14     1
         7        17     1
         7        18     1
         7        20     1
         7        21     1
         7        48     1
         8        10     1
         8        12     1
         8        16     1
         8        19     1
         8        29     1
         8        46     1
         9        15     1
         9        21     1
        10        13     1
        10        14     1
        10        15     1
        10        50     1
        10        51     1
        10        52     1
        10        54     1
        10        55     1
        10        56     1
        11        16     1
        11        19     1
        12        17     1
        12        18     1
        12        20     1
        12        48     1
        12        50     1
        12        51     1
        12        52     1
        12        54     1
        12        55     1
        12        56     1
        13        16     1
        13        19     1
        13        49     1
        13        53     1
        14        16     1
        14        19     1
        14        49     1
        14        53     1
        15        22     1
        15        26     1
        15        49     1
        15        53     1
        16        20     1
        16        23     1
        16        24     1
        16        25     1
        16        26     1
        17        20     1
        17        27     1
        17        28     1
        18        23     1
        18        24     1
        18        25     1
        18        48     1
        19        22     1
        19        27     1
        19        28     1
        19        48     1
        20        26     1
        21        32     1
        21        35     1
        21        57     1
        22        26     1
        22        48     1
        29        33     1
        29        34     1
        29        47     1
        30        32     1
        30        46     1
        30        57     1
        31        35     1
        31        46     1
        32        36     1
        32        47     1
        33        35     1
        33        46     1
        33        57     1
        34        37     1
        34        41     1
        34        45     1
        34        57     1
        35        38     1
        35        39     1
        35        40     1
        35        42     1
        35        43     1
        35        44     1
        35        47     1
        36        46     1
        37        42     1
        37        43     1
        37        44     1
        38        41     1
        38        45     1
        39        41     1
        39        45     1
        40        41     1
        40        45     1
        42        45     1
        43        45     1
        44        45     1
        49        54     1
        49        55     1
        49        56     1
        50        53     1
        51        53     1
        52        53     1
