; ITP file created by ByteFF-joint-25, 2026-03-14 15:25:09.200770

[ atomtypes ]
;name           bonded.type        at.num        mass        charge   ptype           sigma         epsilon
 c0bf                                   6      0.0000       0.00000       A     3.31491e-01     4.13354e-01    ;  uncertainty sigma = 0.000010, epsilon = 0.000509
 c1bf                                   6      0.0000       0.00000       A     3.31511e-01     4.13435e-01    ;  uncertainty sigma = 0.000006, epsilon = 0.000528
 h2bf                                   1      0.0000       0.00000       A     2.62563e-01     6.71382e-02    ;  uncertainty sigma = 0.000008, epsilon = 0.000500
 c3bf                                   6      0.0000       0.00000       A     3.31523e-01     4.13778e-01    ;  uncertainty sigma = 0.000003, epsilon = 0.000961
 h4bf                                   1      0.0000       0.00000       A     2.62561e-01     6.68067e-02    ;  uncertainty sigma = 0.000012, epsilon = 0.000527
 c5bf                                   6      0.0000       0.00000       A     3.31562e-01     4.13129e-01    ;  uncertainty sigma = 0.000021, epsilon = 0.000953
 c6bf                                   6      0.0000       0.00000       A     3.31604e-01     4.12991e-01    ;  uncertainty sigma = 0.000053, epsilon = 0.001665
 c7bf                                   6      0.0000       0.00000       A     3.31541e-01     4.13363e-01    ;  uncertainty sigma = 0.000018, epsilon = 0.001199
 h8bf                                   1      0.0000       0.00000       A     2.62555e-01     6.73758e-02    ;  uncertainty sigma = 0.000015, epsilon = 0.000633
 o9bf                                   8      0.0000       0.00000       A     3.15675e-01     3.03349e-01    ;  uncertainty sigma = 0.000037, epsilon = 0.000709
 c10bf                                  6      0.0000       0.00000       A     3.39754e-01     4.50298e-01    ;  uncertainty sigma = 0.000022, epsilon = 0.001818
 c11bf                                  6      0.0000       0.00000       A     3.39729e-01     4.51261e-01    ;  uncertainty sigma = 0.000015, epsilon = 0.001388
 h12bf                                  1      0.0000       0.00000       A     2.60113e-01     8.69260e-02    ;  uncertainty sigma = 0.000018, epsilon = 0.001362
 h13bf                                  1      0.0000       0.00000       A     2.60113e-01     8.69260e-02    ;  uncertainty sigma = 0.000018, epsilon = 0.001362
 c14bf                                  6      0.0000       0.00000       A     3.39922e-01     4.52078e-01    ;  uncertainty sigma = 0.000044, epsilon = 0.005050
 c15bf                                  6      0.0000       0.00000       A     3.31534e-01     4.13061e-01    ;  uncertainty sigma = 0.000023, epsilon = 0.000770
 n16bf                                  7      0.0000       0.00000       A     3.18159e-01     6.82058e-01    ;  uncertainty sigma = 0.000074, epsilon = 0.006526
 c17bf                                  6      0.0000       0.00000       A     3.31516e-01     4.13029e-01    ;  uncertainty sigma = 0.000046, epsilon = 0.002102
 n18bf                                  7      0.0000       0.00000       A     3.27895e-01     6.51183e-01    ;  uncertainty sigma = 0.000198, epsilon = 0.011723
 h19bf                                  1      0.0000       0.00000       A     1.10796e-01     4.19443e-02    ;  uncertainty sigma = 0.000445, epsilon = 0.001840
 c20bf                                  6      0.0000       0.00000       A     3.31519e-01     4.13235e-01    ;  uncertainty sigma = 0.000009, epsilon = 0.000517
 c21bf                                  6      0.0000       0.00000       A     3.39747e-01     4.51374e-01    ;  uncertainty sigma = 0.000011, epsilon = 0.001160
 h22bf                                  1      0.0000       0.00000       A     2.42212e-01     8.67416e-02    ;  uncertainty sigma = 0.000033, epsilon = 0.000677
 h23bf                                  1      0.0000       0.00000       A     2.42212e-01     8.67416e-02    ;  uncertainty sigma = 0.000033, epsilon = 0.000677
 h24bf                                  1      0.0000       0.00000       A     2.42212e-01     8.67416e-02    ;  uncertainty sigma = 0.000033, epsilon = 0.000677
 n25bf                                  7      0.0000       0.00000       A     3.36518e-01     4.71691e-01    ;  uncertainty sigma = 0.000108, epsilon = 0.006012
 h26bf                                  1      0.0000       0.00000       A     1.10696e-01     4.11175e-02    ;  uncertainty sigma = 0.000127, epsilon = 0.001410
 h27bf                                  1      0.0000       0.00000       A     1.10696e-01     4.11175e-02    ;  uncertainty sigma = 0.000127, epsilon = 0.001410
 c28bf                                  6      0.0000       0.00000       A     3.31519e-01     4.13549e-01    ;  uncertainty sigma = 0.000008, epsilon = 0.000715
 h29bf                                  1      0.0000       0.00000       A     2.62558e-01     6.71030e-02    ;  uncertainty sigma = 0.000012, epsilon = 0.000602
 c30bf                                  6      0.0000       0.00000       A     3.31515e-01     4.13251e-01    ;  uncertainty sigma = 0.000008, epsilon = 0.000503
 f31bf                                  9      0.0000       0.00000       A     3.03438e-01     3.47923e-01    ;  uncertainty sigma = 0.000010, epsilon = 0.000792
 c32bf                                  6      0.0000       0.00000       A     3.31519e-01     4.13373e-01    ;  uncertainty sigma = 0.000004, epsilon = 0.000632
 h33bf                                  1      0.0000       0.00000       A     2.62565e-01     6.71043e-02    ;  uncertainty sigma = 0.000012, epsilon = 0.000451
 c34bf                                  6      0.0000       0.00000       A     3.31523e-01     4.13467e-01    ;  uncertainty sigma = 0.000004, epsilon = 0.000682
 h35bf                                  1      0.0000       0.00000       A     2.62566e-01     6.69673e-02    ;  uncertainty sigma = 0.000009, epsilon = 0.000497
 c36bf                                  6      0.0000       0.00000       A     3.31513e-01     4.13281e-01    ;  uncertainty sigma = 0.000005, epsilon = 0.000653
 h37bf                                  1      0.0000       0.00000       A     2.62562e-01     6.70409e-02    ;  uncertainty sigma = 0.000012, epsilon = 0.000507
 o38bf                                  8      0.0000       0.00000       A     3.04746e-01     6.12575e-01    ;  uncertainty sigma = 0.000054, epsilon = 0.002454
 c39bf                                  6      0.0000       0.00000       A     3.39769e-01     4.50351e-01    ;  uncertainty sigma = 0.000003, epsilon = 0.001331
 h40bf                                  1      0.0000       0.00000       A     2.60031e-01     8.68009e-02    ;  uncertainty sigma = 0.000006, epsilon = 0.000320
 h41bf                                  1      0.0000       0.00000       A     2.60031e-01     8.68009e-02    ;  uncertainty sigma = 0.000006, epsilon = 0.000320
 h42bf                                  1      0.0000       0.00000       A     2.60031e-01     8.68009e-02    ;  uncertainty sigma = 0.000006, epsilon = 0.000320
 c43bf                                  6      0.0000       0.00000       A     3.39769e-01     4.50351e-01    ;  uncertainty sigma = 0.000003, epsilon = 0.001331
 h44bf                                  1      0.0000       0.00000       A     2.60031e-01     8.68009e-02    ;  uncertainty sigma = 0.000006, epsilon = 0.000320
 h45bf                                  1      0.0000       0.00000       A     2.60031e-01     8.68009e-02    ;  uncertainty sigma = 0.000006, epsilon = 0.000320
 h46bf                                  1      0.0000       0.00000       A     2.60031e-01     8.68009e-02    ;  uncertainty sigma = 0.000006, epsilon = 0.000320

[ moleculetype ]
;name             nrexcl
 MOL                   3

[ atoms ]
;       nr            type      resi   res      atom      cgnr      charge          mass ; qtot
         1            c0bf         1   UNL        c0         1    -0.03674       12.0110 ; qtot   -0.037
         2            c1bf         1   UNL        c1         2    -0.06451       12.0110 ; qtot   -0.101
         3            h2bf         1   UNL        h2         3     0.13936        1.0080 ; qtot    0.038
         4            c3bf         1   UNL        c3         4    -0.14994       12.0110 ; qtot   -0.112
         5            h4bf         1   UNL        h4         5     0.15718        1.0080 ; qtot    0.045
         6            c5bf         1   UNL        c5         6     0.18249       12.0110 ; qtot    0.228
         7            c6bf         1   UNL        c6         7    -0.20467       12.0110 ; qtot    0.023
         8            c7bf         1   UNL        c7         8    -0.06217       12.0110 ; qtot   -0.039
         9            h8bf         1   UNL        h8         9     0.14970        1.0080 ; qtot    0.111
        10            o9bf         1   UNL        o9        10    -0.32527       15.9990 ; qtot   -0.215
        11           c10bf         1   UNL       c10        11     0.16563       12.0110 ; qtot   -0.049
        12           c11bf         1   UNL       c11        12    -0.09875       12.0110 ; qtot   -0.148
        13           h12bf         1   UNL       h12        13     0.09101        1.0080 ; qtot   -0.057
        14           h13bf         1   UNL       h13        14     0.09101        1.0080 ; qtot    0.034
        15           c14bf         1   UNL       c14        15     0.04015       12.0110 ; qtot    0.074
        16           c15bf         1   UNL       c15        16     0.70447       12.0110 ; qtot    0.779
        17           n16bf         1   UNL       n16        17    -0.41729       14.0070 ; qtot    0.362
        18           c17bf         1   UNL       c17        18     0.47248       12.0110 ; qtot    0.834
        19           n18bf         1   UNL       n18        19    -0.37461       14.0070 ; qtot    0.460
        20           h19bf         1   UNL       h19        20     0.35504        1.0080 ; qtot    0.815
        21           c20bf         1   UNL       c20        21    -0.01542       12.0110 ; qtot    0.799
        22           c21bf         1   UNL       c21        22     0.07530       12.0110 ; qtot    0.874
        23           h22bf         1   UNL       h22        23     0.09109        1.0080 ; qtot    0.966
        24           h23bf         1   UNL       h23        24     0.09109        1.0080 ; qtot    1.057
        25           h24bf         1   UNL       h24        25     0.09109        1.0080 ; qtot    1.148
        26           n25bf         1   UNL       n25        26    -0.48596       14.0070 ; qtot    0.662
        27           h26bf         1   UNL       h26        27     0.33929        1.0080 ; qtot    1.001
        28           h27bf         1   UNL       h27        28     0.33929        1.0080 ; qtot    1.340
        29           c28bf         1   UNL       c28        29    -0.15770       12.0110 ; qtot    1.183
        30           h29bf         1   UNL       h29        30     0.15397        1.0080 ; qtot    1.337
        31           c30bf         1   UNL       c30        31     0.12591       12.0110 ; qtot    1.463
        32           f31bf         1   UNL       f31        32    -0.14601       18.9980 ; qtot    1.317
        33           c32bf         1   UNL       c32        33    -0.15959       12.0110 ; qtot    1.157
        34           h33bf         1   UNL       h33        34     0.15369        1.0080 ; qtot    1.311
        35           c34bf         1   UNL       c34        35    -0.10439       12.0110 ; qtot    1.206
        36           h35bf         1   UNL       h35        36     0.13993        1.0080 ; qtot    1.346
        37           c36bf         1   UNL       c36        37    -0.13295       12.0110 ; qtot    1.213
        38           h37bf         1   UNL       h37        38     0.13929        1.0080 ; qtot    1.352
        39           o38bf         1   UNL       o38        39    -0.45182       15.9990 ; qtot    0.901
        40           c39bf         1   UNL       c39        40    -0.10337       12.0110 ; qtot    0.797
        41           h40bf         1   UNL       h40        41     0.05101        1.0080 ; qtot    0.848
        42           h41bf         1   UNL       h41        42     0.05101        1.0080 ; qtot    0.899
        43           h42bf         1   UNL       h42        43     0.05101        1.0080 ; qtot    0.950
        44           c43bf         1   UNL       c43        44    -0.10337       12.0110 ; qtot    0.847
        45           h44bf         1   UNL       h44        45     0.05101        1.0080 ; qtot    0.898
        46           h45bf         1   UNL       h45        46     0.05101        1.0080 ; qtot    0.949
        47           h46bf         1   UNL       h46        47     0.05102        1.0080 ; qtot    1.000

[ bonds ]
;       ai        aj funct               r               k
         1         2     1        0.140347   345348.340625    ;  uncertainty r = 0.000046, k = 3.417680
         1         8     1        0.139567   338173.230078    ;  uncertainty r = 0.000100, k = 6.030231
         1        21     1        0.147793   271055.015918    ;  uncertainty r = 0.000063, k = 3.776042
         2         3     1        0.108747   334332.550977    ;  uncertainty r = 0.000025, k = 1.658246
         2         4     1        0.138720   376507.214795    ;  uncertainty r = 0.000065, k = 3.290766
         4         5     1        0.108788   336617.637061    ;  uncertainty r = 0.000017, k = 1.411956
         4         6     1        0.140086   362230.540576    ;  uncertainty r = 0.000052, k = 3.404710
         6         7     1        0.139987   328983.803418    ;  uncertainty r = 0.000163, k = 7.293716
         6        10     1        0.136368   303578.797510    ;  uncertainty r = 0.000194, k = 10.538317
         7         8     1        0.139607   346320.921436    ;  uncertainty r = 0.000123, k = 6.940488
         7        15     1        0.150678   205784.156250    ;  uncertainty r = 0.000110, k = 20.274094
         8         9     1        0.108767   335454.804785    ;  uncertainty r = 0.000067, k = 4.149507
        10        11     1        0.145422   203859.641382    ;  uncertainty r = 0.000221, k = 9.275520
        11        12     1        0.152936   192803.911694    ;  uncertainty r = 0.000262, k = 11.274596
        11        40     1        0.152325   205847.654272    ;  uncertainty r = 0.000037, k = 5.592256
        11        44     1        0.152325   205847.654272    ;  uncertainty r = 0.000037, k = 5.592256
        12        13     1        0.109477   309561.503809    ;  uncertainty r = 0.000048, k = 2.448473
        12        14     1        0.109477   309561.503809    ;  uncertainty r = 0.000048, k = 2.448473
        12        15     1        0.153041   191194.026782    ;  uncertainty r = 0.000126, k = 21.513846
        15        16     1        0.153598   171646.122900    ;  uncertainty r = 0.000173, k = 14.753170
        15        19     1        0.149698   232215.907178    ;  uncertainty r = 0.000407, k = 51.570456
        16        17     1        0.142413   302839.344971    ;  uncertainty r = 0.000236, k = 75.996174
        16        39     1        0.120112   608584.455469    ;  uncertainty r = 0.000161, k = 10.569144
        17        18     1        0.135836   286250.770703    ;  uncertainty r = 0.000260, k = 52.766102
        17        22     1        0.146741   261825.572607    ;  uncertainty r = 0.000154, k = 17.700649
        18        19     1        0.133610   531287.609180    ;  uncertainty r = 0.000191, k = 37.526813
        18        26     1        0.133101   320485.564160    ;  uncertainty r = 0.000146, k = 40.823703
        19        20     1        0.101578   423262.955127    ;  uncertainty r = 0.000083, k = 11.557068
        21        29     1        0.140199   353778.727783    ;  uncertainty r = 0.000062, k = 1.502741
        21        37     1        0.140275   344576.660254    ;  uncertainty r = 0.000018, k = 2.540830
        22        23     1        0.109172   309495.286084    ;  uncertainty r = 0.000053, k = 3.597993
        22        24     1        0.109172   309495.286084    ;  uncertainty r = 0.000053, k = 3.597993
        22        25     1        0.109172   309495.286084    ;  uncertainty r = 0.000053, k = 3.597993
        26        27     1        0.101405   421785.735498    ;  uncertainty r = 0.000064, k = 13.590763
        26        28     1        0.101405   421785.735498    ;  uncertainty r = 0.000064, k = 13.590763
        29        30     1        0.108798   337792.573926    ;  uncertainty r = 0.000025, k = 1.231976
        29        31     1        0.138843   356855.438721    ;  uncertainty r = 0.000036, k = 1.295957
        31        32     1        0.135749   338827.235449    ;  uncertainty r = 0.000023, k = 0.685444
        31        33     1        0.139000   361052.998926    ;  uncertainty r = 0.000025, k = 2.701465
        33        34     1        0.108779   336730.715381    ;  uncertainty r = 0.000011, k = 0.599703
        33        35     1        0.139538   376596.007324    ;  uncertainty r = 0.000024, k = 1.903017
        35        36     1        0.108757   333248.372998    ;  uncertainty r = 0.000009, k = 1.168749
        35        37     1        0.139478   365552.944043    ;  uncertainty r = 0.000025, k = 2.063770
        37        38     1        0.108808   335010.714453    ;  uncertainty r = 0.000030, k = 1.078976
        40        41     1        0.109545   310467.177393    ;  uncertainty r = 0.000018, k = 1.787242
        40        42     1        0.109545   310467.177393    ;  uncertainty r = 0.000018, k = 1.787242
        40        43     1        0.109545   310467.177393    ;  uncertainty r = 0.000018, k = 1.787242
        44        45     1        0.109545   310467.177393    ;  uncertainty r = 0.000018, k = 1.787242
        44        46     1        0.109545   310467.151855    ;  uncertainty r = 0.000018, k = 1.787227
        44        47     1        0.109545   310467.177393    ;  uncertainty r = 0.000018, k = 1.787234

[ angles ]
;       ai        aj        ak funct           theta             cth
         1         2         3     1      118.898987      278.218571    ;  uncertainty theta = 0.000893, k = 0.102889
         1         2         4     1      120.599106      529.064234    ;  uncertainty theta = 0.003015, k = 0.080851
         1         8         7     1      123.287216      508.161726    ;  uncertainty theta = 0.004697, k = 0.243896
         1         8         9     1      118.831131      283.386420    ;  uncertainty theta = 0.002798, k = 0.014510
         1        21        29     1      119.912682      413.965130    ;  uncertainty theta = 0.002204, k = 0.039028
         1        21        37     1      120.553917      412.463803    ;  uncertainty theta = 0.002465, k = 0.027259
         2         1         8     1      119.273514      424.344018    ;  uncertainty theta = 0.003218, k = 0.152151
         2         1        21     1      121.135902      418.206620    ;  uncertainty theta = 0.001234, k = 0.096373
         2         4         5     1      121.420326      280.298154    ;  uncertainty theta = 0.001178, k = 0.034437
         2         4         6     1      119.575096      505.135962    ;  uncertainty theta = 0.002692, k = 0.150532
         3         2         4     1      119.338806      289.601067    ;  uncertainty theta = 0.001318, k = 0.062224
         4         6         7     1      120.988113      370.564749    ;  uncertainty theta = 0.002805, k = 0.132341
         4         6        10     1      118.414932      539.304551    ;  uncertainty theta = 0.003186, k = 0.119404
         5         4         6     1      120.029160      275.838512    ;  uncertainty theta = 0.003388, k = 0.140058
         6         7         8     1      121.646706      436.471335    ;  uncertainty theta = 0.004275, k = 0.120813
         6         7        15     1      120.067566      415.396868    ;  uncertainty theta = 0.008782, k = 0.219694
         6        10        11     1      114.537888      453.333553    ;  uncertainty theta = 0.006687, k = 0.093698
         7         6        10     1      123.896896      494.205441    ;  uncertainty theta = 0.004024, k = 0.262919
         7         8         9     1      117.552780      269.249044    ;  uncertainty theta = 0.003488, k = 0.141356
         7        15        12     1      110.372864      539.933530    ;  uncertainty theta = 0.001408, k = 0.155688
         7        15        16     1      108.946983      466.381260    ;  uncertainty theta = 0.003845, k = 0.382761
         7        15        19     1      110.459412      616.078039    ;  uncertainty theta = 0.004076, k = 0.312915
         8         1        21     1      120.162842      411.921267    ;  uncertainty theta = 0.002119, k = 0.206614
         8         7        15     1      118.179955      406.555665    ;  uncertainty theta = 0.004331, k = 0.175151
        10        11        12     1      109.104774      651.855785    ;  uncertainty theta = 0.004859, k = 0.084503
        10        11        40     1      107.605125      619.338362    ;  uncertainty theta = 0.001081, k = 0.064685
        10        11        44     1      107.605125      619.338362    ;  uncertainty theta = 0.001081, k = 0.064685
        11        12        13     1      107.678444      386.201185    ;  uncertainty theta = 0.003165, k = 0.032000
        11        12        14     1      107.678444      386.201185    ;  uncertainty theta = 0.003165, k = 0.032000
        11        12        15     1      109.859573      530.089421    ;  uncertainty theta = 0.006963, k = 0.198376
        11        40        41     1      107.221069      387.594393    ;  uncertainty theta = 0.001065, k = 0.069193
        11        40        42     1      107.221069      387.594393    ;  uncertainty theta = 0.001065, k = 0.069193
        11        40        43     1      107.221069      387.594393    ;  uncertainty theta = 0.001065, k = 0.069193
        11        44        45     1      107.221069      387.594393    ;  uncertainty theta = 0.001065, k = 0.069193
        11        44        46     1      107.221069      387.594393    ;  uncertainty theta = 0.001065, k = 0.069193
        11        44        47     1      107.221069      387.594393    ;  uncertainty theta = 0.001065, k = 0.069193
        12        11        40     1      109.374954      548.046988    ;  uncertainty theta = 0.004356, k = 0.115347
        12        11        44     1      109.374954      548.046988    ;  uncertainty theta = 0.004356, k = 0.115347
        12        15        16     1      107.815041      449.614456    ;  uncertainty theta = 0.007030, k = 0.162708
        12        15        19     1      109.812546      627.822301    ;  uncertainty theta = 0.007991, k = 0.271564
        13        12        14     1      106.986496      321.844700    ;  uncertainty theta = 0.004263, k = 0.066652
        13        12        15     1      106.651634      397.354709    ;  uncertainty theta = 0.003140, k = 0.080198
        14        12        15     1      106.651634      397.354709    ;  uncertainty theta = 0.003140, k = 0.080198
        15        16        17     1      110.177444      536.173382    ;  uncertainty theta = 0.011689, k = 0.712083
        15        16        39     1      125.836937      424.636737    ;  uncertainty theta = 0.006696, k = 0.210364
        15        19        18     1      111.019447      602.235713    ;  uncertainty theta = 0.016031, k = 0.385577
        15        19        20     1      118.127907      280.649416    ;  uncertainty theta = 0.015278, k = 0.121870
        16        15        19     1      103.837784      815.585174    ;  uncertainty theta = 0.012174, k = 0.852513
        16        17        18     1      110.293701      728.609291    ;  uncertainty theta = 0.010426, k = 0.320486
        16        17        22     1      119.398109      397.513773    ;  uncertainty theta = 0.006832, k = 0.281808
        17        16        39     1      125.307961      629.051912    ;  uncertainty theta = 0.008036, k = 0.165829
        17        18        19     1      113.250023      720.106327    ;  uncertainty theta = 0.006756, k = 0.305315
        17        18        26     1      125.598953      549.524885    ;  uncertainty theta = 0.008546, k = 0.324469
        17        22        23     1      107.360855      470.851946    ;  uncertainty theta = 0.002522, k = 0.203983
        17        22        24     1      107.360855      470.851946    ;  uncertainty theta = 0.002522, k = 0.203983
        17        22        25     1      107.360855      470.851946    ;  uncertainty theta = 0.002522, k = 0.203983
        18        17        22     1      118.646042      371.786540    ;  uncertainty theta = 0.007230, k = 0.373049
        18        19        20     1      119.824707      355.581520    ;  uncertainty theta = 0.006083, k = 0.153034
        18        26        27     1      114.903091      371.138312    ;  uncertainty theta = 0.001582, k = 0.210952
        18        26        28     1      114.903091      371.138312    ;  uncertainty theta = 0.001582, k = 0.210952
        19        18        26     1      128.730377      637.313550    ;  uncertainty theta = 0.008927, k = 0.256741
        21        29        30     1      120.747025      271.707502    ;  uncertainty theta = 0.000976, k = 0.069150
        21        29        31     1      119.204056      497.541226    ;  uncertainty theta = 0.002524, k = 0.137269
        21        37        35     1      120.539307      529.722453    ;  uncertainty theta = 0.001588, k = 0.075627
        21        37        38     1      119.131409      278.677952    ;  uncertainty theta = 0.001488, k = 0.046469
        23        22        24     1      107.634499      325.466948    ;  uncertainty theta = 0.003233, k = 0.098676
        23        22        25     1      107.634499      325.466948    ;  uncertainty theta = 0.003233, k = 0.098676
        24        22        25     1      107.634499      325.466948    ;  uncertainty theta = 0.003233, k = 0.098676
        27        26        28     1      112.323524      263.743259    ;  uncertainty theta = 0.015210, k = 0.362876
        29        21        37     1      120.530624      412.962990    ;  uncertainty theta = 0.002349, k = 0.174682
        29        31        32     1      118.586266      508.773372    ;  uncertainty theta = 0.001690, k = 0.071614
        29        31        33     1      123.028397      358.663690    ;  uncertainty theta = 0.004697, k = 0.178126
        30        29        31     1      120.580872      288.080205    ;  uncertainty theta = 0.001017, k = 0.065289
        31        33        34     1      120.964432      283.171749    ;  uncertainty theta = 0.001873, k = 0.034838
        31        33        35     1      116.761124      498.055703    ;  uncertainty theta = 0.001872, k = 0.056393
        32        31        33     1      119.150330      513.853533    ;  uncertainty theta = 0.001556, k = 0.062033
        33        35        36     1      119.860107      283.817199    ;  uncertainty theta = 0.000525, k = 0.021022
        33        35        37     1      120.963028      516.948918    ;  uncertainty theta = 0.002123, k = 0.039130
        34        33        35     1      121.981689      282.272842    ;  uncertainty theta = 0.001508, k = 0.023804
        35        37        38     1      120.290085      295.105048    ;  uncertainty theta = 0.001545, k = 0.033186
        36        35        37     1      120.173485      281.558793    ;  uncertainty theta = 0.001228, k = 0.015654
        40        11        44     1      110.900230      580.347218    ;  uncertainty theta = 0.002949, k = 0.067890
        41        40        42     1      106.043396      316.610518    ;  uncertainty theta = 0.000878, k = 0.018252
        41        40        43     1      106.043396      316.610518    ;  uncertainty theta = 0.000878, k = 0.018252
        42        40        43     1      106.043396      316.610518    ;  uncertainty theta = 0.000878, k = 0.018252
        45        44        46     1      106.043396      316.610518    ;  uncertainty theta = 0.000878, k = 0.018252
        45        44        47     1      106.043396      316.610518    ;  uncertainty theta = 0.000878, k = 0.018252
        46        44        47     1      106.043396      316.610518    ;  uncertainty theta = 0.000878, k = 0.018252

[ dihedrals ] ; propers for gromacs 4.5 or higher, use funct 9
;       ai        aj        ak        al funct           phase               k        pn
         1         2         4         5     9        0.000000        0.047897         1    ;  uncertainty k = 0.063537
         1         2         4         5     9      180.000000        8.369605         2    ;  uncertainty k = 0.447547
         1         2         4         5     9        0.000000        1.366183         3    ;  uncertainty k = 0.277349
         1         2         4         5     9      180.000000        1.907202         4    ;  uncertainty k = 0.253485
         1         2         4         6     9        0.000000       -0.058792         1    ;  uncertainty k = 0.395245
         1         2         4         6     9      180.000000       14.138056         2    ;  uncertainty k = 0.234803
         1         2         4         6     9        0.000000       -0.320215         3    ;  uncertainty k = 0.403121
         1         2         4         6     9      180.000000        0.939008         4    ;  uncertainty k = 0.220071
         1         8         7         6     9        0.000000       -0.293187         1    ;  uncertainty k = 0.186911
         1         8         7         6     9      180.000000       10.978171         2    ;  uncertainty k = 0.454907
         1         8         7         6     9        0.000000       -0.047845         3    ;  uncertainty k = 0.120973
         1         8         7         6     9      180.000000        1.160633         4    ;  uncertainty k = 0.325968
         1         8         7        15     9        0.000000        0.411842         1    ;  uncertainty k = 0.248657
         1         8         7        15     9      180.000000        8.868579         2    ;  uncertainty k = 0.412830
         1         8         7        15     9        0.000000        1.654248         3    ;  uncertainty k = 0.206112
         1         8         7        15     9      180.000000        1.927544         4    ;  uncertainty k = 0.372878
         1        21        29        30     9        0.000000       -0.236765         1    ;  uncertainty k = 0.304239
         1        21        29        30     9      180.000000        7.046766         2    ;  uncertainty k = 0.425671
         1        21        29        30     9        0.000000        0.824489         3    ;  uncertainty k = 0.179685
         1        21        29        30     9      180.000000        1.121245         4    ;  uncertainty k = 0.225642
         1        21        29        31     9        0.000000       -0.015914         1    ;  uncertainty k = 0.174514
         1        21        29        31     9      180.000000        8.809935         2    ;  uncertainty k = 0.466315
         1        21        29        31     9        0.000000        1.216571         3    ;  uncertainty k = 0.321524
         1        21        29        31     9      180.000000        1.666227         4    ;  uncertainty k = 0.078035
         1        21        37        35     9        0.000000       -0.073897         1    ;  uncertainty k = 0.231870
         1        21        37        35     9      180.000000        8.699056         2    ;  uncertainty k = 0.593707
         1        21        37        35     9        0.000000        1.185071         3    ;  uncertainty k = 0.407260
         1        21        37        35     9      180.000000        1.738691         4    ;  uncertainty k = 0.143008
         1        21        37        38     9        0.000000       -0.226091         1    ;  uncertainty k = 0.314233
         1        21        37        38     9      180.000000        7.132946         2    ;  uncertainty k = 0.414123
         1        21        37        38     9        0.000000        0.848148         3    ;  uncertainty k = 0.138466
         1        21        37        38     9      180.000000        1.160193         4    ;  uncertainty k = 0.211345
         2         1         8         7     9        0.000000        0.193885         1    ;  uncertainty k = 0.500996
         2         1         8         7     9      180.000000       10.570295         2    ;  uncertainty k = 0.392618
         2         1         8         7     9        0.000000       -0.165908         3    ;  uncertainty k = 0.299490
         2         1         8         7     9      180.000000        1.162689         4    ;  uncertainty k = 0.387474
         2         1         8         9     9        0.000000        0.136539         1    ;  uncertainty k = 0.303965
         2         1         8         9     9      180.000000        7.440854         2    ;  uncertainty k = 0.636477
         2         1         8         9     9        0.000000        1.344902         3    ;  uncertainty k = 0.189020
         2         1         8         9     9      180.000000        1.670748         4    ;  uncertainty k = 0.260568
         2         1        21        29     9        0.000000       -0.340419         1    ;  uncertainty k = 0.280106
         2         1        21        29     9      180.000000        3.982495         2    ;  uncertainty k = 0.101998
         2         1        21        29     9        0.000000        0.340187         3    ;  uncertainty k = 0.119495
         2         1        21        29     9      180.000000       -0.029447         4    ;  uncertainty k = 0.061980
         2         1        21        37     9        0.000000       -0.371528         1    ;  uncertainty k = 0.323654
         2         1        21        37     9      180.000000        4.007931         2    ;  uncertainty k = 0.094900
         2         1        21        37     9        0.000000        0.342561         3    ;  uncertainty k = 0.085202
         2         1        21        37     9      180.000000       -0.041563         4    ;  uncertainty k = 0.018423
         2         4         6         7     9        0.000000        0.214863         1    ;  uncertainty k = 0.437118
         2         4         6         7     9      180.000000        7.808154         2    ;  uncertainty k = 0.549355
         2         4         6         7     9        0.000000        0.200021         3    ;  uncertainty k = 0.543484
         2         4         6         7     9      180.000000        1.302184         4    ;  uncertainty k = 0.240864
         2         4         6        10     9        0.000000        0.371444         1    ;  uncertainty k = 0.218852
         2         4         6        10     9      180.000000       11.420675         2    ;  uncertainty k = 0.283685
         2         4         6        10     9        0.000000        1.317991         3    ;  uncertainty k = 0.223096
         2         4         6        10     9      180.000000        1.545231         4    ;  uncertainty k = 0.131504
         3         2         1         8     9        0.000000        0.191582         1    ;  uncertainty k = 0.286237
         3         2         1         8     9      180.000000        6.800468         2    ;  uncertainty k = 0.494576
         3         2         1         8     9        0.000000        1.316532         3    ;  uncertainty k = 0.241945
         3         2         1         8     9      180.000000        1.544048         4    ;  uncertainty k = 0.282320
         3         2         1        21     9        0.000000       -0.229948         1    ;  uncertainty k = 0.350587
         3         2         1        21     9      180.000000        7.188833         2    ;  uncertainty k = 0.363890
         3         2         1        21     9        0.000000        0.807340         3    ;  uncertainty k = 0.158052
         3         2         1        21     9      180.000000        1.153800         4    ;  uncertainty k = 0.189084
         3         2         4         5     9        0.000000        0.025279         1    ;  uncertainty k = 0.361523
         3         2         4         5     9      180.000000        7.978306         2    ;  uncertainty k = 0.296130
         3         2         4         5     9        0.000000       -0.407095         3    ;  uncertainty k = 0.351032
         3         2         4         5     9      180.000000        0.202278         4    ;  uncertainty k = 0.133160
         3         2         4         6     9        0.000000        0.287758         1    ;  uncertainty k = 0.249638
         3         2         4         6     9      180.000000        8.768124         2    ;  uncertainty k = 0.408739
         3         2         4         6     9        0.000000        1.325866         3    ;  uncertainty k = 0.304196
         3         2         4         6     9      180.000000        1.727245         4    ;  uncertainty k = 0.217766
         4         2         1         8     9        0.000000        0.068965         1    ;  uncertainty k = 0.287156
         4         2         1         8     9      180.000000       10.614282         2    ;  uncertainty k = 0.258858
         4         2         1         8     9        0.000000       -0.415128         3    ;  uncertainty k = 0.265046
         4         2         1         8     9      180.000000        1.028864         4    ;  uncertainty k = 0.173648
         4         2         1        21     9        0.000000        0.028329         1    ;  uncertainty k = 0.250074
         4         2         1        21     9      180.000000        8.385818         2    ;  uncertainty k = 0.539236
         4         2         1        21     9        0.000000        1.111090         3    ;  uncertainty k = 0.402821
         4         2         1        21     9      180.000000        1.803602         4    ;  uncertainty k = 0.157110
         4         6         7         8     9        0.000000       -0.024302         1    ;  uncertainty k = 0.185564
         4         6         7         8     9      180.000000        6.939175         2    ;  uncertainty k = 0.467225
         4         6         7         8     9        0.000000        0.361257         3    ;  uncertainty k = 0.294715
         4         6         7         8     9      180.000000        1.357296         4    ;  uncertainty k = 0.258045
         4         6         7        15     9        0.000000        0.348935         1    ;  uncertainty k = 0.173791
         4         6         7        15     9      180.000000        5.007786         2    ;  uncertainty k = 0.411251
         4         6         7        15     9        0.000000        1.468368         3    ;  uncertainty k = 0.261774
         4         6         7        15     9      180.000000        1.669236         4    ;  uncertainty k = 0.209865
         4         6        10        11     9        0.000000       -0.006126         1    ;  uncertainty k = 0.860183
         4         6        10        11     9      180.000000        1.463692         2    ;  uncertainty k = 0.468672
         4         6        10        11     9        0.000000        0.942767         3    ;  uncertainty k = 0.141382
         4         6        10        11     9      180.000000        0.269400         4    ;  uncertainty k = 0.169428
         5         4         6         7     9        0.000000        0.319226         1    ;  uncertainty k = 0.558349
         5         4         6         7     9      180.000000        5.772399         2    ;  uncertainty k = 0.428881
         5         4         6         7     9        0.000000        1.337220         3    ;  uncertainty k = 0.195636
         5         4         6         7     9      180.000000        1.401976         4    ;  uncertainty k = 0.132735
         5         4         6        10     9        0.000000       -0.143362         1    ;  uncertainty k = 0.595170
         5         4         6        10     9      180.000000        8.971333         2    ;  uncertainty k = 0.422660
         5         4         6        10     9        0.000000        0.767158         3    ;  uncertainty k = 0.278987
         5         4         6        10     9      180.000000        1.249859         4    ;  uncertainty k = 0.280971
         6         7         8         9     9        0.000000        0.261142         1    ;  uncertainty k = 0.444638
         6         7         8         9     9      180.000000        7.886567         2    ;  uncertainty k = 0.701412
         6         7         8         9     9        0.000000        1.275188         3    ;  uncertainty k = 0.213636
         6         7         8         9     9      180.000000        1.656070         4    ;  uncertainty k = 0.156100
         6         7        15        12     9        0.000000       -0.553827         1    ;  uncertainty k = 1.466850
         6         7        15        12     9      180.000000        0.634513         2    ;  uncertainty k = 0.585096
         6         7        15        12     9        0.000000        0.297861         3    ;  uncertainty k = 0.330860
         6         7        15        12     9      180.000000        0.274107         4    ;  uncertainty k = 0.208342
         6         7        15        16     9        0.000000        2.102711         1    ;  uncertainty k = 2.528116
         6         7        15        16     9      180.000000        0.546699         2    ;  uncertainty k = 1.018066
         6         7        15        16     9        0.000000        0.457521         3    ;  uncertainty k = 0.289759
         6         7        15        16     9      180.000000        0.336866         4    ;  uncertainty k = 0.183129
         6         7        15        19     9        0.000000       -1.847814         1    ;  uncertainty k = 1.697255
         6         7        15        19     9      180.000000        1.430867         2    ;  uncertainty k = 0.383929
         6         7        15        19     9        0.000000        0.601224         3    ;  uncertainty k = 0.476577
         6         7        15        19     9      180.000000        0.025936         4    ;  uncertainty k = 0.174309
         6        10        11        12     9        0.000000        4.367103         1    ;  uncertainty k = 0.568223
         6        10        11        12     9      180.000000       -1.721484         2    ;  uncertainty k = 1.273232
         6        10        11        12     9        0.000000       -0.456864         3    ;  uncertainty k = 0.472174
         6        10        11        12     9      180.000000        0.328459         4    ;  uncertainty k = 0.236646
         6        10        11        40     9        0.000000       -1.366437         1    ;  uncertainty k = 0.443902
         6        10        11        40     9      180.000000        1.117988         2    ;  uncertainty k = 0.670204
         6        10        11        40     9        0.000000        0.420512         3    ;  uncertainty k = 0.232671
         6        10        11        40     9      180.000000        0.169724         4    ;  uncertainty k = 0.171412
         6        10        11        44     9        0.000000       -1.366437         1    ;  uncertainty k = 0.443902
         6        10        11        44     9      180.000000        1.117988         2    ;  uncertainty k = 0.670204
         6        10        11        44     9        0.000000        0.420512         3    ;  uncertainty k = 0.232671
         6        10        11        44     9      180.000000        0.169724         4    ;  uncertainty k = 0.171412
         7         6        10        11     9        0.000000        4.306085         1    ;  uncertainty k = 1.768454
         7         6        10        11     9      180.000000       -1.360043         2    ;  uncertainty k = 1.430515
         7         6        10        11     9        0.000000       -0.393905         3    ;  uncertainty k = 0.710259
         7         6        10        11     9      180.000000        0.655625         4    ;  uncertainty k = 0.252123
         7         8         1        21     9        0.000000        0.465215         1    ;  uncertainty k = 0.454522
         7         8         1        21     9      180.000000        8.827031         2    ;  uncertainty k = 0.307541
         7         8         1        21     9        0.000000        1.302509         3    ;  uncertainty k = 0.327936
         7         8         1        21     9      180.000000        1.676426         4    ;  uncertainty k = 0.108029
         7        15        12        11     9        0.000000        1.962873         1    ;  uncertainty k = 1.227301
         7        15        12        11     9      180.000000       -1.078194         2    ;  uncertainty k = 0.502447
         7        15        12        11     9        0.000000        0.369332         3    ;  uncertainty k = 0.176636
         7        15        12        11     9      180.000000       -0.278407         4    ;  uncertainty k = 0.249392
         7        15        12        13     9        0.000000       -0.179115         1    ;  uncertainty k = 0.140621
         7        15        12        13     9      180.000000        0.089626         2    ;  uncertainty k = 0.458905
         7        15        12        13     9        0.000000        0.456477         3    ;  uncertainty k = 0.237033
         7        15        12        13     9      180.000000       -0.095026         4    ;  uncertainty k = 0.141404
         7        15        12        14     9        0.000000       -0.179115         1    ;  uncertainty k = 0.140621
         7        15        12        14     9      180.000000        0.089626         2    ;  uncertainty k = 0.458905
         7        15        12        14     9        0.000000        0.456477         3    ;  uncertainty k = 0.237033
         7        15        12        14     9      180.000000       -0.095026         4    ;  uncertainty k = 0.141404
         7        15        16        17     9        0.000000       -2.280414         1    ;  uncertainty k = 2.717069
         7        15        16        17     9      180.000000        2.456410         2    ;  uncertainty k = 1.222701
         7        15        16        17     9        0.000000        1.453247         3    ;  uncertainty k = 0.188385
         7        15        16        17     9      180.000000        0.681716         4    ;  uncertainty k = 0.441731
         7        15        16        39     9        0.000000       -0.746001         1    ;  uncertainty k = 2.339485
         7        15        16        39     9      180.000000        3.144072         2    ;  uncertainty k = 0.500306
         7        15        16        39     9        0.000000        0.221997         3    ;  uncertainty k = 0.280086
         7        15        16        39     9      180.000000        0.150864         4    ;  uncertainty k = 0.276471
         7        15        19        18     9        0.000000        0.863485         1    ;  uncertainty k = 1.247541
         7        15        19        18     9      180.000000        0.544771         2    ;  uncertainty k = 0.542404
         7        15        19        18     9        0.000000        0.864493         3    ;  uncertainty k = 0.370882
         7        15        19        18     9      180.000000        0.387104         4    ;  uncertainty k = 0.143944
         7        15        19        20     9        0.000000        0.953248         1    ;  uncertainty k = 2.750545
         7        15        19        20     9      180.000000       -1.060847         2    ;  uncertainty k = 1.247199
         7        15        19        20     9        0.000000        0.527755         3    ;  uncertainty k = 0.498974
         7        15        19        20     9      180.000000       -0.043717         4    ;  uncertainty k = 0.110691
         8         1        21        29     9        0.000000       -0.339702         1    ;  uncertainty k = 0.328458
         8         1        21        29     9      180.000000        4.198682         2    ;  uncertainty k = 0.202691
         8         1        21        29     9        0.000000        0.275169         3    ;  uncertainty k = 0.189908
         8         1        21        29     9      180.000000        0.054507         4    ;  uncertainty k = 0.061899
         8         1        21        37     9        0.000000       -0.390020         1    ;  uncertainty k = 0.360868
         8         1        21        37     9      180.000000        4.226488         2    ;  uncertainty k = 0.215991
         8         1        21        37     9        0.000000        0.317049         3    ;  uncertainty k = 0.161010
         8         1        21        37     9      180.000000        0.046938         4    ;  uncertainty k = 0.082994
         8         7         6        10     9        0.000000        0.502288         1    ;  uncertainty k = 0.334285
         8         7         6        10     9      180.000000        8.131837         2    ;  uncertainty k = 0.246810
         8         7         6        10     9        0.000000        1.516209         3    ;  uncertainty k = 0.284264
         8         7         6        10     9      180.000000        1.564323         4    ;  uncertainty k = 0.188848
         8         7        15        12     9        0.000000       -0.691333         1    ;  uncertainty k = 1.137398
         8         7        15        12     9      180.000000        0.985400         2    ;  uncertainty k = 0.405711
         8         7        15        12     9        0.000000       -0.289961         3    ;  uncertainty k = 0.374786
         8         7        15        12     9      180.000000        0.164090         4    ;  uncertainty k = 0.189301
         8         7        15        16     9        0.000000        0.853117         1    ;  uncertainty k = 1.974013
         8         7        15        16     9      180.000000        0.166248         2    ;  uncertainty k = 0.609933
         8         7        15        16     9        0.000000        0.128488         3    ;  uncertainty k = 0.275120
         8         7        15        16     9      180.000000        0.312202         4    ;  uncertainty k = 0.133232
         8         7        15        19     9        0.000000       -0.405631         1    ;  uncertainty k = 0.831937
         8         7        15        19     9      180.000000        1.964315         2    ;  uncertainty k = 0.372178
         8         7        15        19     9        0.000000       -0.051018         3    ;  uncertainty k = 0.360156
         8         7        15        19     9      180.000000        0.092103         4    ;  uncertainty k = 0.251996
         9         8         1        21     9        0.000000       -0.102882         1    ;  uncertainty k = 0.239359
         9         8         1        21     9      180.000000        7.499177         2    ;  uncertainty k = 0.327921
         9         8         1        21     9        0.000000        0.873197         3    ;  uncertainty k = 0.163076
         9         8         1        21     9      180.000000        1.306323         4    ;  uncertainty k = 0.132617
         9         8         7        15     9        0.000000       -0.372295         1    ;  uncertainty k = 0.437955
         9         8         7        15     9      180.000000        6.783379         2    ;  uncertainty k = 0.317440
         9         8         7        15     9        0.000000        0.965065         3    ;  uncertainty k = 0.301999
         9         8         7        15     9      180.000000        1.269073         4    ;  uncertainty k = 0.233090
        10         6         7        15     9        0.000000        0.498340         1    ;  uncertainty k = 0.988077
        10         6         7        15     9      180.000000        5.670085         2    ;  uncertainty k = 0.712561
        10         6         7        15     9        0.000000        1.748936         3    ;  uncertainty k = 0.456836
        10         6         7        15     9      180.000000        1.062497         4    ;  uncertainty k = 0.416588
        10        11        12        13     9        0.000000       -1.286357         1    ;  uncertainty k = 0.418982
        10        11        12        13     9      180.000000       -0.843338         2    ;  uncertainty k = 0.564486
        10        11        12        13     9        0.000000        0.398057         3    ;  uncertainty k = 0.233267
        10        11        12        13     9      180.000000       -0.189590         4    ;  uncertainty k = 0.165011
        10        11        12        14     9        0.000000       -1.286357         1    ;  uncertainty k = 0.418982
        10        11        12        14     9      180.000000       -0.843338         2    ;  uncertainty k = 0.564486
        10        11        12        14     9        0.000000        0.398057         3    ;  uncertainty k = 0.233267
        10        11        12        14     9      180.000000       -0.189590         4    ;  uncertainty k = 0.165011
        10        11        12        15     9        0.000000        7.476955         1    ;  uncertainty k = 0.712372
        10        11        12        15     9      180.000000       -4.264126         2    ;  uncertainty k = 1.996417
        10        11        12        15     9        0.000000       -0.268865         3    ;  uncertainty k = 0.560592
        10        11        12        15     9      180.000000       -0.018620         4    ;  uncertainty k = 0.403705
        10        11        40        41     9        0.000000       -0.556685         1    ;  uncertainty k = 0.641512
        10        11        40        41     9      180.000000       -2.127823         2    ;  uncertainty k = 0.599046
        10        11        40        41     9        0.000000        0.863808         3    ;  uncertainty k = 0.110663
        10        11        40        41     9      180.000000       -0.195070         4    ;  uncertainty k = 0.150407
        10        11        40        42     9        0.000000       -0.556685         1    ;  uncertainty k = 0.641512
        10        11        40        42     9      180.000000       -2.127823         2    ;  uncertainty k = 0.599046
        10        11        40        42     9        0.000000        0.863808         3    ;  uncertainty k = 0.110663
        10        11        40        42     9      180.000000       -0.195070         4    ;  uncertainty k = 0.150407
        10        11        40        43     9        0.000000       -0.556685         1    ;  uncertainty k = 0.641512
        10        11        40        43     9      180.000000       -2.127823         2    ;  uncertainty k = 0.599046
        10        11        40        43     9        0.000000        0.863808         3    ;  uncertainty k = 0.110663
        10        11        40        43     9      180.000000       -0.195070         4    ;  uncertainty k = 0.150407
        10        11        44        45     9        0.000000       -0.556685         1    ;  uncertainty k = 0.641512
        10        11        44        45     9      180.000000       -2.127823         2    ;  uncertainty k = 0.599046
        10        11        44        45     9        0.000000        0.863808         3    ;  uncertainty k = 0.110663
        10        11        44        45     9      180.000000       -0.195070         4    ;  uncertainty k = 0.150407
        10        11        44        46     9        0.000000       -0.556685         1    ;  uncertainty k = 0.641512
        10        11        44        46     9      180.000000       -2.127823         2    ;  uncertainty k = 0.599046
        10        11        44        46     9        0.000000        0.863808         3    ;  uncertainty k = 0.110663
        10        11        44        46     9      180.000000       -0.195070         4    ;  uncertainty k = 0.150407
        10        11        44        47     9        0.000000       -0.556685         1    ;  uncertainty k = 0.641512
        10        11        44        47     9      180.000000       -2.127823         2    ;  uncertainty k = 0.599046
        10        11        44        47     9        0.000000        0.863808         3    ;  uncertainty k = 0.110663
        10        11        44        47     9      180.000000       -0.195070         4    ;  uncertainty k = 0.150407
        11        12        15        16     9        0.000000       -1.228978         1    ;  uncertainty k = 1.347491
        11        12        15        16     9      180.000000       -0.515847         2    ;  uncertainty k = 0.500826
        11        12        15        16     9        0.000000        0.433214         3    ;  uncertainty k = 0.247206
        11        12        15        16     9      180.000000       -0.080465         4    ;  uncertainty k = 0.226810
        11        12        15        19     9        0.000000       -2.978697         1    ;  uncertainty k = 1.009148
        11        12        15        19     9      180.000000       -1.349811         2    ;  uncertainty k = 1.012802
        11        12        15        19     9        0.000000        1.198772         3    ;  uncertainty k = 0.505781
        11        12        15        19     9      180.000000        0.002053         4    ;  uncertainty k = 0.225805
        12        11        40        41     9        0.000000       -0.810618         1    ;  uncertainty k = 0.476463
        12        11        40        41     9      180.000000       -0.740441         2    ;  uncertainty k = 0.208398
        12        11        40        41     9        0.000000        0.585176         3    ;  uncertainty k = 0.093112
        12        11        40        41     9      180.000000       -0.179618         4    ;  uncertainty k = 0.029902
        12        11        40        42     9        0.000000       -0.810618         1    ;  uncertainty k = 0.476463
        12        11        40        42     9      180.000000       -0.740441         2    ;  uncertainty k = 0.208398
        12        11        40        42     9        0.000000        0.585176         3    ;  uncertainty k = 0.093112
        12        11        40        42     9      180.000000       -0.179618         4    ;  uncertainty k = 0.029902
        12        11        40        43     9        0.000000       -0.810618         1    ;  uncertainty k = 0.476463
        12        11        40        43     9      180.000000       -0.740441         2    ;  uncertainty k = 0.208398
        12        11        40        43     9        0.000000        0.585176         3    ;  uncertainty k = 0.093112
        12        11        40        43     9      180.000000       -0.179618         4    ;  uncertainty k = 0.029902
        12        11        44        45     9        0.000000       -0.810618         1    ;  uncertainty k = 0.476463
        12        11        44        45     9      180.000000       -0.740441         2    ;  uncertainty k = 0.208398
        12        11        44        45     9        0.000000        0.585176         3    ;  uncertainty k = 0.093112
        12        11        44        45     9      180.000000       -0.179618         4    ;  uncertainty k = 0.029902
        12        11        44        46     9        0.000000       -0.810618         1    ;  uncertainty k = 0.476463
        12        11        44        46     9      180.000000       -0.740441         2    ;  uncertainty k = 0.208398
        12        11        44        46     9        0.000000        0.585176         3    ;  uncertainty k = 0.093112
        12        11        44        46     9      180.000000       -0.179618         4    ;  uncertainty k = 0.029902
        12        11        44        47     9        0.000000       -0.810618         1    ;  uncertainty k = 0.476463
        12        11        44        47     9      180.000000       -0.740441         2    ;  uncertainty k = 0.208398
        12        11        44        47     9        0.000000        0.585176         3    ;  uncertainty k = 0.093112
        12        11        44        47     9      180.000000       -0.179618         4    ;  uncertainty k = 0.029902
        12        15        16        17     9        0.000000       -3.062352         1    ;  uncertainty k = 1.276839
        12        15        16        17     9      180.000000        2.894127         2    ;  uncertainty k = 0.258588
        12        15        16        17     9        0.000000        0.860445         3    ;  uncertainty k = 0.091746
        12        15        16        17     9      180.000000        0.587117         4    ;  uncertainty k = 0.338989
        12        15        16        39     9        0.000000       -0.574292         1    ;  uncertainty k = 2.046094
        12        15        16        39     9      180.000000        3.928919         2    ;  uncertainty k = 1.075276
        12        15        16        39     9        0.000000        0.161227         3    ;  uncertainty k = 0.381109
        12        15        16        39     9      180.000000        0.057219         4    ;  uncertainty k = 0.338212
        12        15        19        18     9        0.000000       -0.720185         1    ;  uncertainty k = 0.363424
        12        15        19        18     9      180.000000        1.466373         2    ;  uncertainty k = 0.671881
        12        15        19        18     9        0.000000        0.362475         3    ;  uncertainty k = 0.242092
        12        15        19        18     9      180.000000        0.276221         4    ;  uncertainty k = 0.143829
        12        15        19        20     9        0.000000        1.014477         1    ;  uncertainty k = 3.207549
        12        15        19        20     9      180.000000       -0.447187         2    ;  uncertainty k = 0.880594
        12        15        19        20     9        0.000000        0.406773         3    ;  uncertainty k = 0.479851
        12        15        19        20     9      180.000000        0.075628         4    ;  uncertainty k = 0.078933
        13        12        11        40     9        0.000000       -0.868529         1    ;  uncertainty k = 0.359708
        13        12        11        40     9      180.000000        0.339049         2    ;  uncertainty k = 0.271426
        13        12        11        40     9        0.000000        0.030221         3    ;  uncertainty k = 0.169820
        13        12        11        40     9      180.000000       -0.198172         4    ;  uncertainty k = 0.102797
        13        12        11        44     9        0.000000       -0.868529         1    ;  uncertainty k = 0.359708
        13        12        11        44     9      180.000000        0.339049         2    ;  uncertainty k = 0.271426
        13        12        11        44     9        0.000000        0.030221         3    ;  uncertainty k = 0.169820
        13        12        11        44     9      180.000000       -0.198172         4    ;  uncertainty k = 0.102797
        13        12        15        16     9        0.000000        0.636692         1    ;  uncertainty k = 0.443881
        13        12        15        16     9      180.000000       -1.082831         2    ;  uncertainty k = 0.432291
        13        12        15        16     9        0.000000        0.083911         3    ;  uncertainty k = 0.203429
        13        12        15        16     9      180.000000       -0.053905         4    ;  uncertainty k = 0.095175
        13        12        15        19     9        0.000000       -1.014378         1    ;  uncertainty k = 0.666770
        13        12        15        19     9      180.000000       -0.206347         2    ;  uncertainty k = 0.431023
        13        12        15        19     9        0.000000        0.529827         3    ;  uncertainty k = 0.228576
        13        12        15        19     9      180.000000       -0.286824         4    ;  uncertainty k = 0.129461
        14        12        11        40     9        0.000000       -0.868529         1    ;  uncertainty k = 0.359708
        14        12        11        40     9      180.000000        0.339049         2    ;  uncertainty k = 0.271426
        14        12        11        40     9        0.000000        0.030221         3    ;  uncertainty k = 0.169820
        14        12        11        40     9      180.000000       -0.198172         4    ;  uncertainty k = 0.102797
        14        12        11        44     9        0.000000       -0.868529         1    ;  uncertainty k = 0.359708
        14        12        11        44     9      180.000000        0.339049         2    ;  uncertainty k = 0.271426
        14        12        11        44     9        0.000000        0.030221         3    ;  uncertainty k = 0.169820
        14        12        11        44     9      180.000000       -0.198172         4    ;  uncertainty k = 0.102797
        14        12        15        16     9        0.000000        0.636692         1    ;  uncertainty k = 0.443881
        14        12        15        16     9      180.000000       -1.082831         2    ;  uncertainty k = 0.432291
        14        12        15        16     9        0.000000        0.083911         3    ;  uncertainty k = 0.203429
        14        12        15        16     9      180.000000       -0.053905         4    ;  uncertainty k = 0.095175
        14        12        15        19     9        0.000000       -1.014378         1    ;  uncertainty k = 0.666770
        14        12        15        19     9      180.000000       -0.206347         2    ;  uncertainty k = 0.431023
        14        12        15        19     9        0.000000        0.529827         3    ;  uncertainty k = 0.228576
        14        12        15        19     9      180.000000       -0.286824         4    ;  uncertainty k = 0.129461
        15        12        11        40     9        0.000000       -0.394043         1    ;  uncertainty k = 0.952250
        15        12        11        40     9      180.000000       -0.298782         2    ;  uncertainty k = 0.210060
        15        12        11        40     9        0.000000        0.102279         3    ;  uncertainty k = 0.252570
        15        12        11        40     9      180.000000       -0.158350         4    ;  uncertainty k = 0.062640
        15        12        11        44     9        0.000000       -0.394043         1    ;  uncertainty k = 0.952250
        15        12        11        44     9      180.000000       -0.298782         2    ;  uncertainty k = 0.210060
        15        12        11        44     9        0.000000        0.102279         3    ;  uncertainty k = 0.252570
        15        12        11        44     9      180.000000       -0.158350         4    ;  uncertainty k = 0.062640
        15        16        17        18     9        0.000000        3.190561         1    ;  uncertainty k = 2.129280
        15        16        17        18     9      180.000000        4.165517         2    ;  uncertainty k = 2.103257
        15        16        17        18     9        0.000000       -0.163634         3    ;  uncertainty k = 0.825879
        15        16        17        18     9      180.000000        0.629686         4    ;  uncertainty k = 0.355315
        15        16        17        22     9        0.000000        4.948397         1    ;  uncertainty k = 2.742747
        15        16        17        22     9      180.000000        3.665594         2    ;  uncertainty k = 2.655463
        15        16        17        22     9        0.000000        1.132039         3    ;  uncertainty k = 0.860258
        15        16        17        22     9      180.000000        0.328976         4    ;  uncertainty k = 0.593115
        15        19        18        17     9        0.000000        1.152349         1    ;  uncertainty k = 2.624977
        15        19        18        17     9      180.000000       15.352878         2    ;  uncertainty k = 0.482589
        15        19        18        17     9        0.000000       -0.706328         3    ;  uncertainty k = 1.011989
        15        19        18        17     9      180.000000       -0.606107         4    ;  uncertainty k = 0.206718
        15        19        18        26     9        0.000000        3.692759         1    ;  uncertainty k = 0.866356
        15        19        18        26     9      180.000000       11.333780         2    ;  uncertainty k = 0.611404
        15        19        18        26     9        0.000000        0.314850         3    ;  uncertainty k = 0.239643
        15        19        18        26     9      180.000000       -0.482788         4    ;  uncertainty k = 0.513934
        16        15        19        18     9        0.000000        1.075899         1    ;  uncertainty k = 0.686753
        16        15        19        18     9      180.000000        2.337056         2    ;  uncertainty k = 0.668402
        16        15        19        18     9        0.000000        0.174345         3    ;  uncertainty k = 0.624028
        16        15        19        18     9      180.000000        0.491041         4    ;  uncertainty k = 0.337525
        16        15        19        20     9        0.000000        1.870130         1    ;  uncertainty k = 2.124003
        16        15        19        20     9      180.000000       -0.788361         2    ;  uncertainty k = 0.765206
        16        15        19        20     9        0.000000        0.063928         3    ;  uncertainty k = 0.474210
        16        15        19        20     9      180.000000        0.018852         4    ;  uncertainty k = 0.243518
        16        17        18        19     9        0.000000       -0.598871         1    ;  uncertainty k = 1.517512
        16        17        18        19     9      180.000000        9.023777         2    ;  uncertainty k = 0.890262
        16        17        18        19     9        0.000000       -1.321226         3    ;  uncertainty k = 1.261849
        16        17        18        19     9      180.000000       -0.043685         4    ;  uncertainty k = 0.510427
        16        17        18        26     9        0.000000       -0.742539         1    ;  uncertainty k = 0.884320
        16        17        18        26     9      180.000000        6.821150         2    ;  uncertainty k = 1.300514
        16        17        18        26     9        0.000000        0.216631         3    ;  uncertainty k = 0.558836
        16        17        18        26     9      180.000000       -0.098970         4    ;  uncertainty k = 0.493923
        16        17        22        23     9        0.000000        0.297431         1    ;  uncertainty k = 0.338022
        16        17        22        23     9      180.000000        0.087168         2    ;  uncertainty k = 0.381934
        16        17        22        23     9        0.000000        0.347193         3    ;  uncertainty k = 0.232215
        16        17        22        23     9      180.000000        0.291096         4    ;  uncertainty k = 0.074538
        16        17        22        24     9        0.000000        0.297431         1    ;  uncertainty k = 0.338022
        16        17        22        24     9      180.000000        0.087168         2    ;  uncertainty k = 0.381934
        16        17        22        24     9        0.000000        0.347193         3    ;  uncertainty k = 0.232215
        16        17        22        24     9      180.000000        0.291096         4    ;  uncertainty k = 0.074538
        16        17        22        25     9        0.000000        0.297431         1    ;  uncertainty k = 0.338022
        16        17        22        25     9      180.000000        0.087168         2    ;  uncertainty k = 0.381934
        16        17        22        25     9        0.000000        0.347193         3    ;  uncertainty k = 0.232215
        16        17        22        25     9      180.000000        0.291096         4    ;  uncertainty k = 0.074538
        17        16        15        19     9        0.000000       -0.734672         1    ;  uncertainty k = 2.407400
        17        16        15        19     9      180.000000        6.965369         2    ;  uncertainty k = 1.234531
        17        16        15        19     9        0.000000        0.624658         3    ;  uncertainty k = 0.577006
        17        16        15        19     9      180.000000        0.290059         4    ;  uncertainty k = 0.846479
        17        18        19        20     9        0.000000        4.051322         1    ;  uncertainty k = 3.391115
        17        18        19        20     9      180.000000       10.697180         2    ;  uncertainty k = 0.526601
        17        18        19        20     9        0.000000        1.093668         3    ;  uncertainty k = 0.752546
        17        18        19        20     9      180.000000       -0.389374         4    ;  uncertainty k = 0.265720
        17        18        26        27     9        0.000000        8.080941         1    ;  uncertainty k = 2.061712
        17        18        26        27     9      180.000000        9.353073         2    ;  uncertainty k = 0.455751
        17        18        26        27     9        0.000000        0.960301         3    ;  uncertainty k = 0.478476
        17        18        26        27     9      180.000000       -0.922267         4    ;  uncertainty k = 0.215681
        17        18        26        28     9        0.000000        8.080941         1    ;  uncertainty k = 2.061712
        17        18        26        28     9      180.000000        9.353073         2    ;  uncertainty k = 0.455751
        17        18        26        28     9        0.000000        0.960301         3    ;  uncertainty k = 0.478476
        17        18        26        28     9      180.000000       -0.922267         4    ;  uncertainty k = 0.215681
        18        17        16        39     9        0.000000       -0.225774         1    ;  uncertainty k = 3.237560
        18        17        16        39     9      180.000000        7.660703         2    ;  uncertainty k = 0.931236
        18        17        16        39     9        0.000000        0.373526         3    ;  uncertainty k = 0.816132
        18        17        16        39     9      180.000000        0.053274         4    ;  uncertainty k = 0.298389
        18        17        22        23     9        0.000000       -0.260671         1    ;  uncertainty k = 0.510831
        18        17        22        23     9      180.000000       -1.123799         2    ;  uncertainty k = 0.505443
        18        17        22        23     9        0.000000        0.381297         3    ;  uncertainty k = 0.163929
        18        17        22        23     9      180.000000        0.194836         4    ;  uncertainty k = 0.041789
        18        17        22        24     9        0.000000       -0.260671         1    ;  uncertainty k = 0.510831
        18        17        22        24     9      180.000000       -1.123799         2    ;  uncertainty k = 0.505443
        18        17        22        24     9        0.000000        0.381297         3    ;  uncertainty k = 0.163929
        18        17        22        24     9      180.000000        0.194836         4    ;  uncertainty k = 0.041789
        18        17        22        25     9        0.000000       -0.260671         1    ;  uncertainty k = 0.510831
        18        17        22        25     9      180.000000       -1.123799         2    ;  uncertainty k = 0.505443
        18        17        22        25     9        0.000000        0.381297         3    ;  uncertainty k = 0.163929
        18        17        22        25     9      180.000000        0.194836         4    ;  uncertainty k = 0.041789
        19        15        16        39     9        0.000000        0.024534         1    ;  uncertainty k = 2.213974
        19        15        16        39     9      180.000000        4.149250         2    ;  uncertainty k = 1.312392
        19        15        16        39     9        0.000000        0.407424         3    ;  uncertainty k = 0.206510
        19        15        16        39     9      180.000000        0.443240         4    ;  uncertainty k = 0.158688
        19        18        17        22     9        0.000000       -0.380136         1    ;  uncertainty k = 2.913081
        19        18        17        22     9      180.000000        8.267784         2    ;  uncertainty k = 0.403615
        19        18        17        22     9        0.000000        0.435757         3    ;  uncertainty k = 0.320054
        19        18        17        22     9      180.000000       -0.156996         4    ;  uncertainty k = 0.291188
        19        18        26        27     9        0.000000        6.366443         1    ;  uncertainty k = 1.644722
        19        18        26        27     9      180.000000       10.049531         2    ;  uncertainty k = 0.349760
        19        18        26        27     9        0.000000        1.357511         3    ;  uncertainty k = 0.507490
        19        18        26        27     9      180.000000       -0.656591         4    ;  uncertainty k = 0.287459
        19        18        26        28     9        0.000000        6.366443         1    ;  uncertainty k = 1.644722
        19        18        26        28     9      180.000000       10.049531         2    ;  uncertainty k = 0.349760
        19        18        26        28     9        0.000000        1.357511         3    ;  uncertainty k = 0.507490
        19        18        26        28     9      180.000000       -0.656591         4    ;  uncertainty k = 0.287459
        20        19        18        26     9        0.000000        1.886192         1    ;  uncertainty k = 2.633103
        20        19        18        26     9      180.000000        7.784175         2    ;  uncertainty k = 1.209625
        20        19        18        26     9        0.000000        0.956054         3    ;  uncertainty k = 0.197633
        20        19        18        26     9      180.000000       -0.247909         4    ;  uncertainty k = 0.316191
        21        29        31        32     9        0.000000       -0.072270         1    ;  uncertainty k = 0.077911
        21        29        31        32     9      180.000000       12.797324         2    ;  uncertainty k = 0.527035
        21        29        31        32     9        0.000000        1.487750         3    ;  uncertainty k = 0.334863
        21        29        31        32     9      180.000000        1.470307         4    ;  uncertainty k = 0.195726
        21        29        31        33     9        0.000000        0.070544         1    ;  uncertainty k = 0.321584
        21        29        31        33     9      180.000000        9.172988         2    ;  uncertainty k = 0.588897
        21        29        31        33     9        0.000000        0.020374         3    ;  uncertainty k = 0.301935
        21        29        31        33     9      180.000000        1.217383         4    ;  uncertainty k = 0.305745
        21        37        35        33     9        0.000000       -0.027716         1    ;  uncertainty k = 0.240005
        21        37        35        33     9      180.000000       14.421992         2    ;  uncertainty k = 0.203016
        21        37        35        33     9        0.000000       -0.901236         3    ;  uncertainty k = 0.465582
        21        37        35        33     9      180.000000        0.679009         4    ;  uncertainty k = 0.246961
        21        37        35        36     9        0.000000        0.028350         1    ;  uncertainty k = 0.242281
        21        37        35        36     9      180.000000        7.693663         2    ;  uncertainty k = 0.323281
        21        37        35        36     9        0.000000        1.363994         3    ;  uncertainty k = 0.267531
        21        37        35        36     9      180.000000        1.823319         4    ;  uncertainty k = 0.154582
        22        17        16        39     9        0.000000       -0.743118         1    ;  uncertainty k = 3.324160
        22        17        16        39     9      180.000000        8.127734         2    ;  uncertainty k = 0.445128
        22        17        16        39     9        0.000000        0.693460         3    ;  uncertainty k = 0.571372
        22        17        16        39     9      180.000000        0.151177         4    ;  uncertainty k = 0.263311
        22        17        18        26     9        0.000000       -0.067505         1    ;  uncertainty k = 0.784520
        22        17        18        26     9      180.000000        6.890792         2    ;  uncertainty k = 0.817474
        22        17        18        26     9        0.000000        0.975121         3    ;  uncertainty k = 0.584566
        22        17        18        26     9      180.000000       -0.011356         4    ;  uncertainty k = 0.268200
        29        21        37        35     9        0.000000       -0.029086         1    ;  uncertainty k = 0.090794
        29        21        37        35     9      180.000000       11.535960         2    ;  uncertainty k = 0.300175
        29        21        37        35     9        0.000000       -0.446751         3    ;  uncertainty k = 0.349590
        29        21        37        35     9      180.000000        0.821829         4    ;  uncertainty k = 0.288889
        29        21        37        38     9        0.000000        0.125264         1    ;  uncertainty k = 0.188214
        29        21        37        38     9      180.000000        7.015193         2    ;  uncertainty k = 0.589237
        29        21        37        38     9        0.000000        1.477810         3    ;  uncertainty k = 0.235094
        29        21        37        38     9      180.000000        1.643217         4    ;  uncertainty k = 0.242835
        29        31        33        34     9        0.000000        0.041272         1    ;  uncertainty k = 0.132632
        29        31        33        34     9      180.000000        5.623221         2    ;  uncertainty k = 0.683455
        29        31        33        34     9        0.000000        1.268014         3    ;  uncertainty k = 0.295493
        29        31        33        34     9      180.000000        1.490795         4    ;  uncertainty k = 0.126598
        29        31        33        35     9        0.000000        0.067785         1    ;  uncertainty k = 0.200755
        29        31        33        35     9      180.000000        9.584947         2    ;  uncertainty k = 0.487690
        29        31        33        35     9        0.000000       -0.183573         3    ;  uncertainty k = 0.452034
        29        31        33        35     9      180.000000        1.118765         4    ;  uncertainty k = 0.302498
        30        29        21        37     9        0.000000        0.250875         1    ;  uncertainty k = 0.124212
        30        29        21        37     9      180.000000        6.864223         2    ;  uncertainty k = 0.538139
        30        29        21        37     9        0.000000        1.497602         3    ;  uncertainty k = 0.256571
        30        29        21        37     9      180.000000        1.629643         4    ;  uncertainty k = 0.234929
        30        29        31        32     9        0.000000       -0.419419         1    ;  uncertainty k = 0.135593
        30        29        31        32     9      180.000000        9.045482         2    ;  uncertainty k = 0.449524
        30        29        31        32     9        0.000000        0.790224         3    ;  uncertainty k = 0.212467
        30        29        31        32     9      180.000000        1.027496         4    ;  uncertainty k = 0.242298
        30        29        31        33     9        0.000000        0.068459         1    ;  uncertainty k = 0.154067
        30        29        31        33     9      180.000000        5.840737         2    ;  uncertainty k = 0.643330
        30        29        31        33     9        0.000000        1.315702         3    ;  uncertainty k = 0.315296
        30        29        31        33     9      180.000000        1.599734         4    ;  uncertainty k = 0.156365
        31        29        21        37     9        0.000000        0.112041         1    ;  uncertainty k = 0.202284
        31        29        21        37     9      180.000000       11.330907         2    ;  uncertainty k = 0.288534
        31        29        21        37     9        0.000000       -0.345915         3    ;  uncertainty k = 0.367874
        31        29        21        37     9      180.000000        0.968230         4    ;  uncertainty k = 0.301371
        31        33        35        36     9        0.000000       -0.049101         1    ;  uncertainty k = 0.120536
        31        33        35        36     9      180.000000        7.591104         2    ;  uncertainty k = 0.376490
        31        33        35        36     9        0.000000        1.392834         3    ;  uncertainty k = 0.299233
        31        33        35        36     9      180.000000        1.758688         4    ;  uncertainty k = 0.181117
        31        33        35        37     9        0.000000       -0.072307         1    ;  uncertainty k = 0.174009
        31        33        35        37     9      180.000000       14.588928         2    ;  uncertainty k = 0.247351
        31        33        35        37     9        0.000000       -1.022245         3    ;  uncertainty k = 0.541289
        31        33        35        37     9      180.000000        0.698022         4    ;  uncertainty k = 0.218386
        32        31        33        34     9        0.000000       -0.326218         1    ;  uncertainty k = 0.227733
        32        31        33        34     9      180.000000        8.821783         2    ;  uncertainty k = 0.312371
        32        31        33        34     9        0.000000        0.768583         3    ;  uncertainty k = 0.237453
        32        31        33        34     9      180.000000        0.923263         4    ;  uncertainty k = 0.156734
        32        31        33        35     9        0.000000       -0.048061         1    ;  uncertainty k = 0.344880
        32        31        33        35     9      180.000000       12.482198         2    ;  uncertainty k = 0.661372
        32        31        33        35     9        0.000000        1.452096         3    ;  uncertainty k = 0.288994
        32        31        33        35     9      180.000000        1.487362         4    ;  uncertainty k = 0.269968
        33        35        37        38     9        0.000000        0.077133         1    ;  uncertainty k = 0.050149
        33        35        37        38     9      180.000000        8.041659         2    ;  uncertainty k = 0.249100
        33        35        37        38     9        0.000000        1.462374         3    ;  uncertainty k = 0.282052
        33        35        37        38     9      180.000000        1.892839         4    ;  uncertainty k = 0.168712
        34        33        35        36     9        0.000000       -0.040365         1    ;  uncertainty k = 0.091348
        34        33        35        36     9      180.000000        7.513416         2    ;  uncertainty k = 0.527709
        34        33        35        36     9        0.000000       -0.417934         3    ;  uncertainty k = 0.275909
        34        33        35        36     9      180.000000        0.032284         4    ;  uncertainty k = 0.158434
        34        33        35        37     9        0.000000        0.138677         1    ;  uncertainty k = 0.051141
        34        33        35        37     9      180.000000        7.487670         2    ;  uncertainty k = 0.359524
        34        33        35        37     9        0.000000        1.523162         3    ;  uncertainty k = 0.302910
        34        33        35        37     9      180.000000        1.803534         4    ;  uncertainty k = 0.156541
        36        35        37        38     9        0.000000       -0.066345         1    ;  uncertainty k = 0.140872
        36        35        37        38     9      180.000000        7.759565         2    ;  uncertainty k = 0.364870
        36        35        37        38     9        0.000000       -0.454043         3    ;  uncertainty k = 0.273670
        36        35        37        38     9      180.000000        0.121418         4    ;  uncertainty k = 0.125323
        40        11        44        45     9        0.000000       -1.168308         1    ;  uncertainty k = 0.299692
        40        11        44        45     9      180.000000        0.150758         2    ;  uncertainty k = 0.296599
        40        11        44        45     9        0.000000        0.668939         3    ;  uncertainty k = 0.064920
        40        11        44        45     9      180.000000       -0.104414         4    ;  uncertainty k = 0.091599
        40        11        44        46     9        0.000000       -1.168308         1    ;  uncertainty k = 0.299692
        40        11        44        46     9      180.000000        0.150758         2    ;  uncertainty k = 0.296599
        40        11        44        46     9        0.000000        0.668939         3    ;  uncertainty k = 0.064920
        40        11        44        46     9      180.000000       -0.104414         4    ;  uncertainty k = 0.091599
        40        11        44        47     9        0.000000       -1.168308         1    ;  uncertainty k = 0.299692
        40        11        44        47     9      180.000000        0.150758         2    ;  uncertainty k = 0.296599
        40        11        44        47     9        0.000000        0.668939         3    ;  uncertainty k = 0.064920
        40        11        44        47     9      180.000000       -0.104414         4    ;  uncertainty k = 0.091599
        41        40        11        44     9        0.000000       -1.168308         1    ;  uncertainty k = 0.299692
        41        40        11        44     9      180.000000        0.150758         2    ;  uncertainty k = 0.296599
        41        40        11        44     9        0.000000        0.668939         3    ;  uncertainty k = 0.064920
        41        40        11        44     9      180.000000       -0.104414         4    ;  uncertainty k = 0.091599
        42        40        11        44     9        0.000000       -1.168308         1    ;  uncertainty k = 0.299692
        42        40        11        44     9      180.000000        0.150758         2    ;  uncertainty k = 0.296599
        42        40        11        44     9        0.000000        0.668939         3    ;  uncertainty k = 0.064920
        42        40        11        44     9      180.000000       -0.104414         4    ;  uncertainty k = 0.091599
        43        40        11        44     9        0.000000       -1.168308         1    ;  uncertainty k = 0.299692
        43        40        11        44     9      180.000000        0.150758         2    ;  uncertainty k = 0.296599
        43        40        11        44     9        0.000000        0.668939         3    ;  uncertainty k = 0.064920
        43        40        11        44     9      180.000000       -0.104414         4    ;  uncertainty k = 0.091599

[ dihedrals ] ; impropers
;       ai        aj        ak        al funct           phase               k        pn
         1         2         8        21     4      180.000000       13.455974         2    ;  uncertainty k = 0.102248
         1         8        21         2     4      180.000000       13.455974         2    ;  uncertainty k = 0.102248
         1        21         2         8     4      180.000000       13.455974         2    ;  uncertainty k = 0.102248
         2         1         3         4     4      180.000000        4.743231         2    ;  uncertainty k = 0.191910
         2         3         4         1     4      180.000000        4.743231         2    ;  uncertainty k = 0.191910
         2         4         1         3     4      180.000000        4.743231         2    ;  uncertainty k = 0.191910
         4         2         5         6     4      180.000000        1.916582         2    ;  uncertainty k = 0.189189
         4         5         6         2     4      180.000000        1.916582         2    ;  uncertainty k = 0.189189
         4         6         2         5     4      180.000000        1.916582         2    ;  uncertainty k = 0.189189
         6         4         7        10     4      180.000000       22.038012         2    ;  uncertainty k = 0.126561
         6         7        10         4     4      180.000000       22.038012         2    ;  uncertainty k = 0.126561
         6        10         4         7     4      180.000000       22.038012         2    ;  uncertainty k = 0.126561
         7         6         8        15     4      180.000000       11.758551         2    ;  uncertainty k = 0.248599
         7         8        15         6     4      180.000000       11.758551         2    ;  uncertainty k = 0.248599
         7        15         6         8     4      180.000000       11.758551         2    ;  uncertainty k = 0.248599
         8         1         7         9     4      180.000000        4.901739         2    ;  uncertainty k = 0.402578
         8         7         9         1     4      180.000000        4.901739         2    ;  uncertainty k = 0.402578
         8         9         1         7     4      180.000000        4.901739         2    ;  uncertainty k = 0.402578
        16        15        17        39     4      180.000000       50.512062         2    ;  uncertainty k = 0.072585
        16        17        39        15     4      180.000000       50.512062         2    ;  uncertainty k = 0.072585
        16        39        15        17     4      180.000000       50.512062         2    ;  uncertainty k = 0.072585
        17        16        18        22     4      180.000000        2.066646         2    ;  uncertainty k = 0.825300
        17        18        22        16     4      180.000000        2.066646         2    ;  uncertainty k = 0.825300
        17        22        16        18     4      180.000000        2.066646         2    ;  uncertainty k = 0.825300
        18        17        19        26     4      180.000000       30.892449         2    ;  uncertainty k = 0.146917
        18        19        26        17     4      180.000000       30.892449         2    ;  uncertainty k = 0.146917
        18        26        17        19     4      180.000000       30.892449         2    ;  uncertainty k = 0.146917
        21         1        29        37     4      180.000000       15.013035         2    ;  uncertainty k = 0.052211
        21        29        37         1     4      180.000000       15.013035         2    ;  uncertainty k = 0.052211
        21        37         1        29     4      180.000000       15.013035         2    ;  uncertainty k = 0.052211
        26        18        27        28     4      180.000000        0.184047         2    ;  uncertainty k = 0.411542
        26        27        28        18     4      180.000000        0.184047         2    ;  uncertainty k = 0.411542
        26        28        18        27     4      180.000000        0.184047         2    ;  uncertainty k = 0.411542
        29        21        30        31     4      180.000000        2.107451         2    ;  uncertainty k = 0.239717
        29        30        31        21     4      180.000000        2.107451         2    ;  uncertainty k = 0.239717
        29        31        21        30     4      180.000000        2.107451         2    ;  uncertainty k = 0.239717
        31        29        32        33     4      180.000000       17.192642         2    ;  uncertainty k = 0.040992
        31        32        33        29     4      180.000000       17.192642         2    ;  uncertainty k = 0.040992
        31        33        29        32     4      180.000000       17.192642         2    ;  uncertainty k = 0.040992
        33        31        34        35     4      180.000000        2.109348         2    ;  uncertainty k = 0.236065
        33        34        35        31     4      180.000000        2.109348         2    ;  uncertainty k = 0.236065
        33        35        31        34     4      180.000000        2.109348         2    ;  uncertainty k = 0.236065
        35        33        36        37     4      180.000000        4.555263         2    ;  uncertainty k = 0.125950
        35        36        37        33     4      180.000000        4.555263         2    ;  uncertainty k = 0.125950
        35        37        33        36     4      180.000000        4.555263         2    ;  uncertainty k = 0.125950
        37        21        35        38     4      180.000000        3.274285         2    ;  uncertainty k = 0.035146
        37        35        38        21     4      180.000000        3.274285         2    ;  uncertainty k = 0.035146
        37        38        21        35     4      180.000000        3.274285         2    ;  uncertainty k = 0.035146

[ pairs ]
;       ai        aj funct
         1         5     1
         1         6     1
         1        15     1
         1        30     1
         1        31     1
         1        35     1
         1        38     1
         2         7     1
         2         9     1
         2        10     1
         2        29     1
         2        37     1
         3         5     1
         3         6     1
         3         8     1
         3        21     1
         4         8     1
         4        11     1
         4        15     1
         4        21     1
         5         7     1
         5        10     1
         6         9     1
         6        12     1
         6        16     1
         6        19     1
         6        40     1
         6        44     1
         7        11     1
         7        13     1
         7        14     1
         7        17     1
         7        18     1
         7        20     1
         7        21     1
         7        39     1
         8        10     1
         8        12     1
         8        16     1
         8        19     1
         8        29     1
         8        37     1
         9        15     1
         9        21     1
        10        13     1
        10        14     1
        10        15     1
        10        41     1
        10        42     1
        10        43     1
        10        45     1
        10        46     1
        10        47     1
        11        16     1
        11        19     1
        12        17     1
        12        18     1
        12        20     1
        12        39     1
        12        41     1
        12        42     1
        12        43     1
        12        45     1
        12        46     1
        12        47     1
        13        16     1
        13        19     1
        13        40     1
        13        44     1
        14        16     1
        14        19     1
        14        40     1
        14        44     1
        15        22     1
        15        26     1
        15        40     1
        15        44     1
        16        20     1
        16        23     1
        16        24     1
        16        25     1
        16        26     1
        17        20     1
        17        27     1
        17        28     1
        18        23     1
        18        24     1
        18        25     1
        18        39     1
        19        22     1
        19        27     1
        19        28     1
        19        39     1
        20        26     1
        21        32     1
        21        33     1
        21        36     1
        22        26     1
        22        39     1
        29        34     1
        29        35     1
        29        38     1
        30        32     1
        30        33     1
        30        37     1
        31        36     1
        31        37     1
        32        34     1
        32        35     1
        33        38     1
        34        36     1
        34        37     1
        36        38     1
        40        45     1
        40        46     1
        40        47     1
        41        44     1
        42        44     1
        43        44     1
