; ITP file created by ByteFF-joint-25, 2026-03-14 15:22:22.497708

[ atomtypes ]
;name           bonded.type        at.num        mass        charge   ptype           sigma         epsilon
 c0bf                                   6      0.0000       0.00000       A     3.31539e-01     4.13183e-01    ;  uncertainty sigma = 0.000006, epsilon = 0.001104
 c1bf                                   6      0.0000       0.00000       A     3.31512e-01     4.13560e-01    ;  uncertainty sigma = 0.000006, epsilon = 0.000695
 h2bf                                   1      0.0000       0.00000       A     2.62558e-01     6.70552e-02    ;  uncertainty sigma = 0.000011, epsilon = 0.000442
 c3bf                                   6      0.0000       0.00000       A     3.31520e-01     4.13770e-01    ;  uncertainty sigma = 0.000004, epsilon = 0.000981
 h4bf                                   1      0.0000       0.00000       A     2.62561e-01     6.68067e-02    ;  uncertainty sigma = 0.000012, epsilon = 0.000527
 c5bf                                   6      0.0000       0.00000       A     3.31562e-01     4.13129e-01    ;  uncertainty sigma = 0.000021, epsilon = 0.000953
 c6bf                                   6      0.0000       0.00000       A     3.31601e-01     4.12738e-01    ;  uncertainty sigma = 0.000055, epsilon = 0.001468
 c7bf                                   6      0.0000       0.00000       A     3.31547e-01     4.13726e-01    ;  uncertainty sigma = 0.000017, epsilon = 0.001388
 h8bf                                   1      0.0000       0.00000       A     2.62553e-01     6.72050e-02    ;  uncertainty sigma = 0.000015, epsilon = 0.000415
 o9bf                                   8      0.0000       0.00000       A     3.15675e-01     3.03349e-01    ;  uncertainty sigma = 0.000037, epsilon = 0.000709
 c10bf                                  6      0.0000       0.00000       A     3.39754e-01     4.50298e-01    ;  uncertainty sigma = 0.000022, epsilon = 0.001818
 c11bf                                  6      0.0000       0.00000       A     3.39729e-01     4.51261e-01    ;  uncertainty sigma = 0.000015, epsilon = 0.001388
 h12bf                                  1      0.0000       0.00000       A     2.60113e-01     8.69260e-02    ;  uncertainty sigma = 0.000018, epsilon = 0.001362
 h13bf                                  1      0.0000       0.00000       A     2.60113e-01     8.69260e-02    ;  uncertainty sigma = 0.000018, epsilon = 0.001362
 c14bf                                  6      0.0000       0.00000       A     3.39922e-01     4.52078e-01    ;  uncertainty sigma = 0.000044, epsilon = 0.005050
 c15bf                                  6      0.0000       0.00000       A     3.31534e-01     4.13061e-01    ;  uncertainty sigma = 0.000023, epsilon = 0.000770
 n16bf                                  7      0.0000       0.00000       A     3.18159e-01     6.82058e-01    ;  uncertainty sigma = 0.000074, epsilon = 0.006526
 c17bf                                  6      0.0000       0.00000       A     3.31516e-01     4.13029e-01    ;  uncertainty sigma = 0.000046, epsilon = 0.002102
 n18bf                                  7      0.0000       0.00000       A     3.27895e-01     6.51183e-01    ;  uncertainty sigma = 0.000198, epsilon = 0.011723
 h19bf                                  1      0.0000       0.00000       A     1.10796e-01     4.19443e-02    ;  uncertainty sigma = 0.000445, epsilon = 0.001840
 c20bf                                  6      0.0000       0.00000       A     3.39747e-01     4.51374e-01    ;  uncertainty sigma = 0.000011, epsilon = 0.001160
 h21bf                                  1      0.0000       0.00000       A     2.42212e-01     8.67416e-02    ;  uncertainty sigma = 0.000033, epsilon = 0.000677
 h22bf                                  1      0.0000       0.00000       A     2.42212e-01     8.67416e-02    ;  uncertainty sigma = 0.000033, epsilon = 0.000677
 h23bf                                  1      0.0000       0.00000       A     2.42212e-01     8.67416e-02    ;  uncertainty sigma = 0.000033, epsilon = 0.000677
 n24bf                                  7      0.0000       0.00000       A     3.36518e-01     4.71691e-01    ;  uncertainty sigma = 0.000108, epsilon = 0.006012
 h25bf                                  1      0.0000       0.00000       A     1.10696e-01     4.11175e-02    ;  uncertainty sigma = 0.000127, epsilon = 0.001410
 h26bf                                  1      0.0000       0.00000       A     1.10696e-01     4.11175e-02    ;  uncertainty sigma = 0.000127, epsilon = 0.001410
 o27bf                                  8      0.0000       0.00000       A     3.04746e-01     6.12575e-01    ;  uncertainty sigma = 0.000054, epsilon = 0.002454
 c28bf                                  6      0.0000       0.00000       A     3.39769e-01     4.50351e-01    ;  uncertainty sigma = 0.000003, epsilon = 0.001331
 h29bf                                  1      0.0000       0.00000       A     2.60031e-01     8.68009e-02    ;  uncertainty sigma = 0.000006, epsilon = 0.000320
 h30bf                                  1      0.0000       0.00000       A     2.60031e-01     8.68009e-02    ;  uncertainty sigma = 0.000006, epsilon = 0.000320
 h31bf                                  1      0.0000       0.00000       A     2.60031e-01     8.68009e-02    ;  uncertainty sigma = 0.000006, epsilon = 0.000320
 c32bf                                  6      0.0000       0.00000       A     3.39769e-01     4.50351e-01    ;  uncertainty sigma = 0.000003, epsilon = 0.001331
 h33bf                                  1      0.0000       0.00000       A     2.60031e-01     8.68009e-02    ;  uncertainty sigma = 0.000006, epsilon = 0.000320
 h34bf                                  1      0.0000       0.00000       A     2.60031e-01     8.68009e-02    ;  uncertainty sigma = 0.000006, epsilon = 0.000320
 h35bf                                  1      0.0000       0.00000       A     2.60031e-01     8.68009e-02    ;  uncertainty sigma = 0.000006, epsilon = 0.000320
 c36bf                                  6      0.0000       0.00000       A     3.39770e-01     4.50854e-01    ;  uncertainty sigma = 0.000004, epsilon = 0.000570
 h37bf                                  1      0.0000       0.00000       A     2.60038e-01     8.68001e-02    ;  uncertainty sigma = 0.000010, epsilon = 0.000496
 h38bf                                  1      0.0000       0.00000       A     2.60038e-01     8.68001e-02    ;  uncertainty sigma = 0.000010, epsilon = 0.000496
 c39bf                                  6      0.0000       0.00000       A     3.39766e-01     4.50864e-01    ;  uncertainty sigma = 0.000005, epsilon = 0.000588
 h40bf                                  1      0.0000       0.00000       A     2.60035e-01     8.67427e-02    ;  uncertainty sigma = 0.000011, epsilon = 0.000559
 h41bf                                  1      0.0000       0.00000       A     2.60035e-01     8.67427e-02    ;  uncertainty sigma = 0.000011, epsilon = 0.000559
 c42bf                                  6      0.0000       0.00000       A     3.39774e-01     4.51007e-01    ;  uncertainty sigma = 0.000003, epsilon = 0.000634
 h43bf                                  1      0.0000       0.00000       A     2.60027e-01     8.67974e-02    ;  uncertainty sigma = 0.000003, epsilon = 0.000618
 h44bf                                  1      0.0000       0.00000       A     2.60027e-01     8.67974e-02    ;  uncertainty sigma = 0.000003, epsilon = 0.000618
 c45bf                                  6      0.0000       0.00000       A     3.39784e-01     4.50868e-01    ;  uncertainty sigma = 0.000008, epsilon = 0.000542
 h46bf                                  1      0.0000       0.00000       A     2.60045e-01     8.70152e-02    ;  uncertainty sigma = 0.000051, epsilon = 0.000740
 c47bf                                  6      0.0000       0.00000       A     3.39774e-01     4.51007e-01    ;  uncertainty sigma = 0.000003, epsilon = 0.000634
 h48bf                                  1      0.0000       0.00000       A     2.60027e-01     8.67973e-02    ;  uncertainty sigma = 0.000003, epsilon = 0.000618
 h49bf                                  1      0.0000       0.00000       A     2.60027e-01     8.67973e-02    ;  uncertainty sigma = 0.000003, epsilon = 0.000618
 c50bf                                  6      0.0000       0.00000       A     3.39766e-01     4.50864e-01    ;  uncertainty sigma = 0.000005, epsilon = 0.000588
 h51bf                                  1      0.0000       0.00000       A     2.60035e-01     8.67427e-02    ;  uncertainty sigma = 0.000011, epsilon = 0.000559
 h52bf                                  1      0.0000       0.00000       A     2.60035e-01     8.67428e-02    ;  uncertainty sigma = 0.000011, epsilon = 0.000559

[ moleculetype ]
;name             nrexcl
 MOL                   3

[ atoms ]
;       nr            type      resi   res      atom      cgnr      charge          mass ; qtot
         1            c0bf         1   UNL        c0         1    -0.07315       12.0110 ; qtot   -0.073
         2            c1bf         1   UNL        c1         2    -0.07728       12.0110 ; qtot   -0.150
         3            h2bf         1   UNL        h2         3     0.13633        1.0080 ; qtot   -0.014
         4            c3bf         1   UNL        c3         4    -0.14515       12.0110 ; qtot   -0.159
         5            h4bf         1   UNL        h4         5     0.15546        1.0080 ; qtot   -0.004
         6            c5bf         1   UNL        c5         6     0.17640       12.0110 ; qtot    0.173
         7            c6bf         1   UNL        c6         7    -0.20422       12.0110 ; qtot   -0.032
         8            c7bf         1   UNL        c7         8    -0.07158       12.0110 ; qtot   -0.103
         9            h8bf         1   UNL        h8         9     0.14551        1.0080 ; qtot    0.042
        10            o9bf         1   UNL        o9        10    -0.32527       15.9990 ; qtot   -0.283
        11           c10bf         1   UNL       c10        11     0.16563       12.0110 ; qtot   -0.117
        12           c11bf         1   UNL       c11        12    -0.09875       12.0110 ; qtot   -0.216
        13           h12bf         1   UNL       h12        13     0.09101        1.0080 ; qtot   -0.125
        14           h13bf         1   UNL       h13        14     0.09101        1.0080 ; qtot   -0.034
        15           c14bf         1   UNL       c14        15     0.04081       12.0110 ; qtot    0.007
        16           c15bf         1   UNL       c15        16     0.70447       12.0110 ; qtot    0.711
        17           n16bf         1   UNL       n16        17    -0.41729       14.0070 ; qtot    0.294
        18           c17bf         1   UNL       c17        18     0.47248       12.0110 ; qtot    0.766
        19           n18bf         1   UNL       n18        19    -0.37461       14.0070 ; qtot    0.392
        20           h19bf         1   UNL       h19        20     0.35504        1.0080 ; qtot    0.747
        21           c20bf         1   UNL       c20        21     0.07530       12.0110 ; qtot    0.822
        22           h21bf         1   UNL       h21        22     0.09109        1.0080 ; qtot    0.913
        23           h22bf         1   UNL       h22        23     0.09109        1.0080 ; qtot    1.004
        24           h23bf         1   UNL       h23        24     0.09109        1.0080 ; qtot    1.095
        25           n24bf         1   UNL       n24        25    -0.48596       14.0070 ; qtot    0.609
        26           h25bf         1   UNL       h25        26     0.33929        1.0080 ; qtot    0.949
        27           h26bf         1   UNL       h26        27     0.33929        1.0080 ; qtot    1.288
        28           o27bf         1   UNL       o27        28    -0.45182       15.9990 ; qtot    0.836
        29           c28bf         1   UNL       c28        29    -0.10337       12.0110 ; qtot    0.733
        30           h29bf         1   UNL       h29        30     0.05101        1.0080 ; qtot    0.784
        31           h30bf         1   UNL       h30        31     0.05101        1.0080 ; qtot    0.835
        32           h31bf         1   UNL       h31        32     0.05101        1.0080 ; qtot    0.886
        33           c32bf         1   UNL       c32        33    -0.10337       12.0110 ; qtot    0.783
        34           h33bf         1   UNL       h33        34     0.05101        1.0080 ; qtot    0.834
        35           h34bf         1   UNL       h34        35     0.05101        1.0080 ; qtot    0.885
        36           h35bf         1   UNL       h35        36     0.05101        1.0080 ; qtot    0.936
        37           c36bf         1   UNL       c36        37    -0.07624       12.0110 ; qtot    0.859
        38           h37bf         1   UNL       h37        38     0.03885        1.0080 ; qtot    0.898
        39           h38bf         1   UNL       h38        39     0.03885        1.0080 ; qtot    0.937
        40           c39bf         1   UNL       c39        40    -0.07498       12.0110 ; qtot    0.862
        41           h40bf         1   UNL       h40        41     0.03942        1.0080 ; qtot    0.901
        42           h41bf         1   UNL       h41        42     0.03942        1.0080 ; qtot    0.941
        43           c42bf         1   UNL       c42        43    -0.07173       12.0110 ; qtot    0.869
        44           h43bf         1   UNL       h43        44     0.04225        1.0080 ; qtot    0.911
        45           h44bf         1   UNL       h44        45     0.04225        1.0080 ; qtot    0.954
        46           c45bf         1   UNL       c45        46    -0.01865       12.0110 ; qtot    0.935
        47           h46bf         1   UNL       h46        47     0.04840        1.0080 ; qtot    0.983
        48           c47bf         1   UNL       c47        48    -0.07173       12.0110 ; qtot    0.912
        49           h48bf         1   UNL       h48        49     0.04225        1.0080 ; qtot    0.954
        50           h49bf         1   UNL       h49        50     0.04225        1.0080 ; qtot    0.996
        51           c50bf         1   UNL       c50        51    -0.07498       12.0110 ; qtot    0.921
        52           h51bf         1   UNL       h51        52     0.03942        1.0080 ; qtot    0.961
        53           h52bf         1   UNL       h52        53     0.03941        1.0080 ; qtot    1.000

[ bonds ]
;       ai        aj funct               r               k
         1         2     1        0.140132   347211.068457    ;  uncertainty r = 0.000066, k = 5.237217
         1         8     1        0.139336   342756.477246    ;  uncertainty r = 0.000060, k = 6.332246
         1        46     1        0.151159   215055.429346    ;  uncertainty r = 0.000052, k = 6.692006
         2         3     1        0.108814   334381.403467    ;  uncertainty r = 0.000033, k = 1.219656
         2         4     1        0.138895   376708.804736    ;  uncertainty r = 0.000044, k = 4.282251
         4         5     1        0.108778   336780.997949    ;  uncertainty r = 0.000014, k = 1.400158
         4         6     1        0.140026   362405.980518    ;  uncertainty r = 0.000049, k = 4.103847
         6         7     1        0.139952   329308.763135    ;  uncertainty r = 0.000178, k = 7.512014
         6        10     1        0.136368   303578.797510    ;  uncertainty r = 0.000194, k = 10.538317
         7         8     1        0.139897   346605.430371    ;  uncertainty r = 0.000156, k = 6.291523
         7        15     1        0.150684   206196.912549    ;  uncertainty r = 0.000117, k = 21.047927
         8         9     1        0.108809   334209.717480    ;  uncertainty r = 0.000073, k = 2.788590
        10        11     1        0.145422   203859.641382    ;  uncertainty r = 0.000221, k = 9.275520
        11        12     1        0.152936   192803.911694    ;  uncertainty r = 0.000262, k = 11.274596
        11        29     1        0.152325   205847.654272    ;  uncertainty r = 0.000037, k = 5.592256
        11        33     1        0.152325   205847.654272    ;  uncertainty r = 0.000037, k = 5.592256
        12        13     1        0.109477   309561.503809    ;  uncertainty r = 0.000048, k = 2.448473
        12        14     1        0.109477   309561.503809    ;  uncertainty r = 0.000048, k = 2.448473
        12        15     1        0.153041   191194.026782    ;  uncertainty r = 0.000126, k = 21.513846
        15        16     1        0.153598   171646.122900    ;  uncertainty r = 0.000173, k = 14.753170
        15        19     1        0.149698   232215.907178    ;  uncertainty r = 0.000407, k = 51.570456
        16        17     1        0.142413   302839.344971    ;  uncertainty r = 0.000236, k = 75.996174
        16        28     1        0.120112   608584.455469    ;  uncertainty r = 0.000161, k = 10.569144
        17        18     1        0.135836   286250.770703    ;  uncertainty r = 0.000260, k = 52.766102
        17        21     1        0.146741   261825.572607    ;  uncertainty r = 0.000154, k = 17.700649
        18        19     1        0.133610   531287.609180    ;  uncertainty r = 0.000191, k = 37.526813
        18        25     1        0.133101   320485.564160    ;  uncertainty r = 0.000146, k = 40.823703
        19        20     1        0.101578   423262.955127    ;  uncertainty r = 0.000083, k = 11.557068
        21        22     1        0.109172   309495.286084    ;  uncertainty r = 0.000053, k = 3.597993
        21        23     1        0.109172   309495.286084    ;  uncertainty r = 0.000053, k = 3.597993
        21        24     1        0.109172   309495.286084    ;  uncertainty r = 0.000053, k = 3.597993
        25        26     1        0.101405   421785.684424    ;  uncertainty r = 0.000064, k = 13.590764
        25        27     1        0.101405   421785.735498    ;  uncertainty r = 0.000064, k = 13.590763
        29        30     1        0.109545   310467.177393    ;  uncertainty r = 0.000018, k = 1.787242
        29        31     1        0.109545   310467.177393    ;  uncertainty r = 0.000018, k = 1.787242
        29        32     1        0.109545   310467.177393    ;  uncertainty r = 0.000018, k = 1.787242
        33        34     1        0.109545   310467.177393    ;  uncertainty r = 0.000018, k = 1.787242
        33        35     1        0.109545   310467.177393    ;  uncertainty r = 0.000018, k = 1.787242
        33        36     1        0.109545   310467.177393    ;  uncertainty r = 0.000018, k = 1.787242
        37        38     1        0.109784   306491.892188    ;  uncertainty r = 0.000013, k = 1.067762
        37        39     1        0.109784   306491.892188    ;  uncertainty r = 0.000013, k = 1.067762
        37        40     1        0.153602   211553.972437    ;  uncertainty r = 0.000024, k = 1.720200
        37        51     1        0.153602   211553.972437    ;  uncertainty r = 0.000024, k = 1.720200
        40        41     1        0.109777   306607.345459    ;  uncertainty r = 0.000007, k = 0.964155
        40        42     1        0.109777   306607.345459    ;  uncertainty r = 0.000007, k = 0.964155
        40        43     1        0.153580   210723.199194    ;  uncertainty r = 0.000024, k = 3.200406
        43        44     1        0.109727   307969.826855    ;  uncertainty r = 0.000010, k = 1.815378
        43        45     1        0.109727   307969.826855    ;  uncertainty r = 0.000010, k = 1.815378
        43        46     1        0.154162   201140.488281    ;  uncertainty r = 0.000029, k = 4.293513
        46        47     1        0.109852   301642.931396    ;  uncertainty r = 0.000017, k = 2.093123
        46        48     1        0.154162   201140.488281    ;  uncertainty r = 0.000029, k = 4.293514
        48        49     1        0.109727   307969.826855    ;  uncertainty r = 0.000010, k = 1.815388
        48        50     1        0.109727   307969.826855    ;  uncertainty r = 0.000010, k = 1.815388
        48        51     1        0.153580   210723.199194    ;  uncertainty r = 0.000024, k = 3.200399
        51        52     1        0.109777   306607.345459    ;  uncertainty r = 0.000007, k = 0.964173
        51        53     1        0.109777   306607.345459    ;  uncertainty r = 0.000007, k = 0.964173

[ angles ]
;       ai        aj        ak funct           theta             cth
         1         2         3     1      118.672218      269.590412    ;  uncertainty theta = 0.001501, k = 0.049927
         1         2         4     1      120.945290      527.960520    ;  uncertainty theta = 0.003728, k = 0.055695
         1         8         7     1      123.548180      505.165713    ;  uncertainty theta = 0.003741, k = 0.208923
         1         8         9     1      118.276184      274.271140    ;  uncertainty theta = 0.002900, k = 0.108952
         1        46        43     1      110.476303      552.007475    ;  uncertainty theta = 0.001703, k = 0.058823
         1        46        47     1      104.771889      398.233536    ;  uncertainty theta = 0.001995, k = 0.070015
         1        46        48     1      110.476303      552.007475    ;  uncertainty theta = 0.001703, k = 0.058823
         2         1         8     1      118.861023      458.462521    ;  uncertainty theta = 0.004134, k = 0.048642
         2         1        46     1      121.207764      422.486257    ;  uncertainty theta = 0.002389, k = 0.215621
         2         4         5     1      121.505981      280.853490    ;  uncertainty theta = 0.001503, k = 0.018466
         2         4         6     1      119.399071      506.488982    ;  uncertainty theta = 0.002100, k = 0.185518
         3         2         4     1      119.153175      289.820335    ;  uncertainty theta = 0.001443, k = 0.044447
         4         6         7     1      120.975266      372.229672    ;  uncertainty theta = 0.002855, k = 0.119764
         4         6        10     1      118.428993      539.675094    ;  uncertainty theta = 0.003085, k = 0.118556
         5         4         6     1      120.023193      275.796951    ;  uncertainty theta = 0.003321, k = 0.147545
         6         7         8     1      121.539352      439.280609    ;  uncertainty theta = 0.003642, k = 0.135035
         6         7        15     1      120.018387      416.397891    ;  uncertainty theta = 0.009080, k = 0.233690
         6        10        11     1      114.537888      453.333553    ;  uncertainty theta = 0.006687, k = 0.093698
         7         6        10     1      123.847397      494.497202    ;  uncertainty theta = 0.004281, k = 0.272188
         7         8         9     1      117.290565      272.008744    ;  uncertainty theta = 0.003109, k = 0.116599
         7        15        12     1      110.388489      540.000948    ;  uncertainty theta = 0.001426, k = 0.146840
         7        15        16     1      109.044640      466.009854    ;  uncertainty theta = 0.003622, k = 0.378836
         7        15        19     1      110.501938      616.315024    ;  uncertainty theta = 0.003988, k = 0.306590
         8         1        46     1      120.189552      403.052325    ;  uncertainty theta = 0.003888, k = 0.207182
         8         7        15     1      118.327591      405.351559    ;  uncertainty theta = 0.004395, k = 0.149588
        10        11        12     1      109.104774      651.855785    ;  uncertainty theta = 0.004859, k = 0.084503
        10        11        29     1      107.605125      619.338362    ;  uncertainty theta = 0.001081, k = 0.064685
        10        11        33     1      107.605125      619.338362    ;  uncertainty theta = 0.001081, k = 0.064685
        11        12        13     1      107.678444      386.201185    ;  uncertainty theta = 0.003165, k = 0.032000
        11        12        14     1      107.678444      386.201185    ;  uncertainty theta = 0.003165, k = 0.032000
        11        12        15     1      109.859573      530.089421    ;  uncertainty theta = 0.006963, k = 0.198376
        11        29        30     1      107.221069      387.594393    ;  uncertainty theta = 0.001065, k = 0.069193
        11        29        31     1      107.221069      387.594393    ;  uncertainty theta = 0.001065, k = 0.069193
        11        29        32     1      107.221069      387.594393    ;  uncertainty theta = 0.001065, k = 0.069193
        11        33        34     1      107.221069      387.594393    ;  uncertainty theta = 0.001065, k = 0.069193
        11        33        35     1      107.221069      387.594393    ;  uncertainty theta = 0.001065, k = 0.069193
        11        33        36     1      107.221069      387.594393    ;  uncertainty theta = 0.001065, k = 0.069193
        12        11        29     1      109.374954      548.046988    ;  uncertainty theta = 0.004356, k = 0.115347
        12        11        33     1      109.374954      548.046988    ;  uncertainty theta = 0.004356, k = 0.115347
        12        15        16     1      107.815041      449.614456    ;  uncertainty theta = 0.007030, k = 0.162708
        12        15        19     1      109.812546      627.822301    ;  uncertainty theta = 0.007991, k = 0.271564
        13        12        14     1      106.986496      321.844700    ;  uncertainty theta = 0.004263, k = 0.066652
        13        12        15     1      106.651634      397.354709    ;  uncertainty theta = 0.003140, k = 0.080198
        14        12        15     1      106.651634      397.354709    ;  uncertainty theta = 0.003140, k = 0.080198
        15        16        17     1      110.177444      536.173382    ;  uncertainty theta = 0.011689, k = 0.712083
        15        16        28     1      125.836937      424.636737    ;  uncertainty theta = 0.006696, k = 0.210364
        15        19        18     1      111.019447      602.235713    ;  uncertainty theta = 0.016031, k = 0.385577
        15        19        20     1      118.127907      280.649416    ;  uncertainty theta = 0.015278, k = 0.121870
        16        15        19     1      103.837784      815.585174    ;  uncertainty theta = 0.012174, k = 0.852513
        16        17        18     1      110.293701      728.609291    ;  uncertainty theta = 0.010426, k = 0.320486
        16        17        21     1      119.398109      397.513773    ;  uncertainty theta = 0.006832, k = 0.281808
        17        16        28     1      125.307961      629.051912    ;  uncertainty theta = 0.008036, k = 0.165829
        17        18        19     1      113.250023      720.106327    ;  uncertainty theta = 0.006756, k = 0.305315
        17        18        25     1      125.598953      549.524885    ;  uncertainty theta = 0.008546, k = 0.324469
        17        21        22     1      107.360855      470.851946    ;  uncertainty theta = 0.002522, k = 0.203983
        17        21        23     1      107.360855      470.851946    ;  uncertainty theta = 0.002522, k = 0.203983
        17        21        24     1      107.360855      470.851946    ;  uncertainty theta = 0.002522, k = 0.203983
        18        17        21     1      118.646042      371.786540    ;  uncertainty theta = 0.007230, k = 0.373049
        18        19        20     1      119.824707      355.581520    ;  uncertainty theta = 0.006083, k = 0.153034
        18        25        26     1      114.903091      371.138312    ;  uncertainty theta = 0.001582, k = 0.210952
        18        25        27     1      114.903091      371.138312    ;  uncertainty theta = 0.001582, k = 0.210952
        19        18        25     1      128.730377      637.313550    ;  uncertainty theta = 0.008927, k = 0.256741
        22        21        23     1      107.634499      325.466948    ;  uncertainty theta = 0.003233, k = 0.098676
        22        21        24     1      107.634499      325.466948    ;  uncertainty theta = 0.003233, k = 0.098676
        23        21        24     1      107.634499      325.466948    ;  uncertainty theta = 0.003233, k = 0.098676
        26        25        27     1      112.323532      263.743275    ;  uncertainty theta = 0.015210, k = 0.362876
        29        11        33     1      110.900230      580.347282    ;  uncertainty theta = 0.002949, k = 0.067890
        30        29        31     1      106.043396      316.610487    ;  uncertainty theta = 0.000878, k = 0.018252
        30        29        32     1      106.043396      316.610487    ;  uncertainty theta = 0.000878, k = 0.018252
        31        29        32     1      106.043396      316.610487    ;  uncertainty theta = 0.000878, k = 0.018252
        34        33        35     1      106.043396      316.610487    ;  uncertainty theta = 0.000878, k = 0.018252
        34        33        36     1      106.043396      316.610487    ;  uncertainty theta = 0.000878, k = 0.018252
        35        33        36     1      106.043396      316.610487    ;  uncertainty theta = 0.000878, k = 0.018252
        37        40        41     1      108.831467      401.615033    ;  uncertainty theta = 0.001066, k = 0.009013
        37        40        42     1      108.831467      401.615033    ;  uncertainty theta = 0.001066, k = 0.009013
        37        40        43     1      109.478371      617.007973    ;  uncertainty theta = 0.000727, k = 0.023771
        37        51        48     1      109.478371      617.007973    ;  uncertainty theta = 0.000727, k = 0.023771
        37        51        52     1      108.831467      401.615033    ;  uncertainty theta = 0.001066, k = 0.009013
        37        51        53     1      108.831467      401.615033    ;  uncertainty theta = 0.001066, k = 0.009013
        38        37        39     1      103.937462      313.963374    ;  uncertainty theta = 0.001750, k = 0.047128
        38        37        40     1      108.773682      402.148088    ;  uncertainty theta = 0.001151, k = 0.011918
        38        37        51     1      108.773682      402.148056    ;  uncertainty theta = 0.001151, k = 0.011918
        39        37        40     1      108.773682      402.148088    ;  uncertainty theta = 0.001151, k = 0.011918
        39        37        51     1      108.773682      402.148056    ;  uncertainty theta = 0.001151, k = 0.011918
        40        37        51     1      108.988998      611.550565    ;  uncertainty theta = 0.001191, k = 0.038046
        40        43        44     1      108.837936      405.993913    ;  uncertainty theta = 0.000877, k = 0.023880
        40        43        45     1      108.837936      405.993913    ;  uncertainty theta = 0.000877, k = 0.023880
        40        43        46     1      109.956421      575.383251    ;  uncertainty theta = 0.001576, k = 0.066938
        41        40        42     1      104.100220      311.533294    ;  uncertainty theta = 0.001793, k = 0.028518
        41        40        43     1      108.493492      398.168640    ;  uncertainty theta = 0.000904, k = 0.031610
        42        40        43     1      108.493492      398.168640    ;  uncertainty theta = 0.000904, k = 0.031610
        43        46        47     1      107.390579      406.932689    ;  uncertainty theta = 0.001724, k = 0.041397
        43        46        48     1      109.036987      605.185696    ;  uncertainty theta = 0.001924, k = 0.094796
        44        43        45     1      104.479225      317.380462    ;  uncertainty theta = 0.001019, k = 0.017669
        44        43        46     1      108.119339      389.132430    ;  uncertainty theta = 0.000495, k = 0.044450
        45        43        46     1      108.119339      389.132430    ;  uncertainty theta = 0.000495, k = 0.044450
        46        48        49     1      108.119339      389.132430    ;  uncertainty theta = 0.000495, k = 0.044450
        46        48        50     1      108.119339      389.132430    ;  uncertainty theta = 0.000495, k = 0.044450
        46        48        51     1      109.956421      575.383187    ;  uncertainty theta = 0.001576, k = 0.066938
        47        46        48     1      107.390579      406.932689    ;  uncertainty theta = 0.001724, k = 0.041397
        48        51        52     1      108.493492      398.168576    ;  uncertainty theta = 0.000904, k = 0.031610
        48        51        53     1      108.493492      398.168576    ;  uncertainty theta = 0.000904, k = 0.031610
        49        48        50     1      104.479225      317.380462    ;  uncertainty theta = 0.001019, k = 0.017669
        49        48        51     1      108.837936      405.993881    ;  uncertainty theta = 0.000877, k = 0.023880
        50        48        51     1      108.837936      405.993913    ;  uncertainty theta = 0.000877, k = 0.023879
        52        51        53     1      104.100220      311.533326    ;  uncertainty theta = 0.001793, k = 0.028517

[ dihedrals ] ; propers for gromacs 4.5 or higher, use funct 9
;       ai        aj        ak        al funct           phase               k        pn
         1         2         4         5     9        0.000000        0.127785         1    ;  uncertainty k = 0.144527
         1         2         4         5     9      180.000000        7.984342         2    ;  uncertainty k = 0.405668
         1         2         4         5     9        0.000000        1.476894         3    ;  uncertainty k = 0.299587
         1         2         4         5     9      180.000000        1.927252         4    ;  uncertainty k = 0.202991
         1         2         4         6     9        0.000000       -0.197462         1    ;  uncertainty k = 0.309468
         1         2         4         6     9      180.000000       14.228234         2    ;  uncertainty k = 0.404221
         1         2         4         6     9        0.000000       -0.437208         3    ;  uncertainty k = 0.456810
         1         2         4         6     9      180.000000        0.855509         4    ;  uncertainty k = 0.252793
         1         8         7         6     9        0.000000       -0.191449         1    ;  uncertainty k = 0.101674
         1         8         7         6     9      180.000000       11.028808         2    ;  uncertainty k = 0.431879
         1         8         7         6     9        0.000000       -0.223517         3    ;  uncertainty k = 0.185497
         1         8         7         6     9      180.000000        1.089253         4    ;  uncertainty k = 0.397279
         1         8         7        15     9        0.000000        0.201260         1    ;  uncertainty k = 0.284177
         1         8         7        15     9      180.000000        8.680955         2    ;  uncertainty k = 0.370431
         1         8         7        15     9        0.000000        1.601355         3    ;  uncertainty k = 0.225827
         1         8         7        15     9      180.000000        1.860585         4    ;  uncertainty k = 0.348863
         1        46        43        40     9        0.000000       -3.734715         1    ;  uncertainty k = 0.613570
         1        46        43        40     9      180.000000        0.541195         2    ;  uncertainty k = 0.206891
         1        46        43        40     9        0.000000        1.113013         3    ;  uncertainty k = 0.196609
         1        46        43        40     9      180.000000       -0.146822         4    ;  uncertainty k = 0.178887
         1        46        43        44     9        0.000000        1.181062         1    ;  uncertainty k = 0.350641
         1        46        43        44     9      180.000000       -0.451777         2    ;  uncertainty k = 0.264860
         1        46        43        44     9        0.000000        0.948748         3    ;  uncertainty k = 0.104940
         1        46        43        44     9      180.000000        0.011674         4    ;  uncertainty k = 0.059145
         1        46        43        45     9        0.000000        1.181062         1    ;  uncertainty k = 0.350641
         1        46        43        45     9      180.000000       -0.451777         2    ;  uncertainty k = 0.264860
         1        46        43        45     9        0.000000        0.948748         3    ;  uncertainty k = 0.104940
         1        46        43        45     9      180.000000        0.011674         4    ;  uncertainty k = 0.059145
         1        46        48        49     9        0.000000        1.181061         1    ;  uncertainty k = 0.350641
         1        46        48        49     9      180.000000       -0.451777         2    ;  uncertainty k = 0.264860
         1        46        48        49     9        0.000000        0.948748         3    ;  uncertainty k = 0.104941
         1        46        48        49     9      180.000000        0.011674         4    ;  uncertainty k = 0.059145
         1        46        48        50     9        0.000000        1.181061         1    ;  uncertainty k = 0.350641
         1        46        48        50     9      180.000000       -0.451777         2    ;  uncertainty k = 0.264860
         1        46        48        50     9        0.000000        0.948748         3    ;  uncertainty k = 0.104941
         1        46        48        50     9      180.000000        0.011674         4    ;  uncertainty k = 0.059145
         1        46        48        51     9        0.000000       -3.734715         1    ;  uncertainty k = 0.613569
         1        46        48        51     9      180.000000        0.541195         2    ;  uncertainty k = 0.206891
         1        46        48        51     9        0.000000        1.113013         3    ;  uncertainty k = 0.196609
         1        46        48        51     9      180.000000       -0.146822         4    ;  uncertainty k = 0.178887
         2         1         8         7     9        0.000000        0.154156         1    ;  uncertainty k = 0.329558
         2         1         8         7     9      180.000000       10.685788         2    ;  uncertainty k = 0.294073
         2         1         8         7     9        0.000000       -0.135691         3    ;  uncertainty k = 0.452564
         2         1         8         7     9      180.000000        1.111837         4    ;  uncertainty k = 0.427031
         2         1         8         9     9        0.000000        0.014650         1    ;  uncertainty k = 0.112469
         2         1         8         9     9      180.000000        7.587361         2    ;  uncertainty k = 0.438612
         2         1         8         9     9        0.000000        1.455530         3    ;  uncertainty k = 0.343052
         2         1         8         9     9      180.000000        1.681715         4    ;  uncertainty k = 0.159967
         2         1        46        43     9        0.000000       -0.613288         1    ;  uncertainty k = 0.317960
         2         1        46        43     9      180.000000        2.521581         2    ;  uncertainty k = 0.109654
         2         1        46        43     9        0.000000        0.330822         3    ;  uncertainty k = 0.080836
         2         1        46        43     9      180.000000        0.262503         4    ;  uncertainty k = 0.090061
         2         1        46        47     9        0.000000       -0.265153         1    ;  uncertainty k = 0.379525
         2         1        46        47     9      180.000000        1.781251         2    ;  uncertainty k = 0.170038
         2         1        46        47     9        0.000000        0.508445         3    ;  uncertainty k = 0.166986
         2         1        46        47     9      180.000000        0.331592         4    ;  uncertainty k = 0.052086
         2         1        46        48     9        0.000000       -0.613288         1    ;  uncertainty k = 0.317960
         2         1        46        48     9      180.000000        2.521581         2    ;  uncertainty k = 0.109654
         2         1        46        48     9        0.000000        0.330822         3    ;  uncertainty k = 0.080836
         2         1        46        48     9      180.000000        0.262503         4    ;  uncertainty k = 0.090061
         2         4         6         7     9        0.000000        0.177065         1    ;  uncertainty k = 0.447484
         2         4         6         7     9      180.000000        7.999366         2    ;  uncertainty k = 0.591139
         2         4         6         7     9        0.000000        0.139467         3    ;  uncertainty k = 0.504263
         2         4         6         7     9      180.000000        1.272573         4    ;  uncertainty k = 0.241471
         2         4         6        10     9        0.000000        0.358920         1    ;  uncertainty k = 0.258193
         2         4         6        10     9      180.000000       11.417111         2    ;  uncertainty k = 0.292969
         2         4         6        10     9        0.000000        1.335002         3    ;  uncertainty k = 0.231919
         2         4         6        10     9      180.000000        1.555637         4    ;  uncertainty k = 0.127723
         3         2         1         8     9        0.000000        0.153320         1    ;  uncertainty k = 0.214544
         3         2         1         8     9      180.000000        6.943663         2    ;  uncertainty k = 0.415197
         3         2         1         8     9        0.000000        1.448882         3    ;  uncertainty k = 0.402541
         3         2         1         8     9      180.000000        1.528353         4    ;  uncertainty k = 0.160689
         3         2         1        46     9        0.000000       -0.131564         1    ;  uncertainty k = 0.450242
         3         2         1        46     9      180.000000        7.648421         2    ;  uncertainty k = 0.414070
         3         2         1        46     9        0.000000        0.643213         3    ;  uncertainty k = 0.322177
         3         2         1        46     9      180.000000        0.964913         4    ;  uncertainty k = 0.157427
         3         2         4         5     9        0.000000        0.064707         1    ;  uncertainty k = 0.321559
         3         2         4         5     9      180.000000        7.859055         2    ;  uncertainty k = 0.235780
         3         2         4         5     9        0.000000       -0.413467         3    ;  uncertainty k = 0.364914
         3         2         4         5     9      180.000000        0.178485         4    ;  uncertainty k = 0.142066
         3         2         4         6     9        0.000000        0.358619         1    ;  uncertainty k = 0.223075
         3         2         4         6     9      180.000000        8.717828         2    ;  uncertainty k = 0.483973
         3         2         4         6     9        0.000000        1.347991         3    ;  uncertainty k = 0.300984
         3         2         4         6     9      180.000000        1.729925         4    ;  uncertainty k = 0.231234
         4         2         1         8     9        0.000000       -0.268027         1    ;  uncertainty k = 0.222707
         4         2         1         8     9      180.000000       11.084334         2    ;  uncertainty k = 0.345499
         4         2         1         8     9        0.000000       -0.387217         3    ;  uncertainty k = 0.274100
         4         2         1         8     9      180.000000        0.945400         4    ;  uncertainty k = 0.236633
         4         2         1        46     9        0.000000        0.197656         1    ;  uncertainty k = 0.282334
         4         2         1        46     9      180.000000        8.301236         2    ;  uncertainty k = 0.428356
         4         2         1        46     9        0.000000        1.290492         3    ;  uncertainty k = 0.370483
         4         2         1        46     9      180.000000        1.884035         4    ;  uncertainty k = 0.147668
         4         6         7         8     9        0.000000       -0.067024         1    ;  uncertainty k = 0.176952
         4         6         7         8     9      180.000000        6.978313         2    ;  uncertainty k = 0.549934
         4         6         7         8     9        0.000000        0.328374         3    ;  uncertainty k = 0.346417
         4         6         7         8     9      180.000000        1.340600         4    ;  uncertainty k = 0.281707
         4         6         7        15     9        0.000000        0.345756         1    ;  uncertainty k = 0.211818
         4         6         7        15     9      180.000000        4.970018         2    ;  uncertainty k = 0.455458
         4         6         7        15     9        0.000000        1.473181         3    ;  uncertainty k = 0.263161
         4         6         7        15     9      180.000000        1.676106         4    ;  uncertainty k = 0.208876
         4         6        10        11     9        0.000000       -0.085190         1    ;  uncertainty k = 0.728199
         4         6        10        11     9      180.000000        1.201081         2    ;  uncertainty k = 0.536544
         4         6        10        11     9        0.000000        0.911025         3    ;  uncertainty k = 0.134164
         4         6        10        11     9      180.000000        0.273437         4    ;  uncertainty k = 0.175776
         5         4         6         7     9        0.000000        0.341268         1    ;  uncertainty k = 0.563979
         5         4         6         7     9      180.000000        5.761764         2    ;  uncertainty k = 0.426843
         5         4         6         7     9        0.000000        1.341613         3    ;  uncertainty k = 0.197246
         5         4         6         7     9      180.000000        1.402257         4    ;  uncertainty k = 0.132292
         5         4         6        10     9        0.000000       -0.108073         1    ;  uncertainty k = 0.615123
         5         4         6        10     9      180.000000        8.933569         2    ;  uncertainty k = 0.433446
         5         4         6        10     9        0.000000        0.774167         3    ;  uncertainty k = 0.281638
         5         4         6        10     9      180.000000        1.266656         4    ;  uncertainty k = 0.280982
         6         7         8         9     9        0.000000        0.275797         1    ;  uncertainty k = 0.469269
         6         7         8         9     9      180.000000        7.881442         2    ;  uncertainty k = 0.787382
         6         7         8         9     9        0.000000        1.276738         3    ;  uncertainty k = 0.203747
         6         7         8         9     9      180.000000        1.621831         4    ;  uncertainty k = 0.187411
         6         7        15        12     9        0.000000       -0.598160         1    ;  uncertainty k = 1.452064
         6         7        15        12     9      180.000000        0.635232         2    ;  uncertainty k = 0.608917
         6         7        15        12     9        0.000000        0.289431         3    ;  uncertainty k = 0.326862
         6         7        15        12     9      180.000000        0.270306         4    ;  uncertainty k = 0.210576
         6         7        15        16     9        0.000000        2.080349         1    ;  uncertainty k = 2.510759
         6         7        15        16     9      180.000000        0.546354         2    ;  uncertainty k = 0.980707
         6         7        15        16     9        0.000000        0.448191         3    ;  uncertainty k = 0.286403
         6         7        15        16     9      180.000000        0.337799         4    ;  uncertainty k = 0.184243
         6         7        15        19     9        0.000000       -1.848269         1    ;  uncertainty k = 1.699655
         6         7        15        19     9      180.000000        1.419239         2    ;  uncertainty k = 0.374947
         6         7        15        19     9        0.000000        0.603056         3    ;  uncertainty k = 0.477892
         6         7        15        19     9      180.000000        0.028308         4    ;  uncertainty k = 0.176749
         6        10        11        12     9        0.000000        4.367103         1    ;  uncertainty k = 0.568223
         6        10        11        12     9      180.000000       -1.721484         2    ;  uncertainty k = 1.273232
         6        10        11        12     9        0.000000       -0.456864         3    ;  uncertainty k = 0.472174
         6        10        11        12     9      180.000000        0.328459         4    ;  uncertainty k = 0.236646
         6        10        11        29     9        0.000000       -1.366437         1    ;  uncertainty k = 0.443902
         6        10        11        29     9      180.000000        1.117988         2    ;  uncertainty k = 0.670204
         6        10        11        29     9        0.000000        0.420512         3    ;  uncertainty k = 0.232671
         6        10        11        29     9      180.000000        0.169724         4    ;  uncertainty k = 0.171412
         6        10        11        33     9        0.000000       -1.366437         1    ;  uncertainty k = 0.443902
         6        10        11        33     9      180.000000        1.117988         2    ;  uncertainty k = 0.670204
         6        10        11        33     9        0.000000        0.420512         3    ;  uncertainty k = 0.232671
         6        10        11        33     9      180.000000        0.169724         4    ;  uncertainty k = 0.171412
         7         6        10        11     9        0.000000        4.342353         1    ;  uncertainty k = 1.736730
         7         6        10        11     9      180.000000       -1.465132         2    ;  uncertainty k = 1.430982
         7         6        10        11     9        0.000000       -0.419244         3    ;  uncertainty k = 0.704481
         7         6        10        11     9      180.000000        0.647429         4    ;  uncertainty k = 0.257281
         7         8         1        46     9        0.000000        0.168168         1    ;  uncertainty k = 0.310974
         7         8         1        46     9      180.000000        8.887098         2    ;  uncertainty k = 0.165942
         7         8         1        46     9        0.000000        1.322889         3    ;  uncertainty k = 0.183182
         7         8         1        46     9      180.000000        1.671208         4    ;  uncertainty k = 0.295960
         7        15        12        11     9        0.000000        2.024615         1    ;  uncertainty k = 1.409850
         7        15        12        11     9      180.000000       -1.047963         2    ;  uncertainty k = 0.480325
         7        15        12        11     9        0.000000        0.361889         3    ;  uncertainty k = 0.194033
         7        15        12        11     9      180.000000       -0.281633         4    ;  uncertainty k = 0.248430
         7        15        12        13     9        0.000000       -0.198140         1    ;  uncertainty k = 0.125427
         7        15        12        13     9      180.000000        0.106301         2    ;  uncertainty k = 0.454886
         7        15        12        13     9        0.000000        0.457875         3    ;  uncertainty k = 0.228771
         7        15        12        13     9      180.000000       -0.096059         4    ;  uncertainty k = 0.144917
         7        15        12        14     9        0.000000       -0.198140         1    ;  uncertainty k = 0.125427
         7        15        12        14     9      180.000000        0.106301         2    ;  uncertainty k = 0.454886
         7        15        12        14     9        0.000000        0.457875         3    ;  uncertainty k = 0.228771
         7        15        12        14     9      180.000000       -0.096059         4    ;  uncertainty k = 0.144917
         7        15        16        17     9        0.000000       -2.423529         1    ;  uncertainty k = 2.800111
         7        15        16        17     9      180.000000        2.482942         2    ;  uncertainty k = 1.214195
         7        15        16        17     9        0.000000        1.441180         3    ;  uncertainty k = 0.179296
         7        15        16        17     9      180.000000        0.683825         4    ;  uncertainty k = 0.438389
         7        15        16        28     9        0.000000       -0.843068         1    ;  uncertainty k = 2.319368
         7        15        16        28     9      180.000000        3.141912         2    ;  uncertainty k = 0.533976
         7        15        16        28     9        0.000000        0.230720         3    ;  uncertainty k = 0.284201
         7        15        16        28     9      180.000000        0.146780         4    ;  uncertainty k = 0.275380
         7        15        19        18     9        0.000000        0.900623         1    ;  uncertainty k = 1.254535
         7        15        19        18     9      180.000000        0.578701         2    ;  uncertainty k = 0.555252
         7        15        19        18     9        0.000000        0.846917         3    ;  uncertainty k = 0.388036
         7        15        19        18     9      180.000000        0.386756         4    ;  uncertainty k = 0.143180
         7        15        19        20     9        0.000000        0.973838         1    ;  uncertainty k = 2.723315
         7        15        19        20     9      180.000000       -1.029618         2    ;  uncertainty k = 1.270720
         7        15        19        20     9        0.000000        0.524608         3    ;  uncertainty k = 0.498722
         7        15        19        20     9      180.000000       -0.039784         4    ;  uncertainty k = 0.106617
         8         1        46        43     9        0.000000       -0.563780         1    ;  uncertainty k = 0.381319
         8         1        46        43     9      180.000000        2.618011         2    ;  uncertainty k = 0.161907
         8         1        46        43     9        0.000000        0.151139         3    ;  uncertainty k = 0.078463
         8         1        46        43     9      180.000000        0.266850         4    ;  uncertainty k = 0.052182
         8         1        46        47     9        0.000000        0.243453         1    ;  uncertainty k = 0.445089
         8         1        46        47     9      180.000000        1.768294         2    ;  uncertainty k = 0.214695
         8         1        46        47     9        0.000000        0.434676         3    ;  uncertainty k = 0.184374
         8         1        46        47     9      180.000000        0.323639         4    ;  uncertainty k = 0.066425
         8         1        46        48     9        0.000000       -0.563779         1    ;  uncertainty k = 0.381319
         8         1        46        48     9      180.000000        2.618011         2    ;  uncertainty k = 0.161907
         8         1        46        48     9        0.000000        0.151139         3    ;  uncertainty k = 0.078463
         8         1        46        48     9      180.000000        0.266849         4    ;  uncertainty k = 0.052182
         8         7         6        10     9        0.000000        0.508327         1    ;  uncertainty k = 0.315364
         8         7         6        10     9      180.000000        8.145717         2    ;  uncertainty k = 0.344391
         8         7         6        10     9        0.000000        1.497833         3    ;  uncertainty k = 0.251162
         8         7         6        10     9      180.000000        1.578009         4    ;  uncertainty k = 0.169176
         8         7        15        12     9        0.000000       -0.638492         1    ;  uncertainty k = 1.122653
         8         7        15        12     9      180.000000        0.932683         2    ;  uncertainty k = 0.356308
         8         7        15        12     9        0.000000       -0.257507         3    ;  uncertainty k = 0.375697
         8         7        15        12     9      180.000000        0.167706         4    ;  uncertainty k = 0.179076
         8         7        15        16     9        0.000000        0.814387         1    ;  uncertainty k = 1.938201
         8         7        15        16     9      180.000000        0.206247         2    ;  uncertainty k = 0.552783
         8         7        15        16     9        0.000000        0.147416         3    ;  uncertainty k = 0.241972
         8         7        15        16     9      180.000000        0.304205         4    ;  uncertainty k = 0.134792
         8         7        15        19     9        0.000000       -0.343712         1    ;  uncertainty k = 0.985426
         8         7        15        19     9      180.000000        1.925726         2    ;  uncertainty k = 0.375389
         8         7        15        19     9        0.000000       -0.043966         3    ;  uncertainty k = 0.407480
         8         7        15        19     9      180.000000        0.098076         4    ;  uncertainty k = 0.249575
         9         8         1        46     9        0.000000       -0.204919         1    ;  uncertainty k = 0.413265
         9         8         1        46     9      180.000000        8.157674         2    ;  uncertainty k = 0.394182
         9         8         1        46     9        0.000000        0.657672         3    ;  uncertainty k = 0.234554
         9         8         1        46     9      180.000000        1.119314         4    ;  uncertainty k = 0.175957
         9         8         7        15     9        0.000000       -0.354713         1    ;  uncertainty k = 0.416113
         9         8         7        15     9      180.000000        6.788938         2    ;  uncertainty k = 0.331029
         9         8         7        15     9        0.000000        0.968779         3    ;  uncertainty k = 0.319907
         9         8         7        15     9      180.000000        1.238298         4    ;  uncertainty k = 0.266312
        10         6         7        15     9        0.000000        0.509519         1    ;  uncertainty k = 0.987030
        10         6         7        15     9      180.000000        5.720688         2    ;  uncertainty k = 0.691456
        10         6         7        15     9        0.000000        1.744799         3    ;  uncertainty k = 0.454891
        10         6         7        15     9      180.000000        1.067036         4    ;  uncertainty k = 0.410609
        10        11        12        13     9        0.000000       -1.286357         1    ;  uncertainty k = 0.418982
        10        11        12        13     9      180.000000       -0.843338         2    ;  uncertainty k = 0.564486
        10        11        12        13     9        0.000000        0.398057         3    ;  uncertainty k = 0.233267
        10        11        12        13     9      180.000000       -0.189590         4    ;  uncertainty k = 0.165011
        10        11        12        14     9        0.000000       -1.286357         1    ;  uncertainty k = 0.418982
        10        11        12        14     9      180.000000       -0.843338         2    ;  uncertainty k = 0.564486
        10        11        12        14     9        0.000000        0.398057         3    ;  uncertainty k = 0.233267
        10        11        12        14     9      180.000000       -0.189590         4    ;  uncertainty k = 0.165011
        10        11        12        15     9        0.000000        7.476955         1    ;  uncertainty k = 0.712372
        10        11        12        15     9      180.000000       -4.264126         2    ;  uncertainty k = 1.996417
        10        11        12        15     9        0.000000       -0.268865         3    ;  uncertainty k = 0.560592
        10        11        12        15     9      180.000000       -0.018620         4    ;  uncertainty k = 0.403705
        10        11        29        30     9        0.000000       -0.556685         1    ;  uncertainty k = 0.641512
        10        11        29        30     9      180.000000       -2.127823         2    ;  uncertainty k = 0.599046
        10        11        29        30     9        0.000000        0.863808         3    ;  uncertainty k = 0.110663
        10        11        29        30     9      180.000000       -0.195070         4    ;  uncertainty k = 0.150407
        10        11        29        31     9        0.000000       -0.556685         1    ;  uncertainty k = 0.641512
        10        11        29        31     9      180.000000       -2.127823         2    ;  uncertainty k = 0.599046
        10        11        29        31     9        0.000000        0.863808         3    ;  uncertainty k = 0.110663
        10        11        29        31     9      180.000000       -0.195070         4    ;  uncertainty k = 0.150407
        10        11        29        32     9        0.000000       -0.556685         1    ;  uncertainty k = 0.641512
        10        11        29        32     9      180.000000       -2.127823         2    ;  uncertainty k = 0.599046
        10        11        29        32     9        0.000000        0.863808         3    ;  uncertainty k = 0.110663
        10        11        29        32     9      180.000000       -0.195070         4    ;  uncertainty k = 0.150407
        10        11        33        34     9        0.000000       -0.556685         1    ;  uncertainty k = 0.641512
        10        11        33        34     9      180.000000       -2.127823         2    ;  uncertainty k = 0.599046
        10        11        33        34     9        0.000000        0.863808         3    ;  uncertainty k = 0.110663
        10        11        33        34     9      180.000000       -0.195070         4    ;  uncertainty k = 0.150407
        10        11        33        35     9        0.000000       -0.556685         1    ;  uncertainty k = 0.641512
        10        11        33        35     9      180.000000       -2.127823         2    ;  uncertainty k = 0.599046
        10        11        33        35     9        0.000000        0.863808         3    ;  uncertainty k = 0.110663
        10        11        33        35     9      180.000000       -0.195070         4    ;  uncertainty k = 0.150407
        10        11        33        36     9        0.000000       -0.556685         1    ;  uncertainty k = 0.641512
        10        11        33        36     9      180.000000       -2.127823         2    ;  uncertainty k = 0.599046
        10        11        33        36     9        0.000000        0.863808         3    ;  uncertainty k = 0.110663
        10        11        33        36     9      180.000000       -0.195070         4    ;  uncertainty k = 0.150407
        11        12        15        16     9        0.000000       -1.228978         1    ;  uncertainty k = 1.347491
        11        12        15        16     9      180.000000       -0.515847         2    ;  uncertainty k = 0.500826
        11        12        15        16     9        0.000000        0.433214         3    ;  uncertainty k = 0.247206
        11        12        15        16     9      180.000000       -0.080465         4    ;  uncertainty k = 0.226810
        11        12        15        19     9        0.000000       -2.978697         1    ;  uncertainty k = 1.009148
        11        12        15        19     9      180.000000       -1.349811         2    ;  uncertainty k = 1.012802
        11        12        15        19     9        0.000000        1.198772         3    ;  uncertainty k = 0.505781
        11        12        15        19     9      180.000000        0.002053         4    ;  uncertainty k = 0.225805
        12        11        29        30     9        0.000000       -0.810618         1    ;  uncertainty k = 0.476463
        12        11        29        30     9      180.000000       -0.740441         2    ;  uncertainty k = 0.208398
        12        11        29        30     9        0.000000        0.585176         3    ;  uncertainty k = 0.093112
        12        11        29        30     9      180.000000       -0.179618         4    ;  uncertainty k = 0.029902
        12        11        29        31     9        0.000000       -0.810618         1    ;  uncertainty k = 0.476463
        12        11        29        31     9      180.000000       -0.740441         2    ;  uncertainty k = 0.208398
        12        11        29        31     9        0.000000        0.585176         3    ;  uncertainty k = 0.093112
        12        11        29        31     9      180.000000       -0.179618         4    ;  uncertainty k = 0.029902
        12        11        29        32     9        0.000000       -0.810618         1    ;  uncertainty k = 0.476463
        12        11        29        32     9      180.000000       -0.740441         2    ;  uncertainty k = 0.208398
        12        11        29        32     9        0.000000        0.585176         3    ;  uncertainty k = 0.093112
        12        11        29        32     9      180.000000       -0.179618         4    ;  uncertainty k = 0.029902
        12        11        33        34     9        0.000000       -0.810618         1    ;  uncertainty k = 0.476463
        12        11        33        34     9      180.000000       -0.740441         2    ;  uncertainty k = 0.208398
        12        11        33        34     9        0.000000        0.585176         3    ;  uncertainty k = 0.093112
        12        11        33        34     9      180.000000       -0.179618         4    ;  uncertainty k = 0.029902
        12        11        33        35     9        0.000000       -0.810618         1    ;  uncertainty k = 0.476463
        12        11        33        35     9      180.000000       -0.740441         2    ;  uncertainty k = 0.208398
        12        11        33        35     9        0.000000        0.585176         3    ;  uncertainty k = 0.093112
        12        11        33        35     9      180.000000       -0.179618         4    ;  uncertainty k = 0.029902
        12        11        33        36     9        0.000000       -0.810618         1    ;  uncertainty k = 0.476463
        12        11        33        36     9      180.000000       -0.740441         2    ;  uncertainty k = 0.208398
        12        11        33        36     9        0.000000        0.585176         3    ;  uncertainty k = 0.093112
        12        11        33        36     9      180.000000       -0.179618         4    ;  uncertainty k = 0.029902
        12        15        16        17     9        0.000000       -3.062352         1    ;  uncertainty k = 1.276839
        12        15        16        17     9      180.000000        2.894127         2    ;  uncertainty k = 0.258588
        12        15        16        17     9        0.000000        0.860445         3    ;  uncertainty k = 0.091746
        12        15        16        17     9      180.000000        0.587117         4    ;  uncertainty k = 0.338989
        12        15        16        28     9        0.000000       -0.574292         1    ;  uncertainty k = 2.046094
        12        15        16        28     9      180.000000        3.928919         2    ;  uncertainty k = 1.075276
        12        15        16        28     9        0.000000        0.161227         3    ;  uncertainty k = 0.381109
        12        15        16        28     9      180.000000        0.057219         4    ;  uncertainty k = 0.338212
        12        15        19        18     9        0.000000       -0.720185         1    ;  uncertainty k = 0.363424
        12        15        19        18     9      180.000000        1.466373         2    ;  uncertainty k = 0.671881
        12        15        19        18     9        0.000000        0.362475         3    ;  uncertainty k = 0.242092
        12        15        19        18     9      180.000000        0.276221         4    ;  uncertainty k = 0.143829
        12        15        19        20     9        0.000000        1.014477         1    ;  uncertainty k = 3.207549
        12        15        19        20     9      180.000000       -0.447187         2    ;  uncertainty k = 0.880594
        12        15        19        20     9        0.000000        0.406773         3    ;  uncertainty k = 0.479851
        12        15        19        20     9      180.000000        0.075628         4    ;  uncertainty k = 0.078933
        13        12        11        29     9        0.000000       -0.868529         1    ;  uncertainty k = 0.359708
        13        12        11        29     9      180.000000        0.339049         2    ;  uncertainty k = 0.271426
        13        12        11        29     9        0.000000        0.030221         3    ;  uncertainty k = 0.169820
        13        12        11        29     9      180.000000       -0.198172         4    ;  uncertainty k = 0.102797
        13        12        11        33     9        0.000000       -0.868529         1    ;  uncertainty k = 0.359708
        13        12        11        33     9      180.000000        0.339049         2    ;  uncertainty k = 0.271426
        13        12        11        33     9        0.000000        0.030221         3    ;  uncertainty k = 0.169820
        13        12        11        33     9      180.000000       -0.198172         4    ;  uncertainty k = 0.102797
        13        12        15        16     9        0.000000        0.636692         1    ;  uncertainty k = 0.443881
        13        12        15        16     9      180.000000       -1.082831         2    ;  uncertainty k = 0.432291
        13        12        15        16     9        0.000000        0.083911         3    ;  uncertainty k = 0.203429
        13        12        15        16     9      180.000000       -0.053905         4    ;  uncertainty k = 0.095175
        13        12        15        19     9        0.000000       -1.014378         1    ;  uncertainty k = 0.666770
        13        12        15        19     9      180.000000       -0.206347         2    ;  uncertainty k = 0.431023
        13        12        15        19     9        0.000000        0.529827         3    ;  uncertainty k = 0.228576
        13        12        15        19     9      180.000000       -0.286824         4    ;  uncertainty k = 0.129461
        14        12        11        29     9        0.000000       -0.868529         1    ;  uncertainty k = 0.359708
        14        12        11        29     9      180.000000        0.339049         2    ;  uncertainty k = 0.271426
        14        12        11        29     9        0.000000        0.030221         3    ;  uncertainty k = 0.169820
        14        12        11        29     9      180.000000       -0.198172         4    ;  uncertainty k = 0.102797
        14        12        11        33     9        0.000000       -0.868529         1    ;  uncertainty k = 0.359708
        14        12        11        33     9      180.000000        0.339049         2    ;  uncertainty k = 0.271426
        14        12        11        33     9        0.000000        0.030221         3    ;  uncertainty k = 0.169820
        14        12        11        33     9      180.000000       -0.198172         4    ;  uncertainty k = 0.102797
        14        12        15        16     9        0.000000        0.636692         1    ;  uncertainty k = 0.443881
        14        12        15        16     9      180.000000       -1.082831         2    ;  uncertainty k = 0.432291
        14        12        15        16     9        0.000000        0.083911         3    ;  uncertainty k = 0.203429
        14        12        15        16     9      180.000000       -0.053905         4    ;  uncertainty k = 0.095175
        14        12        15        19     9        0.000000       -1.014378         1    ;  uncertainty k = 0.666770
        14        12        15        19     9      180.000000       -0.206347         2    ;  uncertainty k = 0.431023
        14        12        15        19     9        0.000000        0.529827         3    ;  uncertainty k = 0.228576
        14        12        15        19     9      180.000000       -0.286824         4    ;  uncertainty k = 0.129461
        15        12        11        29     9        0.000000       -0.394043         1    ;  uncertainty k = 0.952250
        15        12        11        29     9      180.000000       -0.298782         2    ;  uncertainty k = 0.210060
        15        12        11        29     9        0.000000        0.102279         3    ;  uncertainty k = 0.252570
        15        12        11        29     9      180.000000       -0.158350         4    ;  uncertainty k = 0.062640
        15        12        11        33     9        0.000000       -0.394043         1    ;  uncertainty k = 0.952250
        15        12        11        33     9      180.000000       -0.298782         2    ;  uncertainty k = 0.210060
        15        12        11        33     9        0.000000        0.102279         3    ;  uncertainty k = 0.252570
        15        12        11        33     9      180.000000       -0.158350         4    ;  uncertainty k = 0.062640
        15        16        17        18     9        0.000000        3.190561         1    ;  uncertainty k = 2.129280
        15        16        17        18     9      180.000000        4.165517         2    ;  uncertainty k = 2.103257
        15        16        17        18     9        0.000000       -0.163634         3    ;  uncertainty k = 0.825879
        15        16        17        18     9      180.000000        0.629686         4    ;  uncertainty k = 0.355315
        15        16        17        21     9        0.000000        4.948397         1    ;  uncertainty k = 2.742747
        15        16        17        21     9      180.000000        3.665594         2    ;  uncertainty k = 2.655463
        15        16        17        21     9        0.000000        1.132039         3    ;  uncertainty k = 0.860258
        15        16        17        21     9      180.000000        0.328976         4    ;  uncertainty k = 0.593115
        15        19        18        17     9        0.000000        1.152349         1    ;  uncertainty k = 2.624977
        15        19        18        17     9      180.000000       15.352878         2    ;  uncertainty k = 0.482589
        15        19        18        17     9        0.000000       -0.706328         3    ;  uncertainty k = 1.011989
        15        19        18        17     9      180.000000       -0.606107         4    ;  uncertainty k = 0.206718
        15        19        18        25     9        0.000000        3.692759         1    ;  uncertainty k = 0.866356
        15        19        18        25     9      180.000000       11.333780         2    ;  uncertainty k = 0.611404
        15        19        18        25     9        0.000000        0.314850         3    ;  uncertainty k = 0.239643
        15        19        18        25     9      180.000000       -0.482788         4    ;  uncertainty k = 0.513934
        16        15        19        18     9        0.000000        1.075899         1    ;  uncertainty k = 0.686753
        16        15        19        18     9      180.000000        2.337056         2    ;  uncertainty k = 0.668402
        16        15        19        18     9        0.000000        0.174345         3    ;  uncertainty k = 0.624028
        16        15        19        18     9      180.000000        0.491041         4    ;  uncertainty k = 0.337525
        16        15        19        20     9        0.000000        1.870130         1    ;  uncertainty k = 2.124003
        16        15        19        20     9      180.000000       -0.788361         2    ;  uncertainty k = 0.765206
        16        15        19        20     9        0.000000        0.063928         3    ;  uncertainty k = 0.474210
        16        15        19        20     9      180.000000        0.018852         4    ;  uncertainty k = 0.243518
        16        17        18        19     9        0.000000       -0.598871         1    ;  uncertainty k = 1.517512
        16        17        18        19     9      180.000000        9.023777         2    ;  uncertainty k = 0.890262
        16        17        18        19     9        0.000000       -1.321226         3    ;  uncertainty k = 1.261849
        16        17        18        19     9      180.000000       -0.043685         4    ;  uncertainty k = 0.510427
        16        17        18        25     9        0.000000       -0.742539         1    ;  uncertainty k = 0.884320
        16        17        18        25     9      180.000000        6.821150         2    ;  uncertainty k = 1.300514
        16        17        18        25     9        0.000000        0.216631         3    ;  uncertainty k = 0.558836
        16        17        18        25     9      180.000000       -0.098970         4    ;  uncertainty k = 0.493923
        16        17        21        22     9        0.000000        0.297431         1    ;  uncertainty k = 0.338022
        16        17        21        22     9      180.000000        0.087168         2    ;  uncertainty k = 0.381934
        16        17        21        22     9        0.000000        0.347193         3    ;  uncertainty k = 0.232215
        16        17        21        22     9      180.000000        0.291096         4    ;  uncertainty k = 0.074538
        16        17        21        23     9        0.000000        0.297431         1    ;  uncertainty k = 0.338022
        16        17        21        23     9      180.000000        0.087168         2    ;  uncertainty k = 0.381934
        16        17        21        23     9        0.000000        0.347193         3    ;  uncertainty k = 0.232215
        16        17        21        23     9      180.000000        0.291096         4    ;  uncertainty k = 0.074538
        16        17        21        24     9        0.000000        0.297431         1    ;  uncertainty k = 0.338022
        16        17        21        24     9      180.000000        0.087168         2    ;  uncertainty k = 0.381934
        16        17        21        24     9        0.000000        0.347193         3    ;  uncertainty k = 0.232215
        16        17        21        24     9      180.000000        0.291096         4    ;  uncertainty k = 0.074538
        17        16        15        19     9        0.000000       -0.734672         1    ;  uncertainty k = 2.407400
        17        16        15        19     9      180.000000        6.965369         2    ;  uncertainty k = 1.234531
        17        16        15        19     9        0.000000        0.624658         3    ;  uncertainty k = 0.577006
        17        16        15        19     9      180.000000        0.290059         4    ;  uncertainty k = 0.846479
        17        18        19        20     9        0.000000        4.051322         1    ;  uncertainty k = 3.391115
        17        18        19        20     9      180.000000       10.697180         2    ;  uncertainty k = 0.526601
        17        18        19        20     9        0.000000        1.093668         3    ;  uncertainty k = 0.752546
        17        18        19        20     9      180.000000       -0.389374         4    ;  uncertainty k = 0.265720
        17        18        25        26     9        0.000000        8.080941         1    ;  uncertainty k = 2.061712
        17        18        25        26     9      180.000000        9.353073         2    ;  uncertainty k = 0.455751
        17        18        25        26     9        0.000000        0.960301         3    ;  uncertainty k = 0.478476
        17        18        25        26     9      180.000000       -0.922267         4    ;  uncertainty k = 0.215681
        17        18        25        27     9        0.000000        8.080941         1    ;  uncertainty k = 2.061712
        17        18        25        27     9      180.000000        9.353073         2    ;  uncertainty k = 0.455751
        17        18        25        27     9        0.000000        0.960301         3    ;  uncertainty k = 0.478476
        17        18        25        27     9      180.000000       -0.922267         4    ;  uncertainty k = 0.215681
        18        17        16        28     9        0.000000       -0.225774         1    ;  uncertainty k = 3.237560
        18        17        16        28     9      180.000000        7.660703         2    ;  uncertainty k = 0.931236
        18        17        16        28     9        0.000000        0.373526         3    ;  uncertainty k = 0.816132
        18        17        16        28     9      180.000000        0.053274         4    ;  uncertainty k = 0.298389
        18        17        21        22     9        0.000000       -0.260671         1    ;  uncertainty k = 0.510831
        18        17        21        22     9      180.000000       -1.123799         2    ;  uncertainty k = 0.505443
        18        17        21        22     9        0.000000        0.381297         3    ;  uncertainty k = 0.163929
        18        17        21        22     9      180.000000        0.194836         4    ;  uncertainty k = 0.041789
        18        17        21        23     9        0.000000       -0.260671         1    ;  uncertainty k = 0.510831
        18        17        21        23     9      180.000000       -1.123799         2    ;  uncertainty k = 0.505443
        18        17        21        23     9        0.000000        0.381297         3    ;  uncertainty k = 0.163929
        18        17        21        23     9      180.000000        0.194836         4    ;  uncertainty k = 0.041789
        18        17        21        24     9        0.000000       -0.260671         1    ;  uncertainty k = 0.510831
        18        17        21        24     9      180.000000       -1.123799         2    ;  uncertainty k = 0.505443
        18        17        21        24     9        0.000000        0.381297         3    ;  uncertainty k = 0.163929
        18        17        21        24     9      180.000000        0.194836         4    ;  uncertainty k = 0.041789
        19        15        16        28     9        0.000000        0.024534         1    ;  uncertainty k = 2.213974
        19        15        16        28     9      180.000000        4.149250         2    ;  uncertainty k = 1.312392
        19        15        16        28     9        0.000000        0.407424         3    ;  uncertainty k = 0.206510
        19        15        16        28     9      180.000000        0.443240         4    ;  uncertainty k = 0.158688
        19        18        17        21     9        0.000000       -0.380136         1    ;  uncertainty k = 2.913081
        19        18        17        21     9      180.000000        8.267784         2    ;  uncertainty k = 0.403615
        19        18        17        21     9        0.000000        0.435757         3    ;  uncertainty k = 0.320054
        19        18        17        21     9      180.000000       -0.156996         4    ;  uncertainty k = 0.291188
        19        18        25        26     9        0.000000        6.366443         1    ;  uncertainty k = 1.644722
        19        18        25        26     9      180.000000       10.049531         2    ;  uncertainty k = 0.349760
        19        18        25        26     9        0.000000        1.357511         3    ;  uncertainty k = 0.507490
        19        18        25        26     9      180.000000       -0.656591         4    ;  uncertainty k = 0.287459
        19        18        25        27     9        0.000000        6.366443         1    ;  uncertainty k = 1.644722
        19        18        25        27     9      180.000000       10.049531         2    ;  uncertainty k = 0.349760
        19        18        25        27     9        0.000000        1.357511         3    ;  uncertainty k = 0.507490
        19        18        25        27     9      180.000000       -0.656591         4    ;  uncertainty k = 0.287459
        20        19        18        25     9        0.000000        1.886192         1    ;  uncertainty k = 2.633103
        20        19        18        25     9      180.000000        7.784175         2    ;  uncertainty k = 1.209625
        20        19        18        25     9        0.000000        0.956054         3    ;  uncertainty k = 0.197633
        20        19        18        25     9      180.000000       -0.247909         4    ;  uncertainty k = 0.316191
        21        17        16        28     9        0.000000       -0.743118         1    ;  uncertainty k = 3.324160
        21        17        16        28     9      180.000000        8.127734         2    ;  uncertainty k = 0.445128
        21        17        16        28     9        0.000000        0.693460         3    ;  uncertainty k = 0.571372
        21        17        16        28     9      180.000000        0.151177         4    ;  uncertainty k = 0.263311
        21        17        18        25     9        0.000000       -0.067505         1    ;  uncertainty k = 0.784520
        21        17        18        25     9      180.000000        6.890792         2    ;  uncertainty k = 0.817474
        21        17        18        25     9        0.000000        0.975121         3    ;  uncertainty k = 0.584566
        21        17        18        25     9      180.000000       -0.011356         4    ;  uncertainty k = 0.268200
        29        11        33        34     9        0.000000       -1.168308         1    ;  uncertainty k = 0.299692
        29        11        33        34     9      180.000000        0.150758         2    ;  uncertainty k = 0.296599
        29        11        33        34     9        0.000000        0.668939         3    ;  uncertainty k = 0.064920
        29        11        33        34     9      180.000000       -0.104414         4    ;  uncertainty k = 0.091599
        29        11        33        35     9        0.000000       -1.168308         1    ;  uncertainty k = 0.299692
        29        11        33        35     9      180.000000        0.150758         2    ;  uncertainty k = 0.296599
        29        11        33        35     9        0.000000        0.668939         3    ;  uncertainty k = 0.064920
        29        11        33        35     9      180.000000       -0.104414         4    ;  uncertainty k = 0.091599
        29        11        33        36     9        0.000000       -1.168308         1    ;  uncertainty k = 0.299692
        29        11        33        36     9      180.000000        0.150758         2    ;  uncertainty k = 0.296599
        29        11        33        36     9        0.000000        0.668939         3    ;  uncertainty k = 0.064920
        29        11        33        36     9      180.000000       -0.104414         4    ;  uncertainty k = 0.091599
        30        29        11        33     9        0.000000       -1.168308         1    ;  uncertainty k = 0.299692
        30        29        11        33     9      180.000000        0.150758         2    ;  uncertainty k = 0.296599
        30        29        11        33     9        0.000000        0.668939         3    ;  uncertainty k = 0.064920
        30        29        11        33     9      180.000000       -0.104414         4    ;  uncertainty k = 0.091599
        31        29        11        33     9        0.000000       -1.168308         1    ;  uncertainty k = 0.299692
        31        29        11        33     9      180.000000        0.150758         2    ;  uncertainty k = 0.296599
        31        29        11        33     9        0.000000        0.668939         3    ;  uncertainty k = 0.064920
        31        29        11        33     9      180.000000       -0.104414         4    ;  uncertainty k = 0.091599
        32        29        11        33     9        0.000000       -1.168308         1    ;  uncertainty k = 0.299692
        32        29        11        33     9      180.000000        0.150758         2    ;  uncertainty k = 0.296599
        32        29        11        33     9        0.000000        0.668939         3    ;  uncertainty k = 0.064920
        32        29        11        33     9      180.000000       -0.104414         4    ;  uncertainty k = 0.091599
        37        40        43        44     9        0.000000       -2.100372         1    ;  uncertainty k = 0.480732
        37        40        43        44     9      180.000000       -0.116224         2    ;  uncertainty k = 0.138789
        37        40        43        44     9        0.000000        0.637965         3    ;  uncertainty k = 0.115026
        37        40        43        44     9      180.000000       -0.068705         4    ;  uncertainty k = 0.035962
        37        40        43        45     9        0.000000       -2.100372         1    ;  uncertainty k = 0.480732
        37        40        43        45     9      180.000000       -0.116224         2    ;  uncertainty k = 0.138789
        37        40        43        45     9        0.000000        0.637965         3    ;  uncertainty k = 0.115026
        37        40        43        45     9      180.000000       -0.068705         4    ;  uncertainty k = 0.035962
        37        40        43        46     9        0.000000       -7.906011         1    ;  uncertainty k = 1.551943
        37        40        43        46     9      180.000000        0.292250         2    ;  uncertainty k = 0.655933
        37        40        43        46     9        0.000000        1.931319         3    ;  uncertainty k = 0.155161
        37        40        43        46     9      180.000000       -1.476132         4    ;  uncertainty k = 0.131295
        37        51        48        46     9        0.000000       -7.906011         1    ;  uncertainty k = 1.551942
        37        51        48        46     9      180.000000        0.292250         2    ;  uncertainty k = 0.655933
        37        51        48        46     9        0.000000        1.931320         3    ;  uncertainty k = 0.155161
        37        51        48        46     9      180.000000       -1.476132         4    ;  uncertainty k = 0.131295
        37        51        48        49     9        0.000000       -2.100371         1    ;  uncertainty k = 0.480732
        37        51        48        49     9      180.000000       -0.116224         2    ;  uncertainty k = 0.138789
        37        51        48        49     9        0.000000        0.637964         3    ;  uncertainty k = 0.115025
        37        51        48        49     9      180.000000       -0.068705         4    ;  uncertainty k = 0.035962
        37        51        48        50     9        0.000000       -2.100371         1    ;  uncertainty k = 0.480732
        37        51        48        50     9      180.000000       -0.116224         2    ;  uncertainty k = 0.138789
        37        51        48        50     9        0.000000        0.637964         3    ;  uncertainty k = 0.115025
        37        51        48        50     9      180.000000       -0.068705         4    ;  uncertainty k = 0.035962
        38        37        40        41     9        0.000000        2.697343         1    ;  uncertainty k = 0.494824
        38        37        40        41     9      180.000000       -0.254922         2    ;  uncertainty k = 0.136502
        38        37        40        41     9        0.000000        0.267470         3    ;  uncertainty k = 0.081686
        38        37        40        41     9      180.000000        0.110603         4    ;  uncertainty k = 0.046708
        38        37        40        42     9        0.000000        2.697343         1    ;  uncertainty k = 0.494824
        38        37        40        42     9      180.000000       -0.254922         2    ;  uncertainty k = 0.136502
        38        37        40        42     9        0.000000        0.267470         3    ;  uncertainty k = 0.081686
        38        37        40        42     9      180.000000        0.110603         4    ;  uncertainty k = 0.046708
        38        37        40        43     9        0.000000       -2.204807         1    ;  uncertainty k = 0.290622
        38        37        40        43     9      180.000000       -0.100213         2    ;  uncertainty k = 0.127521
        38        37        40        43     9        0.000000        0.630763         3    ;  uncertainty k = 0.146831
        38        37        40        43     9      180.000000       -0.107514         4    ;  uncertainty k = 0.033274
        38        37        51        48     9        0.000000       -2.204806         1    ;  uncertainty k = 0.290622
        38        37        51        48     9      180.000000       -0.100214         2    ;  uncertainty k = 0.127520
        38        37        51        48     9        0.000000        0.630763         3    ;  uncertainty k = 0.146831
        38        37        51        48     9      180.000000       -0.107514         4    ;  uncertainty k = 0.033274
        38        37        51        52     9        0.000000        2.697343         1    ;  uncertainty k = 0.494825
        38        37        51        52     9      180.000000       -0.254922         2    ;  uncertainty k = 0.136502
        38        37        51        52     9        0.000000        0.267470         3    ;  uncertainty k = 0.081686
        38        37        51        52     9      180.000000        0.110603         4    ;  uncertainty k = 0.046708
        38        37        51        53     9        0.000000        2.697343         1    ;  uncertainty k = 0.494825
        38        37        51        53     9      180.000000       -0.254922         2    ;  uncertainty k = 0.136502
        38        37        51        53     9        0.000000        0.267470         3    ;  uncertainty k = 0.081686
        38        37        51        53     9      180.000000        0.110603         4    ;  uncertainty k = 0.046708
        39        37        40        41     9        0.000000        2.697343         1    ;  uncertainty k = 0.494824
        39        37        40        41     9      180.000000       -0.254922         2    ;  uncertainty k = 0.136502
        39        37        40        41     9        0.000000        0.267470         3    ;  uncertainty k = 0.081686
        39        37        40        41     9      180.000000        0.110603         4    ;  uncertainty k = 0.046708
        39        37        40        42     9        0.000000        2.697343         1    ;  uncertainty k = 0.494824
        39        37        40        42     9      180.000000       -0.254922         2    ;  uncertainty k = 0.136502
        39        37        40        42     9        0.000000        0.267470         3    ;  uncertainty k = 0.081686
        39        37        40        42     9      180.000000        0.110603         4    ;  uncertainty k = 0.046708
        39        37        40        43     9        0.000000       -2.204807         1    ;  uncertainty k = 0.290622
        39        37        40        43     9      180.000000       -0.100213         2    ;  uncertainty k = 0.127521
        39        37        40        43     9        0.000000        0.630763         3    ;  uncertainty k = 0.146831
        39        37        40        43     9      180.000000       -0.107514         4    ;  uncertainty k = 0.033274
        39        37        51        48     9        0.000000       -2.204806         1    ;  uncertainty k = 0.290622
        39        37        51        48     9      180.000000       -0.100214         2    ;  uncertainty k = 0.127520
        39        37        51        48     9        0.000000        0.630763         3    ;  uncertainty k = 0.146831
        39        37        51        48     9      180.000000       -0.107514         4    ;  uncertainty k = 0.033274
        39        37        51        52     9        0.000000        2.697343         1    ;  uncertainty k = 0.494825
        39        37        51        52     9      180.000000       -0.254922         2    ;  uncertainty k = 0.136502
        39        37        51        52     9        0.000000        0.267470         3    ;  uncertainty k = 0.081686
        39        37        51        52     9      180.000000        0.110603         4    ;  uncertainty k = 0.046708
        39        37        51        53     9        0.000000        2.697343         1    ;  uncertainty k = 0.494825
        39        37        51        53     9      180.000000       -0.254922         2    ;  uncertainty k = 0.136502
        39        37        51        53     9        0.000000        0.267470         3    ;  uncertainty k = 0.081686
        39        37        51        53     9      180.000000        0.110603         4    ;  uncertainty k = 0.046708
        40        37        51        48     9        0.000000       -9.781726         1    ;  uncertainty k = 1.898053
        40        37        51        48     9      180.000000        1.168075         2    ;  uncertainty k = 0.556669
        40        37        51        48     9        0.000000        2.036269         3    ;  uncertainty k = 0.187277
        40        37        51        48     9      180.000000       -1.418934         4    ;  uncertainty k = 0.226515
        40        37        51        52     9        0.000000       -1.945959         1    ;  uncertainty k = 0.486479
        40        37        51        52     9      180.000000       -0.241979         2    ;  uncertainty k = 0.110002
        40        37        51        52     9        0.000000        0.566254         3    ;  uncertainty k = 0.107876
        40        37        51        52     9      180.000000       -0.048347         4    ;  uncertainty k = 0.015901
        40        37        51        53     9        0.000000       -1.945959         1    ;  uncertainty k = 0.486479
        40        37        51        53     9      180.000000       -0.241979         2    ;  uncertainty k = 0.110002
        40        37        51        53     9        0.000000        0.566254         3    ;  uncertainty k = 0.107876
        40        37        51        53     9      180.000000       -0.048347         4    ;  uncertainty k = 0.015901
        40        43        46        47     9        0.000000       -2.304347         1    ;  uncertainty k = 0.614991
        40        43        46        47     9      180.000000       -0.061912         2    ;  uncertainty k = 0.118419
        40        43        46        47     9        0.000000        0.149377         3    ;  uncertainty k = 0.144381
        40        43        46        47     9      180.000000       -0.144095         4    ;  uncertainty k = 0.073013
        40        43        46        48     9        0.000000       -6.201694         1    ;  uncertainty k = 1.184016
        40        43        46        48     9      180.000000        0.728535         2    ;  uncertainty k = 0.318946
        40        43        46        48     9        0.000000        1.484334         3    ;  uncertainty k = 0.122230
        40        43        46        48     9      180.000000       -1.405182         4    ;  uncertainty k = 0.238154
        41        40        37        51     9        0.000000       -1.945959         1    ;  uncertainty k = 0.486479
        41        40        37        51     9      180.000000       -0.241979         2    ;  uncertainty k = 0.110002
        41        40        37        51     9        0.000000        0.566254         3    ;  uncertainty k = 0.107876
        41        40        37        51     9      180.000000       -0.048347         4    ;  uncertainty k = 0.015901
        41        40        43        44     9        0.000000        2.643383         1    ;  uncertainty k = 0.432962
        41        40        43        44     9      180.000000       -0.238323         2    ;  uncertainty k = 0.117471
        41        40        43        44     9        0.000000        0.284350         3    ;  uncertainty k = 0.090440
        41        40        43        44     9      180.000000        0.126224         4    ;  uncertainty k = 0.049622
        41        40        43        45     9        0.000000        2.643383         1    ;  uncertainty k = 0.432962
        41        40        43        45     9      180.000000       -0.238323         2    ;  uncertainty k = 0.117471
        41        40        43        45     9        0.000000        0.284350         3    ;  uncertainty k = 0.090440
        41        40        43        45     9      180.000000        0.126224         4    ;  uncertainty k = 0.049622
        41        40        43        46     9        0.000000       -1.458844         1    ;  uncertainty k = 0.548940
        41        40        43        46     9      180.000000       -0.397949         2    ;  uncertainty k = 0.181843
        41        40        43        46     9        0.000000        0.577359         3    ;  uncertainty k = 0.128865
        41        40        43        46     9      180.000000       -0.065349         4    ;  uncertainty k = 0.068017
        42        40        37        51     9        0.000000       -1.945959         1    ;  uncertainty k = 0.486479
        42        40        37        51     9      180.000000       -0.241979         2    ;  uncertainty k = 0.110002
        42        40        37        51     9        0.000000        0.566254         3    ;  uncertainty k = 0.107876
        42        40        37        51     9      180.000000       -0.048347         4    ;  uncertainty k = 0.015901
        42        40        43        44     9        0.000000        2.643383         1    ;  uncertainty k = 0.432962
        42        40        43        44     9      180.000000       -0.238323         2    ;  uncertainty k = 0.117471
        42        40        43        44     9        0.000000        0.284350         3    ;  uncertainty k = 0.090440
        42        40        43        44     9      180.000000        0.126224         4    ;  uncertainty k = 0.049622
        42        40        43        45     9        0.000000        2.643383         1    ;  uncertainty k = 0.432962
        42        40        43        45     9      180.000000       -0.238323         2    ;  uncertainty k = 0.117471
        42        40        43        45     9        0.000000        0.284350         3    ;  uncertainty k = 0.090440
        42        40        43        45     9      180.000000        0.126224         4    ;  uncertainty k = 0.049622
        42        40        43        46     9        0.000000       -1.458844         1    ;  uncertainty k = 0.548940
        42        40        43        46     9      180.000000       -0.397949         2    ;  uncertainty k = 0.181843
        42        40        43        46     9        0.000000        0.577359         3    ;  uncertainty k = 0.128865
        42        40        43        46     9      180.000000       -0.065349         4    ;  uncertainty k = 0.068017
        43        40        37        51     9        0.000000       -9.781726         1    ;  uncertainty k = 1.898053
        43        40        37        51     9      180.000000        1.168075         2    ;  uncertainty k = 0.556669
        43        40        37        51     9        0.000000        2.036269         3    ;  uncertainty k = 0.187277
        43        40        37        51     9      180.000000       -1.418934         4    ;  uncertainty k = 0.226515
        43        46        48        49     9        0.000000       -1.683502         1    ;  uncertainty k = 0.421238
        43        46        48        49     9      180.000000       -0.233600         2    ;  uncertainty k = 0.082362
        43        46        48        49     9        0.000000        0.398558         3    ;  uncertainty k = 0.151455
        43        46        48        49     9      180.000000       -0.079603         4    ;  uncertainty k = 0.041228
        43        46        48        50     9        0.000000       -1.683502         1    ;  uncertainty k = 0.421238
        43        46        48        50     9      180.000000       -0.233600         2    ;  uncertainty k = 0.082362
        43        46        48        50     9        0.000000        0.398558         3    ;  uncertainty k = 0.151455
        43        46        48        50     9      180.000000       -0.079603         4    ;  uncertainty k = 0.041228
        43        46        48        51     9        0.000000       -6.201695         1    ;  uncertainty k = 1.184014
        43        46        48        51     9      180.000000        0.728535         2    ;  uncertainty k = 0.318947
        43        46        48        51     9        0.000000        1.484334         3    ;  uncertainty k = 0.122230
        43        46        48        51     9      180.000000       -1.405182         4    ;  uncertainty k = 0.238154
        44        43        46        47     9        0.000000        1.667778         1    ;  uncertainty k = 0.291206
        44        43        46        47     9      180.000000       -0.320193         2    ;  uncertainty k = 0.138113
        44        43        46        47     9        0.000000       -0.077810         3    ;  uncertainty k = 0.083177
        44        43        46        47     9      180.000000        0.099788         4    ;  uncertainty k = 0.091695
        44        43        46        48     9        0.000000       -1.683502         1    ;  uncertainty k = 0.421239
        44        43        46        48     9      180.000000       -0.233601         2    ;  uncertainty k = 0.082362
        44        43        46        48     9        0.000000        0.398558         3    ;  uncertainty k = 0.151455
        44        43        46        48     9      180.000000       -0.079603         4    ;  uncertainty k = 0.041228
        45        43        46        47     9        0.000000        1.667778         1    ;  uncertainty k = 0.291206
        45        43        46        47     9      180.000000       -0.320193         2    ;  uncertainty k = 0.138113
        45        43        46        47     9        0.000000       -0.077810         3    ;  uncertainty k = 0.083177
        45        43        46        47     9      180.000000        0.099788         4    ;  uncertainty k = 0.091695
        45        43        46        48     9        0.000000       -1.683502         1    ;  uncertainty k = 0.421239
        45        43        46        48     9      180.000000       -0.233601         2    ;  uncertainty k = 0.082362
        45        43        46        48     9        0.000000        0.398558         3    ;  uncertainty k = 0.151455
        45        43        46        48     9      180.000000       -0.079603         4    ;  uncertainty k = 0.041228
        46        48        51        52     9        0.000000       -1.458844         1    ;  uncertainty k = 0.548941
        46        48        51        52     9      180.000000       -0.397949         2    ;  uncertainty k = 0.181844
        46        48        51        52     9        0.000000        0.577358         3    ;  uncertainty k = 0.128865
        46        48        51        52     9      180.000000       -0.065349         4    ;  uncertainty k = 0.068017
        46        48        51        53     9        0.000000       -1.458844         1    ;  uncertainty k = 0.548941
        46        48        51        53     9      180.000000       -0.397949         2    ;  uncertainty k = 0.181844
        46        48        51        53     9        0.000000        0.577358         3    ;  uncertainty k = 0.128865
        46        48        51        53     9      180.000000       -0.065349         4    ;  uncertainty k = 0.068017
        47        46        48        49     9        0.000000        1.667778         1    ;  uncertainty k = 0.291206
        47        46        48        49     9      180.000000       -0.320193         2    ;  uncertainty k = 0.138112
        47        46        48        49     9        0.000000       -0.077811         3    ;  uncertainty k = 0.083177
        47        46        48        49     9      180.000000        0.099788         4    ;  uncertainty k = 0.091696
        47        46        48        50     9        0.000000        1.667778         1    ;  uncertainty k = 0.291206
        47        46        48        50     9      180.000000       -0.320193         2    ;  uncertainty k = 0.138112
        47        46        48        50     9        0.000000       -0.077811         3    ;  uncertainty k = 0.083177
        47        46        48        50     9      180.000000        0.099788         4    ;  uncertainty k = 0.091696
        47        46        48        51     9        0.000000       -2.304347         1    ;  uncertainty k = 0.614991
        47        46        48        51     9      180.000000       -0.061912         2    ;  uncertainty k = 0.118419
        47        46        48        51     9        0.000000        0.149377         3    ;  uncertainty k = 0.144381
        47        46        48        51     9      180.000000       -0.144095         4    ;  uncertainty k = 0.073013
        49        48        51        52     9        0.000000        2.643383         1    ;  uncertainty k = 0.432964
        49        48        51        52     9      180.000000       -0.238323         2    ;  uncertainty k = 0.117471
        49        48        51        52     9        0.000000        0.284350         3    ;  uncertainty k = 0.090441
        49        48        51        52     9      180.000000        0.126224         4    ;  uncertainty k = 0.049622
        49        48        51        53     9        0.000000        2.643383         1    ;  uncertainty k = 0.432964
        49        48        51        53     9      180.000000       -0.238323         2    ;  uncertainty k = 0.117471
        49        48        51        53     9        0.000000        0.284350         3    ;  uncertainty k = 0.090441
        49        48        51        53     9      180.000000        0.126224         4    ;  uncertainty k = 0.049622
        50        48        51        52     9        0.000000        2.643383         1    ;  uncertainty k = 0.432964
        50        48        51        52     9      180.000000       -0.238323         2    ;  uncertainty k = 0.117471
        50        48        51        52     9        0.000000        0.284350         3    ;  uncertainty k = 0.090441
        50        48        51        52     9      180.000000        0.126224         4    ;  uncertainty k = 0.049622
        50        48        51        53     9        0.000000        2.643383         1    ;  uncertainty k = 0.432964
        50        48        51        53     9      180.000000       -0.238323         2    ;  uncertainty k = 0.117471
        50        48        51        53     9        0.000000        0.284350         3    ;  uncertainty k = 0.090441
        50        48        51        53     9      180.000000        0.126224         4    ;  uncertainty k = 0.049622

[ dihedrals ] ; impropers
;       ai        aj        ak        al funct           phase               k        pn
         1         2         8        46     4      180.000000       14.619657         2    ;  uncertainty k = 0.105871
         1         8        46         2     4      180.000000       14.619657         2    ;  uncertainty k = 0.105871
         1        46         2         8     4      180.000000       14.619657         2    ;  uncertainty k = 0.105871
         2         1         3         4     4      180.000000        4.524232         2    ;  uncertainty k = 0.143147
         2         3         4         1     4      180.000000        4.524232         2    ;  uncertainty k = 0.143147
         2         4         1         3     4      180.000000        4.524232         2    ;  uncertainty k = 0.143147
         4         2         5         6     4      180.000000        1.993141         2    ;  uncertainty k = 0.159729
         4         5         6         2     4      180.000000        1.993141         2    ;  uncertainty k = 0.159729
         4         6         2         5     4      180.000000        1.993141         2    ;  uncertainty k = 0.159729
         6         4         7        10     4      180.000000       21.761916         2    ;  uncertainty k = 0.115038
         6         7        10         4     4      180.000000       21.761916         2    ;  uncertainty k = 0.115038
         6        10         4         7     4      180.000000       21.761916         2    ;  uncertainty k = 0.115038
         7         6         8        15     4      180.000000       11.902291         2    ;  uncertainty k = 0.253648
         7         8        15         6     4      180.000000       11.902291         2    ;  uncertainty k = 0.253648
         7        15         6         8     4      180.000000       11.902291         2    ;  uncertainty k = 0.253648
         8         1         7         9     4      180.000000        4.540845         2    ;  uncertainty k = 0.279693
         8         7         9         1     4      180.000000        4.540845         2    ;  uncertainty k = 0.279693
         8         9         1         7     4      180.000000        4.540845         2    ;  uncertainty k = 0.279693
        16        15        17        28     4      180.000000       50.512062         2    ;  uncertainty k = 0.072585
        16        17        28        15     4      180.000000       50.512062         2    ;  uncertainty k = 0.072585
        16        28        15        17     4      180.000000       50.512062         2    ;  uncertainty k = 0.072585
        17        16        18        21     4      180.000000        2.066646         2    ;  uncertainty k = 0.825300
        17        18        21        16     4      180.000000        2.066646         2    ;  uncertainty k = 0.825300
        17        21        16        18     4      180.000000        2.066646         2    ;  uncertainty k = 0.825300
        18        17        19        25     4      180.000000       30.892449         2    ;  uncertainty k = 0.146917
        18        19        25        17     4      180.000000       30.892449         2    ;  uncertainty k = 0.146917
        18        25        17        19     4      180.000000       30.892449         2    ;  uncertainty k = 0.146917
        25        18        26        27     4      180.000000        0.184047         2    ;  uncertainty k = 0.411541
        25        26        27        18     4      180.000000        0.184047         2    ;  uncertainty k = 0.411541
        25        27        18        26     4      180.000000        0.184047         2    ;  uncertainty k = 0.411541

[ pairs ]
;       ai        aj funct
         1         5     1
         1         6     1
         1        15     1
         1        40     1
         1        44     1
         1        45     1
         1        49     1
         1        50     1
         1        51     1
         2         7     1
         2         9     1
         2        10     1
         2        43     1
         2        47     1
         2        48     1
         3         5     1
         3         6     1
         3         8     1
         3        46     1
         4         8     1
         4        11     1
         4        15     1
         4        46     1
         5         7     1
         5        10     1
         6         9     1
         6        12     1
         6        16     1
         6        19     1
         6        29     1
         6        33     1
         7        11     1
         7        13     1
         7        14     1
         7        17     1
         7        18     1
         7        20     1
         7        28     1
         7        46     1
         8        10     1
         8        12     1
         8        16     1
         8        19     1
         8        43     1
         8        47     1
         8        48     1
         9        15     1
         9        46     1
        10        13     1
        10        14     1
        10        15     1
        10        30     1
        10        31     1
        10        32     1
        10        34     1
        10        35     1
        10        36     1
        11        16     1
        11        19     1
        12        17     1
        12        18     1
        12        20     1
        12        28     1
        12        30     1
        12        31     1
        12        32     1
        12        34     1
        12        35     1
        12        36     1
        13        16     1
        13        19     1
        13        29     1
        13        33     1
        14        16     1
        14        19     1
        14        29     1
        14        33     1
        15        21     1
        15        25     1
        15        29     1
        15        33     1
        16        20     1
        16        22     1
        16        23     1
        16        24     1
        16        25     1
        17        20     1
        17        26     1
        17        27     1
        18        22     1
        18        23     1
        18        24     1
        18        28     1
        19        21     1
        19        26     1
        19        27     1
        19        28     1
        20        25     1
        21        25     1
        21        28     1
        29        34     1
        29        35     1
        29        36     1
        30        33     1
        31        33     1
        32        33     1
        37        44     1
        37        45     1
        37        46     1
        37        49     1
        37        50     1
        38        41     1
        38        42     1
        38        43     1
        38        48     1
        38        52     1
        38        53     1
        39        41     1
        39        42     1
        39        43     1
        39        48     1
        39        52     1
        39        53     1
        40        47     1
        40        48     1
        40        52     1
        40        53     1
        41        44     1
        41        45     1
        41        46     1
        41        51     1
        42        44     1
        42        45     1
        42        46     1
        42        51     1
        43        49     1
        43        50     1
        43        51     1
        44        47     1
        44        48     1
        45        47     1
        45        48     1
        46        52     1
        46        53     1
        47        49     1
        47        50     1
        47        51     1
        49        52     1
        49        53     1
        50        52     1
        50        53     1
