; ITP file created by ByteFF-joint-25, 2026-03-14 15:21:44.497247

[ atomtypes ]
;name           bonded.type        at.num        mass        charge   ptype           sigma         epsilon
 c0bf                                   6      0.0000       0.00000       A     3.31513e-01     4.13229e-01    ;  uncertainty sigma = 0.000018, epsilon = 0.000580
 c1bf                                   6      0.0000       0.00000       A     3.31520e-01     4.13274e-01    ;  uncertainty sigma = 0.000004, epsilon = 0.000634
 h2bf                                   1      0.0000       0.00000       A     2.62556e-01     6.71679e-02    ;  uncertainty sigma = 0.000005, epsilon = 0.000415
 c3bf                                   6      0.0000       0.00000       A     3.31523e-01     4.13856e-01    ;  uncertainty sigma = 0.000006, epsilon = 0.000923
 h4bf                                   1      0.0000       0.00000       A     2.62554e-01     6.67696e-02    ;  uncertainty sigma = 0.000013, epsilon = 0.000550
 c5bf                                   6      0.0000       0.00000       A     3.31570e-01     4.13045e-01    ;  uncertainty sigma = 0.000022, epsilon = 0.001037
 c6bf                                   6      0.0000       0.00000       A     3.31605e-01     4.12825e-01    ;  uncertainty sigma = 0.000050, epsilon = 0.001387
 c7bf                                   6      0.0000       0.00000       A     3.31530e-01     4.13175e-01    ;  uncertainty sigma = 0.000013, epsilon = 0.000855
 h8bf                                   1      0.0000       0.00000       A     2.62549e-01     6.70985e-02    ;  uncertainty sigma = 0.000023, epsilon = 0.000537
 o9bf                                   8      0.0000       0.00000       A     3.15675e-01     3.03349e-01    ;  uncertainty sigma = 0.000037, epsilon = 0.000709
 c10bf                                  6      0.0000       0.00000       A     3.39754e-01     4.50298e-01    ;  uncertainty sigma = 0.000022, epsilon = 0.001818
 c11bf                                  6      0.0000       0.00000       A     3.39729e-01     4.51261e-01    ;  uncertainty sigma = 0.000015, epsilon = 0.001388
 h12bf                                  1      0.0000       0.00000       A     2.60113e-01     8.69260e-02    ;  uncertainty sigma = 0.000018, epsilon = 0.001362
 h13bf                                  1      0.0000       0.00000       A     2.60113e-01     8.69260e-02    ;  uncertainty sigma = 0.000018, epsilon = 0.001362
 c14bf                                  6      0.0000       0.00000       A     3.39921e-01     4.52171e-01    ;  uncertainty sigma = 0.000045, epsilon = 0.005040
 c15bf                                  6      0.0000       0.00000       A     3.31534e-01     4.13061e-01    ;  uncertainty sigma = 0.000023, epsilon = 0.000770
 n16bf                                  7      0.0000       0.00000       A     3.18159e-01     6.82058e-01    ;  uncertainty sigma = 0.000074, epsilon = 0.006526
 c17bf                                  6      0.0000       0.00000       A     3.31516e-01     4.13029e-01    ;  uncertainty sigma = 0.000046, epsilon = 0.002102
 n18bf                                  7      0.0000       0.00000       A     3.27895e-01     6.51183e-01    ;  uncertainty sigma = 0.000198, epsilon = 0.011723
 h19bf                                  1      0.0000       0.00000       A     1.10796e-01     4.19443e-02    ;  uncertainty sigma = 0.000445, epsilon = 0.001840
 c20bf                                  6      0.0000       0.00000       A     3.39747e-01     4.51374e-01    ;  uncertainty sigma = 0.000011, epsilon = 0.001160
 h21bf                                  1      0.0000       0.00000       A     2.42212e-01     8.67416e-02    ;  uncertainty sigma = 0.000033, epsilon = 0.000677
 h22bf                                  1      0.0000       0.00000       A     2.42212e-01     8.67416e-02    ;  uncertainty sigma = 0.000033, epsilon = 0.000677
 h23bf                                  1      0.0000       0.00000       A     2.42212e-01     8.67416e-02    ;  uncertainty sigma = 0.000033, epsilon = 0.000677
 n24bf                                  7      0.0000       0.00000       A     3.36518e-01     4.71691e-01    ;  uncertainty sigma = 0.000108, epsilon = 0.006012
 h25bf                                  1      0.0000       0.00000       A     1.10696e-01     4.11175e-02    ;  uncertainty sigma = 0.000127, epsilon = 0.001410
 h26bf                                  1      0.0000       0.00000       A     1.10696e-01     4.11175e-02    ;  uncertainty sigma = 0.000127, epsilon = 0.001410
 o27bf                                  8      0.0000       0.00000       A     3.04746e-01     6.12575e-01    ;  uncertainty sigma = 0.000054, epsilon = 0.002454
 c28bf                                  6      0.0000       0.00000       A     3.39769e-01     4.50351e-01    ;  uncertainty sigma = 0.000003, epsilon = 0.001331
 h29bf                                  1      0.0000       0.00000       A     2.60031e-01     8.68009e-02    ;  uncertainty sigma = 0.000006, epsilon = 0.000320
 h30bf                                  1      0.0000       0.00000       A     2.60031e-01     8.68009e-02    ;  uncertainty sigma = 0.000006, epsilon = 0.000320
 h31bf                                  1      0.0000       0.00000       A     2.60031e-01     8.68009e-02    ;  uncertainty sigma = 0.000006, epsilon = 0.000320
 c32bf                                  6      0.0000       0.00000       A     3.39769e-01     4.50351e-01    ;  uncertainty sigma = 0.000003, epsilon = 0.001331
 h33bf                                  1      0.0000       0.00000       A     2.60031e-01     8.68009e-02    ;  uncertainty sigma = 0.000006, epsilon = 0.000320
 h34bf                                  1      0.0000       0.00000       A     2.60031e-01     8.68009e-02    ;  uncertainty sigma = 0.000006, epsilon = 0.000320
 h35bf                                  1      0.0000       0.00000       A     2.60031e-01     8.68009e-02    ;  uncertainty sigma = 0.000006, epsilon = 0.000320
 o36bf                                  8      0.0000       0.00000       A     3.15611e-01     3.03159e-01    ;  uncertainty sigma = 0.000024, epsilon = 0.000860
 c37bf                                  6      0.0000       0.00000       A     3.39792e-01     4.50521e-01    ;  uncertainty sigma = 0.000007, epsilon = 0.000767
 c38bf                                  6      0.0000       0.00000       A     3.39763e-01     4.50474e-01    ;  uncertainty sigma = 0.000008, epsilon = 0.000638
 c39bf                                  6      0.0000       0.00000       A     3.39778e-01     4.50888e-01    ;  uncertainty sigma = 0.000002, epsilon = 0.000582
 h40bf                                  1      0.0000       0.00000       A     2.60022e-01     8.66310e-02    ;  uncertainty sigma = 0.000010, epsilon = 0.000510
 h41bf                                  1      0.0000       0.00000       A     2.60022e-01     8.66310e-02    ;  uncertainty sigma = 0.000010, epsilon = 0.000510
 h42bf                                  1      0.0000       0.00000       A     2.60022e-01     8.66310e-02    ;  uncertainty sigma = 0.000010, epsilon = 0.000510
 c43bf                                  6      0.0000       0.00000       A     3.39778e-01     4.50888e-01    ;  uncertainty sigma = 0.000002, epsilon = 0.000582
 h44bf                                  1      0.0000       0.00000       A     2.60022e-01     8.66310e-02    ;  uncertainty sigma = 0.000010, epsilon = 0.000510
 h45bf                                  1      0.0000       0.00000       A     2.60022e-01     8.66310e-02    ;  uncertainty sigma = 0.000010, epsilon = 0.000510
 h46bf                                  1      0.0000       0.00000       A     2.60022e-01     8.66310e-02    ;  uncertainty sigma = 0.000010, epsilon = 0.000510
 h47bf                                  1      0.0000       0.00000       A     2.60058e-01     8.66367e-02    ;  uncertainty sigma = 0.000022, epsilon = 0.000850
 h48bf                                  1      0.0000       0.00000       A     2.42191e-01     8.70458e-02    ;  uncertainty sigma = 0.000031, epsilon = 0.000505
 h49bf                                  1      0.0000       0.00000       A     2.42191e-01     8.70458e-02    ;  uncertainty sigma = 0.000031, epsilon = 0.000505

[ moleculetype ]
;name             nrexcl
 MOL                   3

[ atoms ]
;       nr            type      resi   res      atom      cgnr      charge          mass ; qtot
         1            c0bf         1   UNL        c0         1     0.13996       12.0110 ; qtot    0.140
         2            c1bf         1   UNL        c1         2    -0.13779       12.0110 ; qtot    0.002
         3            h2bf         1   UNL        h2         3     0.14649        1.0080 ; qtot    0.149
         4            c3bf         1   UNL        c3         4    -0.11599       12.0110 ; qtot    0.033
         5            h4bf         1   UNL        h4         5     0.15826        1.0080 ; qtot    0.191
         6            c5bf         1   UNL        c5         6     0.15610       12.0110 ; qtot    0.347
         7            c6bf         1   UNL        c6         7    -0.17234       12.0110 ; qtot    0.175
         8            c7bf         1   UNL        c7         8    -0.13548       12.0110 ; qtot    0.039
         9            h8bf         1   UNL        h8         9     0.15671        1.0080 ; qtot    0.196
        10            o9bf         1   UNL        o9        10    -0.32636       15.9990 ; qtot   -0.130
        11           c10bf         1   UNL       c10        11     0.16563       12.0110 ; qtot    0.035
        12           c11bf         1   UNL       c11        12    -0.09886       12.0110 ; qtot   -0.064
        13           h12bf         1   UNL       h12        13     0.09101        1.0080 ; qtot    0.027
        14           h13bf         1   UNL       h13        14     0.09101        1.0080 ; qtot    0.118
        15           c14bf         1   UNL       c14        15     0.04006       12.0110 ; qtot    0.158
        16           c15bf         1   UNL       c15        16     0.70427       12.0110 ; qtot    0.863
        17           n16bf         1   UNL       n16        17    -0.41729       14.0070 ; qtot    0.445
        18           c17bf         1   UNL       c17        18     0.47248       12.0110 ; qtot    0.918
        19           n18bf         1   UNL       n18        19    -0.37471       14.0070 ; qtot    0.543
        20           h19bf         1   UNL       h19        20     0.35504        1.0080 ; qtot    0.898
        21           c20bf         1   UNL       c20        21     0.07530       12.0110 ; qtot    0.974
        22           h21bf         1   UNL       h21        22     0.09109        1.0080 ; qtot    1.065
        23           h22bf         1   UNL       h22        23     0.09109        1.0080 ; qtot    1.156
        24           h23bf         1   UNL       h23        24     0.09109        1.0080 ; qtot    1.247
        25           n24bf         1   UNL       n24        25    -0.48596       14.0070 ; qtot    0.761
        26           h25bf         1   UNL       h25        26     0.33929        1.0080 ; qtot    1.100
        27           h26bf         1   UNL       h26        27     0.33929        1.0080 ; qtot    1.439
        28           o27bf         1   UNL       o27        28    -0.45182       15.9990 ; qtot    0.988
        29           c28bf         1   UNL       c28        29    -0.10337       12.0110 ; qtot    0.884
        30           h29bf         1   UNL       h29        30     0.05101        1.0080 ; qtot    0.935
        31           h30bf         1   UNL       h30        31     0.05101        1.0080 ; qtot    0.986
        32           h31bf         1   UNL       h31        32     0.05101        1.0080 ; qtot    1.037
        33           c32bf         1   UNL       c32        33    -0.10337       12.0110 ; qtot    0.934
        34           h33bf         1   UNL       h33        34     0.05101        1.0080 ; qtot    0.985
        35           h34bf         1   UNL       h34        35     0.05101        1.0080 ; qtot    1.036
        36           h35bf         1   UNL       h35        36     0.05101        1.0080 ; qtot    1.087
        37           o36bf         1   UNL       o36        37    -0.32702       15.9990 ; qtot    0.760
        38           c37bf         1   UNL       c37        38     0.13830       12.0110 ; qtot    0.898
        39           c38bf         1   UNL       c38        39    -0.07451       12.0110 ; qtot    0.824
        40           c39bf         1   UNL       c39        40    -0.08893       12.0110 ; qtot    0.735
        41           h40bf         1   UNL       h40        41     0.03573        1.0080 ; qtot    0.770
        42           h41bf         1   UNL       h41        42     0.03573        1.0080 ; qtot    0.806
        43           h42bf         1   UNL       h42        43     0.03573        1.0080 ; qtot    0.842
        44           c43bf         1   UNL       c43        44    -0.08893       12.0110 ; qtot    0.753
        45           h44bf         1   UNL       h44        45     0.03573        1.0080 ; qtot    0.789
        46           h45bf         1   UNL       h45        46     0.03573        1.0080 ; qtot    0.824
        47           h46bf         1   UNL       h46        47     0.03573        1.0080 ; qtot    0.860
        48           h47bf         1   UNL       h47        48     0.05456        1.0080 ; qtot    0.915
        49           h48bf         1   UNL       h48        49     0.04263        1.0080 ; qtot    0.957
        50           h49bf         1   UNL       h49        50     0.04263        1.0080 ; qtot    1.000

[ bonds ]
;       ai        aj funct               r               k
         1         2     1        0.140050   357344.448828    ;  uncertainty r = 0.000102, k = 8.975197
         1         8     1        0.139400   353277.459863    ;  uncertainty r = 0.000049, k = 9.284932
         1        37     1        0.136229   315419.512402    ;  uncertainty r = 0.000117, k = 4.687534
         2         3     1        0.108759   337227.412158    ;  uncertainty r = 0.000032, k = 1.287038
         2         4     1        0.138706   380174.675684    ;  uncertainty r = 0.000075, k = 3.550957
         4         5     1        0.108753   336313.643311    ;  uncertainty r = 0.000019, k = 1.135184
         4         6     1        0.140040   361179.024561    ;  uncertainty r = 0.000084, k = 4.267680
         6         7     1        0.139895   327974.806689    ;  uncertainty r = 0.000168, k = 8.031648
         6        10     1        0.136669   305012.731738    ;  uncertainty r = 0.000181, k = 11.095450
         7         8     1        0.139628   350564.499512    ;  uncertainty r = 0.000126, k = 3.918093
         7        15     1        0.150694   205745.097241    ;  uncertainty r = 0.000131, k = 22.128396
         8         9     1        0.108787   336460.532764    ;  uncertainty r = 0.000061, k = 1.399539
        10        11     1        0.145422   203859.641382    ;  uncertainty r = 0.000221, k = 9.275520
        11        12     1        0.152936   192803.911694    ;  uncertainty r = 0.000262, k = 11.274596
        11        29     1        0.152325   205847.654272    ;  uncertainty r = 0.000037, k = 5.592256
        11        33     1        0.152325   205847.654272    ;  uncertainty r = 0.000037, k = 5.592256
        12        13     1        0.109477   309561.503809    ;  uncertainty r = 0.000048, k = 2.448473
        12        14     1        0.109477   309561.503809    ;  uncertainty r = 0.000048, k = 2.448473
        12        15     1        0.153037   191182.815991    ;  uncertainty r = 0.000122, k = 21.611318
        15        16     1        0.153597   171635.729297    ;  uncertainty r = 0.000176, k = 14.335714
        15        19     1        0.149700   231509.857178    ;  uncertainty r = 0.000410, k = 51.679771
        16        17     1        0.142413   302839.344971    ;  uncertainty r = 0.000236, k = 75.996174
        16        28     1        0.120112   608584.455469    ;  uncertainty r = 0.000161, k = 10.569144
        17        18     1        0.135836   286250.770703    ;  uncertainty r = 0.000260, k = 52.766102
        17        21     1        0.146741   261825.572607    ;  uncertainty r = 0.000154, k = 17.700649
        18        19     1        0.133610   531287.609180    ;  uncertainty r = 0.000191, k = 37.526813
        18        25     1        0.133101   320485.564160    ;  uncertainty r = 0.000146, k = 40.823703
        19        20     1        0.101578   423262.955127    ;  uncertainty r = 0.000083, k = 11.557068
        21        22     1        0.109172   309495.286084    ;  uncertainty r = 0.000053, k = 3.597993
        21        23     1        0.109172   309495.286084    ;  uncertainty r = 0.000053, k = 3.597993
        21        24     1        0.109172   309495.286084    ;  uncertainty r = 0.000053, k = 3.597993
        25        26     1        0.101405   421785.684424    ;  uncertainty r = 0.000064, k = 13.590764
        25        27     1        0.101405   421785.735498    ;  uncertainty r = 0.000064, k = 13.590763
        29        30     1        0.109545   310467.177393    ;  uncertainty r = 0.000018, k = 1.787242
        29        31     1        0.109545   310467.177393    ;  uncertainty r = 0.000018, k = 1.787242
        29        32     1        0.109545   310467.177393    ;  uncertainty r = 0.000018, k = 1.787242
        33        34     1        0.109545   310467.177393    ;  uncertainty r = 0.000018, k = 1.787242
        33        35     1        0.109545   310467.177393    ;  uncertainty r = 0.000018, k = 1.787242
        33        36     1        0.109545   310467.177393    ;  uncertainty r = 0.000018, k = 1.787242
        37        38     1        0.142446   233095.660596    ;  uncertainty r = 0.000044, k = 8.702184
        38        39     1        0.151877   202087.238306    ;  uncertainty r = 0.000093, k = 3.670872
        38        49     1        0.109866   307325.397900    ;  uncertainty r = 0.000018, k = 1.143502
        38        50     1        0.109866   307325.397900    ;  uncertainty r = 0.000018, k = 1.143502
        39        40     1        0.153192   211733.651538    ;  uncertainty r = 0.000017, k = 2.190391
        39        44     1        0.153192   211733.651538    ;  uncertainty r = 0.000017, k = 2.190391
        39        48     1        0.109784   303600.223145    ;  uncertainty r = 0.000038, k = 2.007662
        40        41     1        0.109677   309701.830225    ;  uncertainty r = 0.000009, k = 1.320587
        40        42     1        0.109677   309701.830225    ;  uncertainty r = 0.000009, k = 1.320587
        40        43     1        0.109677   309701.830225    ;  uncertainty r = 0.000009, k = 1.320587
        44        45     1        0.109677   309701.830225    ;  uncertainty r = 0.000009, k = 1.320587
        44        46     1        0.109677   309701.830225    ;  uncertainty r = 0.000009, k = 1.320587
        44        47     1        0.109677   309701.830225    ;  uncertainty r = 0.000009, k = 1.320587

[ angles ]
;       ai        aj        ak funct           theta             cth
         1         2         3     1      119.606216      272.013819    ;  uncertainty theta = 0.001054, k = 0.037807
         1         2         4     1      118.502480      523.898906    ;  uncertainty theta = 0.003226, k = 0.147085
         1         8         7     1      121.309006      516.013494    ;  uncertainty theta = 0.003650, k = 0.090994
         1         8         9     1      119.496254      282.112980    ;  uncertainty theta = 0.003032, k = 0.123205
         1        37        38     1      110.075455      502.708883    ;  uncertainty theta = 0.003178, k = 0.072272
         2         1         8     1      120.644798      385.710553    ;  uncertainty theta = 0.005843, k = 0.131921
         2         1        37     1      120.100906      426.159515    ;  uncertainty theta = 0.004319, k = 0.092420
         2         4         5     1      121.034973      275.990586    ;  uncertainty theta = 0.001190, k = 0.046415
         2         4         6     1      120.014481      497.423244    ;  uncertainty theta = 0.002633, k = 0.144104
         3         2         4     1      120.017746      284.131082    ;  uncertainty theta = 0.001522, k = 0.032543
         4         6         7     1      121.022781      370.449768    ;  uncertainty theta = 0.003072, k = 0.117807
         4         6        10     1      118.364334      538.647225    ;  uncertainty theta = 0.002283, k = 0.090171
         5         4         6     1      120.023605      275.968624    ;  uncertainty theta = 0.003937, k = 0.152404
         6         7         8     1      121.756149      433.689387    ;  uncertainty theta = 0.006046, k = 0.187364
         6         7        15     1      119.989059      413.592416    ;  uncertainty theta = 0.009811, k = 0.239099
         6        10        11     1      114.495094      453.080831    ;  uncertainty theta = 0.006657, k = 0.090004
         7         6        10     1      123.897072      500.225080    ;  uncertainty theta = 0.004030, k = 0.281460
         7         8         9     1      118.404282      267.262401    ;  uncertainty theta = 0.003889, k = 0.073678
         7        15        12     1      110.331299      542.356427    ;  uncertainty theta = 0.001200, k = 0.150540
         7        15        16     1      109.071213      469.849008    ;  uncertainty theta = 0.003560, k = 0.374419
         7        15        19     1      110.467262      619.721099    ;  uncertainty theta = 0.004507, k = 0.322427
         8         1        37     1      119.457947      434.406596    ;  uncertainty theta = 0.003178, k = 0.196145
         8         7        15     1      118.023094      404.299079    ;  uncertainty theta = 0.004879, k = 0.174650
        10        11        12     1      109.104774      651.855785    ;  uncertainty theta = 0.004859, k = 0.084503
        10        11        29     1      107.605125      619.338362    ;  uncertainty theta = 0.001081, k = 0.064685
        10        11        33     1      107.605125      619.338362    ;  uncertainty theta = 0.001081, k = 0.064685
        11        12        13     1      107.678444      386.201185    ;  uncertainty theta = 0.003165, k = 0.032000
        11        12        14     1      107.678444      386.201185    ;  uncertainty theta = 0.003165, k = 0.032000
        11        12        15     1      109.879616      529.872611    ;  uncertainty theta = 0.006923, k = 0.195480
        11        29        30     1      107.221069      387.594393    ;  uncertainty theta = 0.001065, k = 0.069193
        11        29        31     1      107.221069      387.594393    ;  uncertainty theta = 0.001065, k = 0.069193
        11        29        32     1      107.221069      387.594393    ;  uncertainty theta = 0.001065, k = 0.069193
        11        33        34     1      107.221069      387.594393    ;  uncertainty theta = 0.001065, k = 0.069193
        11        33        35     1      107.221069      387.594393    ;  uncertainty theta = 0.001065, k = 0.069193
        11        33        36     1      107.221069      387.594393    ;  uncertainty theta = 0.001065, k = 0.069193
        12        11        29     1      109.374954      548.046988    ;  uncertainty theta = 0.004356, k = 0.115347
        12        11        33     1      109.374954      548.046988    ;  uncertainty theta = 0.004356, k = 0.115347
        12        15        16     1      107.807167      449.218630    ;  uncertainty theta = 0.006901, k = 0.165247
        12        15        19     1      109.808060      627.608044    ;  uncertainty theta = 0.007972, k = 0.270591
        13        12        14     1      106.986496      321.844700    ;  uncertainty theta = 0.004263, k = 0.066652
        13        12        15     1      106.657188      397.533436    ;  uncertainty theta = 0.003129, k = 0.080849
        14        12        15     1      106.657188      397.533436    ;  uncertainty theta = 0.003129, k = 0.080849
        15        16        17     1      110.190041      536.420453    ;  uncertainty theta = 0.011625, k = 0.711893
        15        16        28     1      125.850266      424.637471    ;  uncertainty theta = 0.006688, k = 0.207328
        15        19        18     1      111.015549      601.627866    ;  uncertainty theta = 0.016515, k = 0.390248
        15        19        20     1      118.127731      280.457537    ;  uncertainty theta = 0.015277, k = 0.123505
        16        15        19     1      103.834290      815.629098    ;  uncertainty theta = 0.012128, k = 0.857218
        16        17        18     1      110.293701      728.609291    ;  uncertainty theta = 0.010426, k = 0.320486
        16        17        21     1      119.398109      397.513773    ;  uncertainty theta = 0.006832, k = 0.281808
        17        16        28     1      125.307961      629.051912    ;  uncertainty theta = 0.008036, k = 0.165829
        17        18        19     1      113.250023      720.106327    ;  uncertainty theta = 0.006756, k = 0.305315
        17        18        25     1      125.598953      549.524885    ;  uncertainty theta = 0.008546, k = 0.324469
        17        21        22     1      107.360855      470.851946    ;  uncertainty theta = 0.002522, k = 0.203983
        17        21        23     1      107.360855      470.851946    ;  uncertainty theta = 0.002522, k = 0.203983
        17        21        24     1      107.360855      470.851946    ;  uncertainty theta = 0.002522, k = 0.203983
        18        17        21     1      118.646042      371.786540    ;  uncertainty theta = 0.007230, k = 0.373049
        18        19        20     1      119.824707      355.581520    ;  uncertainty theta = 0.006083, k = 0.153034
        18        25        26     1      114.903091      371.138312    ;  uncertainty theta = 0.001582, k = 0.210952
        18        25        27     1      114.903091      371.138312    ;  uncertainty theta = 0.001582, k = 0.210952
        19        18        25     1      128.730377      637.313550    ;  uncertainty theta = 0.008927, k = 0.256741
        22        21        23     1      107.634499      325.466948    ;  uncertainty theta = 0.003233, k = 0.098676
        22        21        24     1      107.634499      325.466948    ;  uncertainty theta = 0.003233, k = 0.098676
        23        21        24     1      107.634499      325.466948    ;  uncertainty theta = 0.003233, k = 0.098676
        26        25        27     1      112.323532      263.743275    ;  uncertainty theta = 0.015210, k = 0.362876
        29        11        33     1      110.900230      580.347218    ;  uncertainty theta = 0.002949, k = 0.067890
        30        29        31     1      106.043396      316.610518    ;  uncertainty theta = 0.000878, k = 0.018252
        30        29        32     1      106.043396      316.610518    ;  uncertainty theta = 0.000878, k = 0.018252
        31        29        32     1      106.043396      316.610518    ;  uncertainty theta = 0.000878, k = 0.018252
        34        33        35     1      106.043396      316.610518    ;  uncertainty theta = 0.000878, k = 0.018252
        34        33        36     1      106.043396      316.610518    ;  uncertainty theta = 0.000878, k = 0.018252
        35        33        36     1      106.043396      316.610518    ;  uncertainty theta = 0.000878, k = 0.018252
        37        38        39     1      108.513229      587.378350    ;  uncertainty theta = 0.002369, k = 0.078576
        37        38        49     1      106.841469      438.354697    ;  uncertainty theta = 0.002009, k = 0.035217
        37        38        50     1      106.841469      438.354697    ;  uncertainty theta = 0.002009, k = 0.035217
        38        39        40     1      108.718361      556.514711    ;  uncertainty theta = 0.001958, k = 0.052243
        38        39        44     1      108.718361      556.514711    ;  uncertainty theta = 0.001958, k = 0.052243
        38        39        48     1      104.896072      387.431754    ;  uncertainty theta = 0.002770, k = 0.049280
        39        38        49     1      109.652451      403.660427    ;  uncertainty theta = 0.001096, k = 0.033563
        39        38        50     1      109.652451      403.660427    ;  uncertainty theta = 0.001096, k = 0.033563
        39        40        41     1      107.873215      395.514345    ;  uncertainty theta = 0.001486, k = 0.023326
        39        40        42     1      107.873215      395.514345    ;  uncertainty theta = 0.001486, k = 0.023326
        39        40        43     1      107.873215      395.514345    ;  uncertainty theta = 0.001486, k = 0.023326
        39        44        45     1      107.873215      395.514345    ;  uncertainty theta = 0.001486, k = 0.023326
        39        44        46     1      107.873215      395.514345    ;  uncertainty theta = 0.001486, k = 0.023326
        39        44        47     1      107.873215      395.514345    ;  uncertainty theta = 0.001486, k = 0.023326
        40        39        44     1      110.529541      600.268526    ;  uncertainty theta = 0.001598, k = 0.051656
        40        39        48     1      107.147354      400.562457    ;  uncertainty theta = 0.002713, k = 0.015691
        41        40        42     1      105.084984      317.210226    ;  uncertainty theta = 0.001659, k = 0.006102
        41        40        43     1      105.084984      317.210226    ;  uncertainty theta = 0.001659, k = 0.006102
        42        40        43     1      105.084984      317.210226    ;  uncertainty theta = 0.001659, k = 0.006102
        44        39        48     1      107.147354      400.562457    ;  uncertainty theta = 0.002713, k = 0.015691
        45        44        46     1      105.084984      317.210226    ;  uncertainty theta = 0.001659, k = 0.006102
        45        44        47     1      105.084984      317.210162    ;  uncertainty theta = 0.001659, k = 0.006102
        46        44        47     1      105.084984      317.210162    ;  uncertainty theta = 0.001660, k = 0.006102
        49        38        50     1      107.517014      331.807908    ;  uncertainty theta = 0.002436, k = 0.040899

[ dihedrals ] ; propers for gromacs 4.5 or higher, use funct 9
;       ai        aj        ak        al funct           phase               k        pn
         1         2         4         5     9        0.000000        0.082817         1    ;  uncertainty k = 0.196686
         1         2         4         5     9      180.000000        8.384736         2    ;  uncertainty k = 0.338694
         1         2         4         5     9        0.000000        1.375709         3    ;  uncertainty k = 0.370489
         1         2         4         5     9      180.000000        1.841503         4    ;  uncertainty k = 0.233591
         1         2         4         6     9        0.000000       -0.283177         1    ;  uncertainty k = 0.241122
         1         2         4         6     9      180.000000       14.317354         2    ;  uncertainty k = 0.375990
         1         2         4         6     9        0.000000       -0.346904         3    ;  uncertainty k = 0.539807
         1         2         4         6     9      180.000000        0.939403         4    ;  uncertainty k = 0.194999
         1         8         7         6     9        0.000000       -0.196456         1    ;  uncertainty k = 0.080615
         1         8         7         6     9      180.000000       11.546053         2    ;  uncertainty k = 0.373384
         1         8         7         6     9        0.000000       -0.094341         3    ;  uncertainty k = 0.218098
         1         8         7         6     9      180.000000        1.105748         4    ;  uncertainty k = 0.380874
         1         8         7        15     9        0.000000        0.305993         1    ;  uncertainty k = 0.477349
         1         8         7        15     9      180.000000        8.913893         2    ;  uncertainty k = 0.127724
         1         8         7        15     9        0.000000        1.656387         3    ;  uncertainty k = 0.354419
         1         8         7        15     9      180.000000        1.831715         4    ;  uncertainty k = 0.193848
         1        37        38        39     9        0.000000       -1.826947         1    ;  uncertainty k = 0.704504
         1        37        38        39     9      180.000000        0.172699         2    ;  uncertainty k = 0.233913
         1        37        38        39     9        0.000000        0.663606         3    ;  uncertainty k = 0.134968
         1        37        38        39     9      180.000000        0.504450         4    ;  uncertainty k = 0.097889
         1        37        38        49     9        0.000000        0.621377         1    ;  uncertainty k = 0.256700
         1        37        38        49     9      180.000000       -1.171862         2    ;  uncertainty k = 0.237271
         1        37        38        49     9        0.000000        0.524894         3    ;  uncertainty k = 0.070069
         1        37        38        49     9      180.000000        0.283849         4    ;  uncertainty k = 0.077525
         1        37        38        50     9        0.000000        0.621377         1    ;  uncertainty k = 0.256700
         1        37        38        50     9      180.000000       -1.171862         2    ;  uncertainty k = 0.237271
         1        37        38        50     9        0.000000        0.524894         3    ;  uncertainty k = 0.070069
         1        37        38        50     9      180.000000        0.283849         4    ;  uncertainty k = 0.077525
         2         1         8         7     9        0.000000        0.065972         1    ;  uncertainty k = 0.269847
         2         1         8         7     9      180.000000        8.406666         2    ;  uncertainty k = 0.589965
         2         1         8         7     9        0.000000        0.196169         3    ;  uncertainty k = 0.587807
         2         1         8         7     9      180.000000        1.374595         4    ;  uncertainty k = 0.400509
         2         1         8         9     9        0.000000        0.224610         1    ;  uncertainty k = 0.368857
         2         1         8         9     9      180.000000        6.435236         2    ;  uncertainty k = 0.467101
         2         1         8         9     9        0.000000        1.518931         3    ;  uncertainty k = 0.292765
         2         1         8         9     9      180.000000        1.665576         4    ;  uncertainty k = 0.077485
         2         1        37        38     9        0.000000        1.836732         1    ;  uncertainty k = 0.370750
         2         1        37        38     9      180.000000        6.805667         2    ;  uncertainty k = 0.154390
         2         1        37        38     9        0.000000        0.680390         3    ;  uncertainty k = 0.137482
         2         1        37        38     9      180.000000        0.203807         4    ;  uncertainty k = 0.065306
         2         4         6         7     9        0.000000        0.207986         1    ;  uncertainty k = 0.482747
         2         4         6         7     9      180.000000        7.905065         2    ;  uncertainty k = 0.619315
         2         4         6         7     9        0.000000        0.123853         3    ;  uncertainty k = 0.461697
         2         4         6         7     9      180.000000        1.326510         4    ;  uncertainty k = 0.219597
         2         4         6        10     9        0.000000        0.342717         1    ;  uncertainty k = 0.202003
         2         4         6        10     9      180.000000       11.410736         2    ;  uncertainty k = 0.383083
         2         4         6        10     9        0.000000        1.221567         3    ;  uncertainty k = 0.217319
         2         4         6        10     9      180.000000        1.561528         4    ;  uncertainty k = 0.145126
         3         2         1         8     9        0.000000        0.099596         1    ;  uncertainty k = 0.315026
         3         2         1         8     9      180.000000        5.647050         2    ;  uncertainty k = 0.538991
         3         2         1         8     9        0.000000        1.391587         3    ;  uncertainty k = 0.285770
         3         2         1         8     9      180.000000        1.589548         4    ;  uncertainty k = 0.133822
         3         2         1        37     9        0.000000       -0.171187         1    ;  uncertainty k = 0.200740
         3         2         1        37     9      180.000000        8.468156         2    ;  uncertainty k = 0.516081
         3         2         1        37     9        0.000000        0.713119         3    ;  uncertainty k = 0.072698
         3         2         1        37     9      180.000000        1.059958         4    ;  uncertainty k = 0.235687
         3         2         4         5     9        0.000000        0.020895         1    ;  uncertainty k = 0.442801
         3         2         4         5     9      180.000000        7.773800         2    ;  uncertainty k = 0.365113
         3         2         4         5     9        0.000000       -0.368150         3    ;  uncertainty k = 0.390589
         3         2         4         5     9      180.000000        0.109380         4    ;  uncertainty k = 0.182694
         3         2         4         6     9        0.000000        0.345408         1    ;  uncertainty k = 0.280853
         3         2         4         6     9      180.000000        8.575043         2    ;  uncertainty k = 0.329990
         3         2         4         6     9        0.000000        1.424176         3    ;  uncertainty k = 0.307843
         3         2         4         6     9      180.000000        1.731546         4    ;  uncertainty k = 0.174291
         4         2         1         8     9        0.000000       -0.097656         1    ;  uncertainty k = 0.129979
         4         2         1         8     9      180.000000        8.290016         2    ;  uncertainty k = 0.362093
         4         2         1         8     9        0.000000        0.056301         3    ;  uncertainty k = 0.382311
         4         2         1         8     9      180.000000        1.323712         4    ;  uncertainty k = 0.231650
         4         2         1        37     9        0.000000        0.078112         1    ;  uncertainty k = 0.421417
         4         2         1        37     9      180.000000       10.687126         2    ;  uncertainty k = 0.502931
         4         2         1        37     9        0.000000        1.130355         3    ;  uncertainty k = 0.209690
         4         2         1        37     9      180.000000        1.569832         4    ;  uncertainty k = 0.150541
         4         6         7         8     9        0.000000       -0.125595         1    ;  uncertainty k = 0.144909
         4         6         7         8     9      180.000000        7.072095         2    ;  uncertainty k = 0.499268
         4         6         7         8     9        0.000000        0.414892         3    ;  uncertainty k = 0.265942
         4         6         7         8     9      180.000000        1.366375         4    ;  uncertainty k = 0.294201
         4         6         7        15     9        0.000000        0.369156         1    ;  uncertainty k = 0.261632
         4         6         7        15     9      180.000000        5.060967         2    ;  uncertainty k = 0.449406
         4         6         7        15     9        0.000000        1.481633         3    ;  uncertainty k = 0.239652
         4         6         7        15     9      180.000000        1.648893         4    ;  uncertainty k = 0.218454
         4         6        10        11     9        0.000000       -0.183214         1    ;  uncertainty k = 0.786680
         4         6        10        11     9      180.000000        0.677853         2    ;  uncertainty k = 0.718665
         4         6        10        11     9        0.000000        0.853845         3    ;  uncertainty k = 0.130414
         4         6        10        11     9      180.000000        0.278869         4    ;  uncertainty k = 0.185667
         5         4         6         7     9        0.000000        0.355001         1    ;  uncertainty k = 0.546177
         5         4         6         7     9      180.000000        5.686518         2    ;  uncertainty k = 0.468970
         5         4         6         7     9        0.000000        1.320742         3    ;  uncertainty k = 0.186511
         5         4         6         7     9      180.000000        1.395511         4    ;  uncertainty k = 0.132789
         5         4         6        10     9        0.000000       -0.126546         1    ;  uncertainty k = 0.635657
         5         4         6        10     9      180.000000        8.836601         2    ;  uncertainty k = 0.434776
         5         4         6        10     9        0.000000        0.771341         3    ;  uncertainty k = 0.292397
         5         4         6        10     9      180.000000        1.271342         4    ;  uncertainty k = 0.279840
         6         7         8         9     9        0.000000        0.296070         1    ;  uncertainty k = 0.523063
         6         7         8         9     9      180.000000        7.932995         2    ;  uncertainty k = 0.727070
         6         7         8         9     9        0.000000        1.287692         3    ;  uncertainty k = 0.289135
         6         7         8         9     9      180.000000        1.627435         4    ;  uncertainty k = 0.174211
         6         7        15        12     9        0.000000       -0.655579         1    ;  uncertainty k = 1.310334
         6         7        15        12     9      180.000000        0.703950         2    ;  uncertainty k = 0.738548
         6         7        15        12     9        0.000000        0.316541         3    ;  uncertainty k = 0.281997
         6         7        15        12     9      180.000000        0.256080         4    ;  uncertainty k = 0.226457
         6         7        15        16     9        0.000000        2.022790         1    ;  uncertainty k = 2.434793
         6         7        15        16     9      180.000000        0.547216         2    ;  uncertainty k = 0.997747
         6         7        15        16     9        0.000000        0.457887         3    ;  uncertainty k = 0.299515
         6         7        15        16     9      180.000000        0.351219         4    ;  uncertainty k = 0.180205
         6         7        15        19     9        0.000000       -1.823122         1    ;  uncertainty k = 1.632956
         6         7        15        19     9      180.000000        1.375916         2    ;  uncertainty k = 0.431997
         6         7        15        19     9        0.000000        0.633950         3    ;  uncertainty k = 0.492557
         6         7        15        19     9      180.000000        0.027448         4    ;  uncertainty k = 0.173166
         6        10        11        12     9        0.000000        4.509783         1    ;  uncertainty k = 0.635252
         6        10        11        12     9      180.000000       -1.718733         2    ;  uncertainty k = 1.217232
         6        10        11        12     9        0.000000       -0.451613         3    ;  uncertainty k = 0.492023
         6        10        11        12     9      180.000000        0.327506         4    ;  uncertainty k = 0.239214
         6        10        11        29     9        0.000000       -1.388884         1    ;  uncertainty k = 0.497681
         6        10        11        29     9      180.000000        1.131598         2    ;  uncertainty k = 0.724095
         6        10        11        29     9        0.000000        0.439998         3    ;  uncertainty k = 0.221287
         6        10        11        29     9      180.000000        0.160556         4    ;  uncertainty k = 0.179129
         6        10        11        33     9        0.000000       -1.388884         1    ;  uncertainty k = 0.497681
         6        10        11        33     9      180.000000        1.131598         2    ;  uncertainty k = 0.724095
         6        10        11        33     9        0.000000        0.439998         3    ;  uncertainty k = 0.221287
         6        10        11        33     9      180.000000        0.160556         4    ;  uncertainty k = 0.179129
         7         6        10        11     9        0.000000        4.335681         1    ;  uncertainty k = 1.837595
         7         6        10        11     9      180.000000       -1.821716         2    ;  uncertainty k = 1.439291
         7         6        10        11     9        0.000000       -0.453388         3    ;  uncertainty k = 0.713540
         7         6        10        11     9      180.000000        0.631357         4    ;  uncertainty k = 0.294685
         7         8         1        37     9        0.000000        0.168830         1    ;  uncertainty k = 0.247897
         7         8         1        37     9      180.000000       10.972609         2    ;  uncertainty k = 0.378382
         7         8         1        37     9        0.000000        1.269824         3    ;  uncertainty k = 0.251572
         7         8         1        37     9      180.000000        1.532808         4    ;  uncertainty k = 0.180924
         7        15        12        11     9        0.000000        2.284186         1    ;  uncertainty k = 1.833170
         7        15        12        11     9      180.000000       -1.081166         2    ;  uncertainty k = 0.499055
         7        15        12        11     9        0.000000        0.345671         3    ;  uncertainty k = 0.221920
         7        15        12        11     9      180.000000       -0.294003         4    ;  uncertainty k = 0.252007
         7        15        12        13     9        0.000000       -0.192722         1    ;  uncertainty k = 0.122500
         7        15        12        13     9      180.000000        0.075377         2    ;  uncertainty k = 0.437922
         7        15        12        13     9        0.000000        0.457165         3    ;  uncertainty k = 0.231143
         7        15        12        13     9      180.000000       -0.095335         4    ;  uncertainty k = 0.138312
         7        15        12        14     9        0.000000       -0.192722         1    ;  uncertainty k = 0.122500
         7        15        12        14     9      180.000000        0.075377         2    ;  uncertainty k = 0.437922
         7        15        12        14     9        0.000000        0.457165         3    ;  uncertainty k = 0.231143
         7        15        12        14     9      180.000000       -0.095335         4    ;  uncertainty k = 0.138312
         7        15        16        17     9        0.000000       -2.629571         1    ;  uncertainty k = 2.703381
         7        15        16        17     9      180.000000        2.508237         2    ;  uncertainty k = 1.202906
         7        15        16        17     9        0.000000        1.427352         3    ;  uncertainty k = 0.194327
         7        15        16        17     9      180.000000        0.675086         4    ;  uncertainty k = 0.432487
         7        15        16        28     9        0.000000       -0.866395         1    ;  uncertainty k = 2.372021
         7        15        16        28     9      180.000000        3.143061         2    ;  uncertainty k = 0.498475
         7        15        16        28     9        0.000000        0.232908         3    ;  uncertainty k = 0.340838
         7        15        16        28     9      180.000000        0.140842         4    ;  uncertainty k = 0.276536
         7        15        19        18     9        0.000000        0.925704         1    ;  uncertainty k = 1.454490
         7        15        19        18     9      180.000000        0.573042         2    ;  uncertainty k = 0.554382
         7        15        19        18     9        0.000000        0.837547         3    ;  uncertainty k = 0.409756
         7        15        19        18     9      180.000000        0.385885         4    ;  uncertainty k = 0.134510
         7        15        19        20     9        0.000000        0.802015         1    ;  uncertainty k = 2.659824
         7        15        19        20     9      180.000000       -1.047083         2    ;  uncertainty k = 1.311718
         7        15        19        20     9        0.000000        0.531427         3    ;  uncertainty k = 0.515230
         7        15        19        20     9      180.000000       -0.041865         4    ;  uncertainty k = 0.122275
         8         1        37        38     9        0.000000       -0.512427         1    ;  uncertainty k = 0.820059
         8         1        37        38     9      180.000000        7.058965         2    ;  uncertainty k = 0.215182
         8         1        37        38     9        0.000000        0.340144         3    ;  uncertainty k = 0.132818
         8         1        37        38     9      180.000000        0.180981         4    ;  uncertainty k = 0.114842
         8         7         6        10     9        0.000000        0.457465         1    ;  uncertainty k = 0.310200
         8         7         6        10     9      180.000000        8.256524         2    ;  uncertainty k = 0.175656
         8         7         6        10     9        0.000000        1.520189         3    ;  uncertainty k = 0.277244
         8         7         6        10     9      180.000000        1.609309         4    ;  uncertainty k = 0.134407
         8         7        15        12     9        0.000000       -0.493437         1    ;  uncertainty k = 1.016961
         8         7        15        12     9      180.000000        0.940329         2    ;  uncertainty k = 0.492316
         8         7        15        12     9        0.000000       -0.286940         3    ;  uncertainty k = 0.353225
         8         7        15        12     9      180.000000        0.151926         4    ;  uncertainty k = 0.160562
         8         7        15        16     9        0.000000        0.335018         1    ;  uncertainty k = 1.723432
         8         7        15        16     9      180.000000        0.300896         2    ;  uncertainty k = 0.689501
         8         7        15        16     9        0.000000        0.173921         3    ;  uncertainty k = 0.195460
         8         7        15        16     9      180.000000        0.273819         4    ;  uncertainty k = 0.146336
         8         7        15        19     9        0.000000       -0.094351         1    ;  uncertainty k = 0.994067
         8         7        15        19     9      180.000000        1.961724         2    ;  uncertainty k = 0.186947
         8         7        15        19     9        0.000000       -0.008263         3    ;  uncertainty k = 0.328921
         8         7        15        19     9      180.000000        0.059937         4    ;  uncertainty k = 0.189415
         9         8         1        37     9        0.000000       -0.108202         1    ;  uncertainty k = 0.333698
         9         8         1        37     9      180.000000        9.010769         2    ;  uncertainty k = 0.451757
         9         8         1        37     9        0.000000        0.821668         3    ;  uncertainty k = 0.170739
         9         8         1        37     9      180.000000        1.195093         4    ;  uncertainty k = 0.210677
         9         8         7        15     9        0.000000       -0.299754         1    ;  uncertainty k = 0.308960
         9         8         7        15     9      180.000000        6.925686         2    ;  uncertainty k = 0.388834
         9         8         7        15     9        0.000000        0.951873         3    ;  uncertainty k = 0.322178
         9         8         7        15     9      180.000000        1.197906         4    ;  uncertainty k = 0.282362
        10         6         7        15     9        0.000000        0.496975         1    ;  uncertainty k = 1.031714
        10         6         7        15     9      180.000000        5.830335         2    ;  uncertainty k = 0.698156
        10         6         7        15     9        0.000000        1.761127         3    ;  uncertainty k = 0.445616
        10         6         7        15     9      180.000000        1.070587         4    ;  uncertainty k = 0.417642
        10        11        12        13     9        0.000000       -1.286357         1    ;  uncertainty k = 0.418982
        10        11        12        13     9      180.000000       -0.843338         2    ;  uncertainty k = 0.564486
        10        11        12        13     9        0.000000        0.398057         3    ;  uncertainty k = 0.233267
        10        11        12        13     9      180.000000       -0.189590         4    ;  uncertainty k = 0.165011
        10        11        12        14     9        0.000000       -1.286357         1    ;  uncertainty k = 0.418982
        10        11        12        14     9      180.000000       -0.843338         2    ;  uncertainty k = 0.564486
        10        11        12        14     9        0.000000        0.398057         3    ;  uncertainty k = 0.233267
        10        11        12        14     9      180.000000       -0.189590         4    ;  uncertainty k = 0.165011
        10        11        12        15     9        0.000000        7.470423         1    ;  uncertainty k = 0.704507
        10        11        12        15     9      180.000000       -4.264130         2    ;  uncertainty k = 2.008218
        10        11        12        15     9        0.000000       -0.269669         3    ;  uncertainty k = 0.560870
        10        11        12        15     9      180.000000       -0.018397         4    ;  uncertainty k = 0.403283
        10        11        29        30     9        0.000000       -0.556685         1    ;  uncertainty k = 0.641512
        10        11        29        30     9      180.000000       -2.127823         2    ;  uncertainty k = 0.599046
        10        11        29        30     9        0.000000        0.863808         3    ;  uncertainty k = 0.110663
        10        11        29        30     9      180.000000       -0.195070         4    ;  uncertainty k = 0.150407
        10        11        29        31     9        0.000000       -0.556685         1    ;  uncertainty k = 0.641512
        10        11        29        31     9      180.000000       -2.127823         2    ;  uncertainty k = 0.599046
        10        11        29        31     9        0.000000        0.863808         3    ;  uncertainty k = 0.110663
        10        11        29        31     9      180.000000       -0.195070         4    ;  uncertainty k = 0.150407
        10        11        29        32     9        0.000000       -0.556685         1    ;  uncertainty k = 0.641512
        10        11        29        32     9      180.000000       -2.127823         2    ;  uncertainty k = 0.599046
        10        11        29        32     9        0.000000        0.863808         3    ;  uncertainty k = 0.110663
        10        11        29        32     9      180.000000       -0.195070         4    ;  uncertainty k = 0.150407
        10        11        33        34     9        0.000000       -0.556685         1    ;  uncertainty k = 0.641512
        10        11        33        34     9      180.000000       -2.127823         2    ;  uncertainty k = 0.599046
        10        11        33        34     9        0.000000        0.863808         3    ;  uncertainty k = 0.110663
        10        11        33        34     9      180.000000       -0.195070         4    ;  uncertainty k = 0.150407
        10        11        33        35     9        0.000000       -0.556685         1    ;  uncertainty k = 0.641512
        10        11        33        35     9      180.000000       -2.127823         2    ;  uncertainty k = 0.599046
        10        11        33        35     9        0.000000        0.863808         3    ;  uncertainty k = 0.110663
        10        11        33        35     9      180.000000       -0.195070         4    ;  uncertainty k = 0.150407
        10        11        33        36     9        0.000000       -0.556685         1    ;  uncertainty k = 0.641512
        10        11        33        36     9      180.000000       -2.127823         2    ;  uncertainty k = 0.599046
        10        11        33        36     9        0.000000        0.863808         3    ;  uncertainty k = 0.110663
        10        11        33        36     9      180.000000       -0.195070         4    ;  uncertainty k = 0.150407
        11        12        15        16     9        0.000000       -1.227470         1    ;  uncertainty k = 1.336718
        11        12        15        16     9      180.000000       -0.519201         2    ;  uncertainty k = 0.502550
        11        12        15        16     9        0.000000        0.430575         3    ;  uncertainty k = 0.248116
        11        12        15        16     9      180.000000       -0.079530         4    ;  uncertainty k = 0.225505
        11        12        15        19     9        0.000000       -2.967127         1    ;  uncertainty k = 1.017522
        11        12        15        19     9      180.000000       -1.353011         2    ;  uncertainty k = 1.012391
        11        12        15        19     9        0.000000        1.196201         3    ;  uncertainty k = 0.507676
        11        12        15        19     9      180.000000        0.003211         4    ;  uncertainty k = 0.229286
        12        11        29        30     9        0.000000       -0.810618         1    ;  uncertainty k = 0.476463
        12        11        29        30     9      180.000000       -0.740441         2    ;  uncertainty k = 0.208398
        12        11        29        30     9        0.000000        0.585176         3    ;  uncertainty k = 0.093112
        12        11        29        30     9      180.000000       -0.179618         4    ;  uncertainty k = 0.029902
        12        11        29        31     9        0.000000       -0.810618         1    ;  uncertainty k = 0.476463
        12        11        29        31     9      180.000000       -0.740441         2    ;  uncertainty k = 0.208398
        12        11        29        31     9        0.000000        0.585176         3    ;  uncertainty k = 0.093112
        12        11        29        31     9      180.000000       -0.179618         4    ;  uncertainty k = 0.029902
        12        11        29        32     9        0.000000       -0.810618         1    ;  uncertainty k = 0.476463
        12        11        29        32     9      180.000000       -0.740441         2    ;  uncertainty k = 0.208398
        12        11        29        32     9        0.000000        0.585176         3    ;  uncertainty k = 0.093112
        12        11        29        32     9      180.000000       -0.179618         4    ;  uncertainty k = 0.029902
        12        11        33        34     9        0.000000       -0.810618         1    ;  uncertainty k = 0.476463
        12        11        33        34     9      180.000000       -0.740441         2    ;  uncertainty k = 0.208398
        12        11        33        34     9        0.000000        0.585176         3    ;  uncertainty k = 0.093112
        12        11        33        34     9      180.000000       -0.179618         4    ;  uncertainty k = 0.029902
        12        11        33        35     9        0.000000       -0.810618         1    ;  uncertainty k = 0.476463
        12        11        33        35     9      180.000000       -0.740441         2    ;  uncertainty k = 0.208398
        12        11        33        35     9        0.000000        0.585176         3    ;  uncertainty k = 0.093112
        12        11        33        35     9      180.000000       -0.179618         4    ;  uncertainty k = 0.029902
        12        11        33        36     9        0.000000       -0.810618         1    ;  uncertainty k = 0.476463
        12        11        33        36     9      180.000000       -0.740441         2    ;  uncertainty k = 0.208398
        12        11        33        36     9        0.000000        0.585176         3    ;  uncertainty k = 0.093112
        12        11        33        36     9      180.000000       -0.179618         4    ;  uncertainty k = 0.029902
        12        15        16        17     9        0.000000       -3.059765         1    ;  uncertainty k = 1.271717
        12        15        16        17     9      180.000000        2.899367         2    ;  uncertainty k = 0.253797
        12        15        16        17     9        0.000000        0.861284         3    ;  uncertainty k = 0.088703
        12        15        16        17     9      180.000000        0.588983         4    ;  uncertainty k = 0.336702
        12        15        16        28     9        0.000000       -0.578176         1    ;  uncertainty k = 2.043552
        12        15        16        28     9      180.000000        3.926505         2    ;  uncertainty k = 1.077279
        12        15        16        28     9        0.000000        0.162758         3    ;  uncertainty k = 0.382276
        12        15        16        28     9      180.000000        0.059578         4    ;  uncertainty k = 0.336537
        12        15        19        18     9        0.000000       -0.711280         1    ;  uncertainty k = 0.362004
        12        15        19        18     9      180.000000        1.464463         2    ;  uncertainty k = 0.670584
        12        15        19        18     9        0.000000        0.366153         3    ;  uncertainty k = 0.241968
        12        15        19        18     9      180.000000        0.275500         4    ;  uncertainty k = 0.144985
        12        15        19        20     9        0.000000        1.015325         1    ;  uncertainty k = 3.215701
        12        15        19        20     9      180.000000       -0.443367         2    ;  uncertainty k = 0.881693
        12        15        19        20     9        0.000000        0.405941         3    ;  uncertainty k = 0.481446
        12        15        19        20     9      180.000000        0.074907         4    ;  uncertainty k = 0.078692
        13        12        11        29     9        0.000000       -0.868529         1    ;  uncertainty k = 0.359708
        13        12        11        29     9      180.000000        0.339049         2    ;  uncertainty k = 0.271426
        13        12        11        29     9        0.000000        0.030221         3    ;  uncertainty k = 0.169820
        13        12        11        29     9      180.000000       -0.198172         4    ;  uncertainty k = 0.102797
        13        12        11        33     9        0.000000       -0.868529         1    ;  uncertainty k = 0.359708
        13        12        11        33     9      180.000000        0.339049         2    ;  uncertainty k = 0.271426
        13        12        11        33     9        0.000000        0.030221         3    ;  uncertainty k = 0.169820
        13        12        11        33     9      180.000000       -0.198172         4    ;  uncertainty k = 0.102797
        13        12        15        16     9        0.000000        0.636510         1    ;  uncertainty k = 0.448444
        13        12        15        16     9      180.000000       -1.081463         2    ;  uncertainty k = 0.434149
        13        12        15        16     9        0.000000        0.083880         3    ;  uncertainty k = 0.203876
        13        12        15        16     9      180.000000       -0.053705         4    ;  uncertainty k = 0.096167
        13        12        15        19     9        0.000000       -1.018241         1    ;  uncertainty k = 0.663995
        13        12        15        19     9      180.000000       -0.204909         2    ;  uncertainty k = 0.431336
        13        12        15        19     9        0.000000        0.529790         3    ;  uncertainty k = 0.232599
        13        12        15        19     9      180.000000       -0.287877         4    ;  uncertainty k = 0.131178
        14        12        11        29     9        0.000000       -0.868529         1    ;  uncertainty k = 0.359708
        14        12        11        29     9      180.000000        0.339049         2    ;  uncertainty k = 0.271426
        14        12        11        29     9        0.000000        0.030221         3    ;  uncertainty k = 0.169820
        14        12        11        29     9      180.000000       -0.198172         4    ;  uncertainty k = 0.102797
        14        12        11        33     9        0.000000       -0.868529         1    ;  uncertainty k = 0.359708
        14        12        11        33     9      180.000000        0.339049         2    ;  uncertainty k = 0.271426
        14        12        11        33     9        0.000000        0.030221         3    ;  uncertainty k = 0.169820
        14        12        11        33     9      180.000000       -0.198172         4    ;  uncertainty k = 0.102797
        14        12        15        16     9        0.000000        0.636510         1    ;  uncertainty k = 0.448444
        14        12        15        16     9      180.000000       -1.081463         2    ;  uncertainty k = 0.434149
        14        12        15        16     9        0.000000        0.083880         3    ;  uncertainty k = 0.203876
        14        12        15        16     9      180.000000       -0.053705         4    ;  uncertainty k = 0.096167
        14        12        15        19     9        0.000000       -1.018241         1    ;  uncertainty k = 0.663995
        14        12        15        19     9      180.000000       -0.204909         2    ;  uncertainty k = 0.431336
        14        12        15        19     9        0.000000        0.529790         3    ;  uncertainty k = 0.232599
        14        12        15        19     9      180.000000       -0.287877         4    ;  uncertainty k = 0.131178
        15        12        11        29     9        0.000000       -0.391574         1    ;  uncertainty k = 0.965323
        15        12        11        29     9      180.000000       -0.296465         2    ;  uncertainty k = 0.206842
        15        12        11        29     9        0.000000        0.103216         3    ;  uncertainty k = 0.255671
        15        12        11        29     9      180.000000       -0.159454         4    ;  uncertainty k = 0.061290
        15        12        11        33     9        0.000000       -0.391574         1    ;  uncertainty k = 0.965323
        15        12        11        33     9      180.000000       -0.296465         2    ;  uncertainty k = 0.206842
        15        12        11        33     9        0.000000        0.103216         3    ;  uncertainty k = 0.255671
        15        12        11        33     9      180.000000       -0.159454         4    ;  uncertainty k = 0.061290
        15        16        17        18     9        0.000000        3.191662         1    ;  uncertainty k = 2.125171
        15        16        17        18     9      180.000000        4.151301         2    ;  uncertainty k = 2.102693
        15        16        17        18     9        0.000000       -0.157709         3    ;  uncertainty k = 0.824724
        15        16        17        18     9      180.000000        0.627552         4    ;  uncertainty k = 0.355726
        15        16        17        21     9        0.000000        4.944165         1    ;  uncertainty k = 2.737510
        15        16        17        21     9      180.000000        3.665170         2    ;  uncertainty k = 2.649926
        15        16        17        21     9        0.000000        1.135025         3    ;  uncertainty k = 0.859899
        15        16        17        21     9      180.000000        0.327844         4    ;  uncertainty k = 0.590903
        15        19        18        17     9        0.000000        1.163622         1    ;  uncertainty k = 2.618146
        15        19        18        17     9      180.000000       15.367147         2    ;  uncertainty k = 0.474170
        15        19        18        17     9        0.000000       -0.705462         3    ;  uncertainty k = 1.012061
        15        19        18        17     9      180.000000       -0.608152         4    ;  uncertainty k = 0.208911
        15        19        18        25     9        0.000000        3.716945         1    ;  uncertainty k = 0.841687
        15        19        18        25     9      180.000000       11.312582         2    ;  uncertainty k = 0.616478
        15        19        18        25     9        0.000000        0.319654         3    ;  uncertainty k = 0.236165
        15        19        18        25     9      180.000000       -0.481276         4    ;  uncertainty k = 0.512109
        16        15        19        18     9        0.000000        1.065782         1    ;  uncertainty k = 0.695317
        16        15        19        18     9      180.000000        2.333759         2    ;  uncertainty k = 0.677556
        16        15        19        18     9        0.000000        0.172984         3    ;  uncertainty k = 0.626536
        16        15        19        18     9      180.000000        0.492047         4    ;  uncertainty k = 0.338744
        16        15        19        20     9        0.000000        1.866127         1    ;  uncertainty k = 2.128713
        16        15        19        20     9      180.000000       -0.782718         2    ;  uncertainty k = 0.772625
        16        15        19        20     9        0.000000        0.060372         3    ;  uncertainty k = 0.477186
        16        15        19        20     9      180.000000        0.018590         4    ;  uncertainty k = 0.240848
        16        17        18        19     9        0.000000       -0.598871         1    ;  uncertainty k = 1.517512
        16        17        18        19     9      180.000000        9.023777         2    ;  uncertainty k = 0.890262
        16        17        18        19     9        0.000000       -1.321226         3    ;  uncertainty k = 1.261849
        16        17        18        19     9      180.000000       -0.043685         4    ;  uncertainty k = 0.510427
        16        17        18        25     9        0.000000       -0.742539         1    ;  uncertainty k = 0.884320
        16        17        18        25     9      180.000000        6.821150         2    ;  uncertainty k = 1.300514
        16        17        18        25     9        0.000000        0.216631         3    ;  uncertainty k = 0.558836
        16        17        18        25     9      180.000000       -0.098970         4    ;  uncertainty k = 0.493923
        16        17        21        22     9        0.000000        0.297431         1    ;  uncertainty k = 0.338022
        16        17        21        22     9      180.000000        0.087168         2    ;  uncertainty k = 0.381934
        16        17        21        22     9        0.000000        0.347193         3    ;  uncertainty k = 0.232215
        16        17        21        22     9      180.000000        0.291096         4    ;  uncertainty k = 0.074538
        16        17        21        23     9        0.000000        0.297431         1    ;  uncertainty k = 0.338022
        16        17        21        23     9      180.000000        0.087168         2    ;  uncertainty k = 0.381934
        16        17        21        23     9        0.000000        0.347193         3    ;  uncertainty k = 0.232215
        16        17        21        23     9      180.000000        0.291096         4    ;  uncertainty k = 0.074538
        16        17        21        24     9        0.000000        0.297431         1    ;  uncertainty k = 0.338022
        16        17        21        24     9      180.000000        0.087168         2    ;  uncertainty k = 0.381934
        16        17        21        24     9        0.000000        0.347193         3    ;  uncertainty k = 0.232215
        16        17        21        24     9      180.000000        0.291096         4    ;  uncertainty k = 0.074538
        17        16        15        19     9        0.000000       -0.742551         1    ;  uncertainty k = 2.401516
        17        16        15        19     9      180.000000        6.961939         2    ;  uncertainty k = 1.236199
        17        16        15        19     9        0.000000        0.622011         3    ;  uncertainty k = 0.579666
        17        16        15        19     9      180.000000        0.292432         4    ;  uncertainty k = 0.846254
        17        18        19        20     9        0.000000        4.051322         1    ;  uncertainty k = 3.391115
        17        18        19        20     9      180.000000       10.697180         2    ;  uncertainty k = 0.526601
        17        18        19        20     9        0.000000        1.093668         3    ;  uncertainty k = 0.752546
        17        18        19        20     9      180.000000       -0.389374         4    ;  uncertainty k = 0.265720
        17        18        25        26     9        0.000000        8.080941         1    ;  uncertainty k = 2.061712
        17        18        25        26     9      180.000000        9.353073         2    ;  uncertainty k = 0.455751
        17        18        25        26     9        0.000000        0.960301         3    ;  uncertainty k = 0.478476
        17        18        25        26     9      180.000000       -0.922267         4    ;  uncertainty k = 0.215681
        17        18        25        27     9        0.000000        8.080941         1    ;  uncertainty k = 2.061712
        17        18        25        27     9      180.000000        9.353073         2    ;  uncertainty k = 0.455751
        17        18        25        27     9        0.000000        0.960301         3    ;  uncertainty k = 0.478476
        17        18        25        27     9      180.000000       -0.922267         4    ;  uncertainty k = 0.215681
        18        17        16        28     9        0.000000       -0.225774         1    ;  uncertainty k = 3.237560
        18        17        16        28     9      180.000000        7.660703         2    ;  uncertainty k = 0.931236
        18        17        16        28     9        0.000000        0.373526         3    ;  uncertainty k = 0.816132
        18        17        16        28     9      180.000000        0.053274         4    ;  uncertainty k = 0.298389
        18        17        21        22     9        0.000000       -0.260671         1    ;  uncertainty k = 0.510831
        18        17        21        22     9      180.000000       -1.123799         2    ;  uncertainty k = 0.505443
        18        17        21        22     9        0.000000        0.381297         3    ;  uncertainty k = 0.163929
        18        17        21        22     9      180.000000        0.194836         4    ;  uncertainty k = 0.041789
        18        17        21        23     9        0.000000       -0.260671         1    ;  uncertainty k = 0.510831
        18        17        21        23     9      180.000000       -1.123799         2    ;  uncertainty k = 0.505443
        18        17        21        23     9        0.000000        0.381297         3    ;  uncertainty k = 0.163929
        18        17        21        23     9      180.000000        0.194836         4    ;  uncertainty k = 0.041789
        18        17        21        24     9        0.000000       -0.260671         1    ;  uncertainty k = 0.510831
        18        17        21        24     9      180.000000       -1.123799         2    ;  uncertainty k = 0.505443
        18        17        21        24     9        0.000000        0.381297         3    ;  uncertainty k = 0.163929
        18        17        21        24     9      180.000000        0.194836         4    ;  uncertainty k = 0.041789
        19        15        16        28     9        0.000000        0.036892         1    ;  uncertainty k = 2.213196
        19        15        16        28     9      180.000000        4.143283         2    ;  uncertainty k = 1.302862
        19        15        16        28     9        0.000000        0.406213         3    ;  uncertainty k = 0.205269
        19        15        16        28     9      180.000000        0.443458         4    ;  uncertainty k = 0.160952
        19        18        17        21     9        0.000000       -0.380136         1    ;  uncertainty k = 2.913081
        19        18        17        21     9      180.000000        8.267784         2    ;  uncertainty k = 0.403615
        19        18        17        21     9        0.000000        0.435757         3    ;  uncertainty k = 0.320054
        19        18        17        21     9      180.000000       -0.156996         4    ;  uncertainty k = 0.291188
        19        18        25        26     9        0.000000        6.366443         1    ;  uncertainty k = 1.644722
        19        18        25        26     9      180.000000       10.049531         2    ;  uncertainty k = 0.349760
        19        18        25        26     9        0.000000        1.357511         3    ;  uncertainty k = 0.507490
        19        18        25        26     9      180.000000       -0.656591         4    ;  uncertainty k = 0.287459
        19        18        25        27     9        0.000000        6.366443         1    ;  uncertainty k = 1.644722
        19        18        25        27     9      180.000000       10.049531         2    ;  uncertainty k = 0.349760
        19        18        25        27     9        0.000000        1.357511         3    ;  uncertainty k = 0.507490
        19        18        25        27     9      180.000000       -0.656591         4    ;  uncertainty k = 0.287459
        20        19        18        25     9        0.000000        1.886192         1    ;  uncertainty k = 2.633103
        20        19        18        25     9      180.000000        7.784175         2    ;  uncertainty k = 1.209625
        20        19        18        25     9        0.000000        0.956054         3    ;  uncertainty k = 0.197633
        20        19        18        25     9      180.000000       -0.247909         4    ;  uncertainty k = 0.316191
        21        17        16        28     9        0.000000       -0.743118         1    ;  uncertainty k = 3.324160
        21        17        16        28     9      180.000000        8.127734         2    ;  uncertainty k = 0.445128
        21        17        16        28     9        0.000000        0.693460         3    ;  uncertainty k = 0.571372
        21        17        16        28     9      180.000000        0.151177         4    ;  uncertainty k = 0.263311
        21        17        18        25     9        0.000000       -0.067505         1    ;  uncertainty k = 0.784520
        21        17        18        25     9      180.000000        6.890792         2    ;  uncertainty k = 0.817474
        21        17        18        25     9        0.000000        0.975121         3    ;  uncertainty k = 0.584566
        21        17        18        25     9      180.000000       -0.011356         4    ;  uncertainty k = 0.268200
        29        11        33        34     9        0.000000       -1.168308         1    ;  uncertainty k = 0.299692
        29        11        33        34     9      180.000000        0.150758         2    ;  uncertainty k = 0.296599
        29        11        33        34     9        0.000000        0.668939         3    ;  uncertainty k = 0.064920
        29        11        33        34     9      180.000000       -0.104414         4    ;  uncertainty k = 0.091599
        29        11        33        35     9        0.000000       -1.168308         1    ;  uncertainty k = 0.299692
        29        11        33        35     9      180.000000        0.150758         2    ;  uncertainty k = 0.296599
        29        11        33        35     9        0.000000        0.668939         3    ;  uncertainty k = 0.064920
        29        11        33        35     9      180.000000       -0.104414         4    ;  uncertainty k = 0.091599
        29        11        33        36     9        0.000000       -1.168308         1    ;  uncertainty k = 0.299692
        29        11        33        36     9      180.000000        0.150758         2    ;  uncertainty k = 0.296599
        29        11        33        36     9        0.000000        0.668939         3    ;  uncertainty k = 0.064920
        29        11        33        36     9      180.000000       -0.104414         4    ;  uncertainty k = 0.091599
        30        29        11        33     9        0.000000       -1.168308         1    ;  uncertainty k = 0.299692
        30        29        11        33     9      180.000000        0.150758         2    ;  uncertainty k = 0.296599
        30        29        11        33     9        0.000000        0.668939         3    ;  uncertainty k = 0.064920
        30        29        11        33     9      180.000000       -0.104414         4    ;  uncertainty k = 0.091599
        31        29        11        33     9        0.000000       -1.168308         1    ;  uncertainty k = 0.299692
        31        29        11        33     9      180.000000        0.150758         2    ;  uncertainty k = 0.296599
        31        29        11        33     9        0.000000        0.668939         3    ;  uncertainty k = 0.064920
        31        29        11        33     9      180.000000       -0.104414         4    ;  uncertainty k = 0.091599
        32        29        11        33     9        0.000000       -1.168308         1    ;  uncertainty k = 0.299692
        32        29        11        33     9      180.000000        0.150758         2    ;  uncertainty k = 0.296599
        32        29        11        33     9        0.000000        0.668939         3    ;  uncertainty k = 0.064920
        32        29        11        33     9      180.000000       -0.104414         4    ;  uncertainty k = 0.091599
        37        38        39        40     9        0.000000       -2.308567         1    ;  uncertainty k = 0.689351
        37        38        39        40     9      180.000000       -1.072570         2    ;  uncertainty k = 0.244381
        37        38        39        40     9        0.000000        1.942537         3    ;  uncertainty k = 0.155330
        37        38        39        40     9      180.000000       -0.358862         4    ;  uncertainty k = 0.148620
        37        38        39        44     9        0.000000       -2.308567         1    ;  uncertainty k = 0.689351
        37        38        39        44     9      180.000000       -1.072570         2    ;  uncertainty k = 0.244381
        37        38        39        44     9        0.000000        1.942537         3    ;  uncertainty k = 0.155330
        37        38        39        44     9      180.000000       -0.358862         4    ;  uncertainty k = 0.148620
        37        38        39        48     9        0.000000        0.578662         1    ;  uncertainty k = 0.512587
        37        38        39        48     9      180.000000       -3.133348         2    ;  uncertainty k = 0.110189
        37        38        39        48     9        0.000000        1.083973         3    ;  uncertainty k = 0.195097
        37        38        39        48     9      180.000000        0.073256         4    ;  uncertainty k = 0.125396
        38        39        40        41     9        0.000000       -1.084504         1    ;  uncertainty k = 0.256265
        38        39        40        41     9      180.000000       -1.024632         2    ;  uncertainty k = 0.066406
        38        39        40        41     9        0.000000        0.875892         3    ;  uncertainty k = 0.054521
        38        39        40        41     9      180.000000       -0.343233         4    ;  uncertainty k = 0.051282
        38        39        40        42     9        0.000000       -1.084504         1    ;  uncertainty k = 0.256265
        38        39        40        42     9      180.000000       -1.024632         2    ;  uncertainty k = 0.066406
        38        39        40        42     9        0.000000        0.875892         3    ;  uncertainty k = 0.054521
        38        39        40        42     9      180.000000       -0.343233         4    ;  uncertainty k = 0.051282
        38        39        40        43     9        0.000000       -1.084504         1    ;  uncertainty k = 0.256265
        38        39        40        43     9      180.000000       -1.024632         2    ;  uncertainty k = 0.066406
        38        39        40        43     9        0.000000        0.875892         3    ;  uncertainty k = 0.054521
        38        39        40        43     9      180.000000       -0.343233         4    ;  uncertainty k = 0.051282
        38        39        44        45     9        0.000000       -1.084504         1    ;  uncertainty k = 0.256265
        38        39        44        45     9      180.000000       -1.024632         2    ;  uncertainty k = 0.066406
        38        39        44        45     9        0.000000        0.875892         3    ;  uncertainty k = 0.054521
        38        39        44        45     9      180.000000       -0.343233         4    ;  uncertainty k = 0.051282
        38        39        44        46     9        0.000000       -1.084504         1    ;  uncertainty k = 0.256265
        38        39        44        46     9      180.000000       -1.024632         2    ;  uncertainty k = 0.066406
        38        39        44        46     9        0.000000        0.875892         3    ;  uncertainty k = 0.054521
        38        39        44        46     9      180.000000       -0.343233         4    ;  uncertainty k = 0.051282
        38        39        44        47     9        0.000000       -1.084504         1    ;  uncertainty k = 0.256265
        38        39        44        47     9      180.000000       -1.024632         2    ;  uncertainty k = 0.066406
        38        39        44        47     9        0.000000        0.875892         3    ;  uncertainty k = 0.054521
        38        39        44        47     9      180.000000       -0.343233         4    ;  uncertainty k = 0.051282
        40        39        38        49     9        0.000000       -1.897594         1    ;  uncertainty k = 0.487081
        40        39        38        49     9      180.000000        0.327369         2    ;  uncertainty k = 0.094079
        40        39        38        49     9        0.000000        0.677630         3    ;  uncertainty k = 0.058457
        40        39        38        49     9      180.000000       -0.260714         4    ;  uncertainty k = 0.080428
        40        39        38        50     9        0.000000       -1.897594         1    ;  uncertainty k = 0.487081
        40        39        38        50     9      180.000000        0.327369         2    ;  uncertainty k = 0.094079
        40        39        38        50     9        0.000000        0.677630         3    ;  uncertainty k = 0.058457
        40        39        38        50     9      180.000000       -0.260714         4    ;  uncertainty k = 0.080428
        40        39        44        45     9        0.000000       -1.685506         1    ;  uncertainty k = 0.293111
        40        39        44        45     9      180.000000       -0.151803         2    ;  uncertainty k = 0.128228
        40        39        44        45     9        0.000000        1.116052         3    ;  uncertainty k = 0.018337
        40        39        44        45     9      180.000000       -0.154647         4    ;  uncertainty k = 0.040465
        40        39        44        46     9        0.000000       -1.685506         1    ;  uncertainty k = 0.293111
        40        39        44        46     9      180.000000       -0.151803         2    ;  uncertainty k = 0.128228
        40        39        44        46     9        0.000000        1.116052         3    ;  uncertainty k = 0.018337
        40        39        44        46     9      180.000000       -0.154647         4    ;  uncertainty k = 0.040465
        40        39        44        47     9        0.000000       -1.685506         1    ;  uncertainty k = 0.293111
        40        39        44        47     9      180.000000       -0.151803         2    ;  uncertainty k = 0.128228
        40        39        44        47     9        0.000000        1.116052         3    ;  uncertainty k = 0.018337
        40        39        44        47     9      180.000000       -0.154647         4    ;  uncertainty k = 0.040465
        41        40        39        44     9        0.000000       -1.685506         1    ;  uncertainty k = 0.293111
        41        40        39        44     9      180.000000       -0.151803         2    ;  uncertainty k = 0.128228
        41        40        39        44     9        0.000000        1.116052         3    ;  uncertainty k = 0.018337
        41        40        39        44     9      180.000000       -0.154647         4    ;  uncertainty k = 0.040465
        41        40        39        48     9        0.000000        1.487188         1    ;  uncertainty k = 0.338058
        41        40        39        48     9      180.000000       -1.135999         2    ;  uncertainty k = 0.150545
        41        40        39        48     9        0.000000        0.280852         3    ;  uncertainty k = 0.022280
        41        40        39        48     9      180.000000       -0.011630         4    ;  uncertainty k = 0.061099
        42        40        39        44     9        0.000000       -1.685506         1    ;  uncertainty k = 0.293111
        42        40        39        44     9      180.000000       -0.151803         2    ;  uncertainty k = 0.128228
        42        40        39        44     9        0.000000        1.116052         3    ;  uncertainty k = 0.018337
        42        40        39        44     9      180.000000       -0.154647         4    ;  uncertainty k = 0.040465
        42        40        39        48     9        0.000000        1.487188         1    ;  uncertainty k = 0.338058
        42        40        39        48     9      180.000000       -1.135999         2    ;  uncertainty k = 0.150545
        42        40        39        48     9        0.000000        0.280852         3    ;  uncertainty k = 0.022280
        42        40        39        48     9      180.000000       -0.011630         4    ;  uncertainty k = 0.061099
        43        40        39        44     9        0.000000       -1.685506         1    ;  uncertainty k = 0.293111
        43        40        39        44     9      180.000000       -0.151803         2    ;  uncertainty k = 0.128228
        43        40        39        44     9        0.000000        1.116052         3    ;  uncertainty k = 0.018337
        43        40        39        44     9      180.000000       -0.154647         4    ;  uncertainty k = 0.040465
        43        40        39        48     9        0.000000        1.487188         1    ;  uncertainty k = 0.338058
        43        40        39        48     9      180.000000       -1.135999         2    ;  uncertainty k = 0.150545
        43        40        39        48     9        0.000000        0.280852         3    ;  uncertainty k = 0.022280
        43        40        39        48     9      180.000000       -0.011630         4    ;  uncertainty k = 0.061099
        44        39        38        49     9        0.000000       -1.897594         1    ;  uncertainty k = 0.487081
        44        39        38        49     9      180.000000        0.327369         2    ;  uncertainty k = 0.094079
        44        39        38        49     9        0.000000        0.677630         3    ;  uncertainty k = 0.058457
        44        39        38        49     9      180.000000       -0.260714         4    ;  uncertainty k = 0.080428
        44        39        38        50     9        0.000000       -1.897594         1    ;  uncertainty k = 0.487081
        44        39        38        50     9      180.000000        0.327369         2    ;  uncertainty k = 0.094079
        44        39        38        50     9        0.000000        0.677630         3    ;  uncertainty k = 0.058457
        44        39        38        50     9      180.000000       -0.260714         4    ;  uncertainty k = 0.080428
        45        44        39        48     9        0.000000        1.487188         1    ;  uncertainty k = 0.338058
        45        44        39        48     9      180.000000       -1.135999         2    ;  uncertainty k = 0.150545
        45        44        39        48     9        0.000000        0.280852         3    ;  uncertainty k = 0.022280
        45        44        39        48     9      180.000000       -0.011630         4    ;  uncertainty k = 0.061099
        46        44        39        48     9        0.000000        1.487188         1    ;  uncertainty k = 0.338058
        46        44        39        48     9      180.000000       -1.135999         2    ;  uncertainty k = 0.150545
        46        44        39        48     9        0.000000        0.280852         3    ;  uncertainty k = 0.022280
        46        44        39        48     9      180.000000       -0.011630         4    ;  uncertainty k = 0.061099
        47        44        39        48     9        0.000000        1.487188         1    ;  uncertainty k = 0.338058
        47        44        39        48     9      180.000000       -1.135999         2    ;  uncertainty k = 0.150545
        47        44        39        48     9        0.000000        0.280852         3    ;  uncertainty k = 0.022280
        47        44        39        48     9      180.000000       -0.011630         4    ;  uncertainty k = 0.061099
        48        39        38        49     9        0.000000        0.848366         1    ;  uncertainty k = 0.337780
        48        39        38        49     9      180.000000       -0.519520         2    ;  uncertainty k = 0.189610
        48        39        38        49     9        0.000000       -0.189093         3    ;  uncertainty k = 0.109998
        48        39        38        49     9      180.000000       -0.126398         4    ;  uncertainty k = 0.049455
        48        39        38        50     9        0.000000        0.848366         1    ;  uncertainty k = 0.337780
        48        39        38        50     9      180.000000       -0.519520         2    ;  uncertainty k = 0.189610
        48        39        38        50     9        0.000000       -0.189093         3    ;  uncertainty k = 0.109998
        48        39        38        50     9      180.000000       -0.126398         4    ;  uncertainty k = 0.049455

[ dihedrals ] ; impropers
;       ai        aj        ak        al funct           phase               k        pn
         1         2         8        37     4      180.000000       18.315811         2    ;  uncertainty k = 0.065445
         1         8        37         2     4      180.000000       18.315811         2    ;  uncertainty k = 0.065445
         1        37         2         8     4      180.000000       18.315811         2    ;  uncertainty k = 0.065445
         2         1         3         4     4      180.000000        2.862019         2    ;  uncertainty k = 0.252208
         2         3         4         1     4      180.000000        2.862019         2    ;  uncertainty k = 0.252208
         2         4         1         3     4      180.000000        2.862019         2    ;  uncertainty k = 0.252208
         4         2         5         6     4      180.000000        2.405393         2    ;  uncertainty k = 0.185973
         4         5         6         2     4      180.000000        2.405393         2    ;  uncertainty k = 0.185973
         4         6         2         5     4      180.000000        2.405393         2    ;  uncertainty k = 0.185973
         6         4         7        10     4      180.000000       20.454508         2    ;  uncertainty k = 0.112149
         6         7        10         4     4      180.000000       20.454508         2    ;  uncertainty k = 0.112149
         6        10         4         7     4      180.000000       20.454508         2    ;  uncertainty k = 0.112149
         7         6         8        15     4      180.000000       12.013140         2    ;  uncertainty k = 0.257888
         7         8        15         6     4      180.000000       12.013140         2    ;  uncertainty k = 0.257888
         7        15         6         8     4      180.000000       12.013140         2    ;  uncertainty k = 0.257888
         8         1         7         9     4      180.000000        2.848195         2    ;  uncertainty k = 0.314034
         8         7         9         1     4      180.000000        2.848195         2    ;  uncertainty k = 0.314034
         8         9         1         7     4      180.000000        2.848195         2    ;  uncertainty k = 0.314034
        16        15        17        28     4      180.000000       50.500347         2    ;  uncertainty k = 0.072697
        16        17        28        15     4      180.000000       50.500347         2    ;  uncertainty k = 0.072697
        16        28        15        17     4      180.000000       50.500347         2    ;  uncertainty k = 0.072697
        17        16        18        21     4      180.000000        2.066646         2    ;  uncertainty k = 0.825300
        17        18        21        16     4      180.000000        2.066646         2    ;  uncertainty k = 0.825300
        17        21        16        18     4      180.000000        2.066646         2    ;  uncertainty k = 0.825300
        18        17        19        25     4      180.000000       30.892449         2    ;  uncertainty k = 0.146917
        18        19        25        17     4      180.000000       30.892449         2    ;  uncertainty k = 0.146917
        18        25        17        19     4      180.000000       30.892449         2    ;  uncertainty k = 0.146917
        25        18        26        27     4      180.000000        0.184047         2    ;  uncertainty k = 0.411541
        25        26        27        18     4      180.000000        0.184047         2    ;  uncertainty k = 0.411541
        25        27        18        26     4      180.000000        0.184047         2    ;  uncertainty k = 0.411541

[ pairs ]
;       ai        aj funct
         1         5     1
         1         6     1
         1        15     1
         1        39     1
         1        49     1
         1        50     1
         2         7     1
         2         9     1
         2        10     1
         2        38     1
         3         5     1
         3         6     1
         3         8     1
         3        37     1
         4         8     1
         4        11     1
         4        15     1
         4        37     1
         5         7     1
         5        10     1
         6         9     1
         6        12     1
         6        16     1
         6        19     1
         6        29     1
         6        33     1
         7        11     1
         7        13     1
         7        14     1
         7        17     1
         7        18     1
         7        20     1
         7        28     1
         7        37     1
         8        10     1
         8        12     1
         8        16     1
         8        19     1
         8        38     1
         9        15     1
         9        37     1
        10        13     1
        10        14     1
        10        15     1
        10        30     1
        10        31     1
        10        32     1
        10        34     1
        10        35     1
        10        36     1
        11        16     1
        11        19     1
        12        17     1
        12        18     1
        12        20     1
        12        28     1
        12        30     1
        12        31     1
        12        32     1
        12        34     1
        12        35     1
        12        36     1
        13        16     1
        13        19     1
        13        29     1
        13        33     1
        14        16     1
        14        19     1
        14        29     1
        14        33     1
        15        21     1
        15        25     1
        15        29     1
        15        33     1
        16        20     1
        16        22     1
        16        23     1
        16        24     1
        16        25     1
        17        20     1
        17        26     1
        17        27     1
        18        22     1
        18        23     1
        18        24     1
        18        28     1
        19        21     1
        19        26     1
        19        27     1
        19        28     1
        20        25     1
        21        25     1
        21        28     1
        29        34     1
        29        35     1
        29        36     1
        30        33     1
        31        33     1
        32        33     1
        37        40     1
        37        44     1
        37        48     1
        38        41     1
        38        42     1
        38        43     1
        38        45     1
        38        46     1
        38        47     1
        40        45     1
        40        46     1
        40        47     1
        40        49     1
        40        50     1
        41        44     1
        41        48     1
        42        44     1
        42        48     1
        43        44     1
        43        48     1
        44        49     1
        44        50     1
        45        48     1
        46        48     1
        47        48     1
        48        49     1
        48        50     1
