; ITP file created by ByteFF-joint-25, 2026-03-14 15:25:33.895186

[ atomtypes ]
;name           bonded.type        at.num        mass        charge   ptype           sigma         epsilon
 c0bf                                   6      0.0000       0.00000       A     3.31536e-01     4.13000e-01    ;  uncertainty sigma = 0.000021, epsilon = 0.001852
 c1bf                                   6      0.0000       0.00000       A     3.31523e-01     4.13151e-01    ;  uncertainty sigma = 0.000003, epsilon = 0.000476
 h2bf                                   1      0.0000       0.00000       A     2.62572e-01     6.72616e-02    ;  uncertainty sigma = 0.000013, epsilon = 0.000385
 c3bf                                   6      0.0000       0.00000       A     3.31525e-01     4.13748e-01    ;  uncertainty sigma = 0.000005, epsilon = 0.000953
 h4bf                                   1      0.0000       0.00000       A     2.62556e-01     6.67384e-02    ;  uncertainty sigma = 0.000014, epsilon = 0.000555
 c5bf                                   6      0.0000       0.00000       A     3.31571e-01     4.13098e-01    ;  uncertainty sigma = 0.000024, epsilon = 0.001047
 c6bf                                   6      0.0000       0.00000       A     3.31610e-01     4.12971e-01    ;  uncertainty sigma = 0.000045, epsilon = 0.001601
 c7bf                                   6      0.0000       0.00000       A     3.31513e-01     4.13306e-01    ;  uncertainty sigma = 0.000016, epsilon = 0.000732
 h8bf                                   1      0.0000       0.00000       A     2.62562e-01     6.72559e-02    ;  uncertainty sigma = 0.000034, epsilon = 0.000567
 o9bf                                   8      0.0000       0.00000       A     3.15675e-01     3.03349e-01    ;  uncertainty sigma = 0.000037, epsilon = 0.000709
 c10bf                                  6      0.0000       0.00000       A     3.39754e-01     4.50298e-01    ;  uncertainty sigma = 0.000022, epsilon = 0.001818
 c11bf                                  6      0.0000       0.00000       A     3.39729e-01     4.51261e-01    ;  uncertainty sigma = 0.000015, epsilon = 0.001388
 h12bf                                  1      0.0000       0.00000       A     2.60113e-01     8.69260e-02    ;  uncertainty sigma = 0.000018, epsilon = 0.001362
 h13bf                                  1      0.0000       0.00000       A     2.60113e-01     8.69260e-02    ;  uncertainty sigma = 0.000018, epsilon = 0.001362
 c14bf                                  6      0.0000       0.00000       A     3.39921e-01     4.52116e-01    ;  uncertainty sigma = 0.000044, epsilon = 0.005157
 c15bf                                  6      0.0000       0.00000       A     3.31534e-01     4.13061e-01    ;  uncertainty sigma = 0.000023, epsilon = 0.000770
 n16bf                                  7      0.0000       0.00000       A     3.18159e-01     6.82058e-01    ;  uncertainty sigma = 0.000074, epsilon = 0.006526
 c17bf                                  6      0.0000       0.00000       A     3.31516e-01     4.13029e-01    ;  uncertainty sigma = 0.000046, epsilon = 0.002102
 n18bf                                  7      0.0000       0.00000       A     3.27895e-01     6.51183e-01    ;  uncertainty sigma = 0.000198, epsilon = 0.011723
 h19bf                                  1      0.0000       0.00000       A     1.10796e-01     4.19443e-02    ;  uncertainty sigma = 0.000445, epsilon = 0.001840
 c20bf                                  6      0.0000       0.00000       A     3.39747e-01     4.51374e-01    ;  uncertainty sigma = 0.000011, epsilon = 0.001160
 h21bf                                  1      0.0000       0.00000       A     2.42212e-01     8.67416e-02    ;  uncertainty sigma = 0.000033, epsilon = 0.000677
 h22bf                                  1      0.0000       0.00000       A     2.42212e-01     8.67416e-02    ;  uncertainty sigma = 0.000033, epsilon = 0.000677
 h23bf                                  1      0.0000       0.00000       A     2.42212e-01     8.67416e-02    ;  uncertainty sigma = 0.000033, epsilon = 0.000677
 n24bf                                  7      0.0000       0.00000       A     3.36518e-01     4.71691e-01    ;  uncertainty sigma = 0.000108, epsilon = 0.006012
 h25bf                                  1      0.0000       0.00000       A     1.10696e-01     4.11175e-02    ;  uncertainty sigma = 0.000127, epsilon = 0.001410
 h26bf                                  1      0.0000       0.00000       A     1.10696e-01     4.11175e-02    ;  uncertainty sigma = 0.000127, epsilon = 0.001410
 o27bf                                  8      0.0000       0.00000       A     3.04746e-01     6.12575e-01    ;  uncertainty sigma = 0.000054, epsilon = 0.002454
 c28bf                                  6      0.0000       0.00000       A     3.39769e-01     4.50351e-01    ;  uncertainty sigma = 0.000003, epsilon = 0.001331
 h29bf                                  1      0.0000       0.00000       A     2.60031e-01     8.68009e-02    ;  uncertainty sigma = 0.000006, epsilon = 0.000320
 h30bf                                  1      0.0000       0.00000       A     2.60031e-01     8.68009e-02    ;  uncertainty sigma = 0.000006, epsilon = 0.000320
 h31bf                                  1      0.0000       0.00000       A     2.60031e-01     8.68009e-02    ;  uncertainty sigma = 0.000006, epsilon = 0.000320
 c32bf                                  6      0.0000       0.00000       A     3.39769e-01     4.50351e-01    ;  uncertainty sigma = 0.000003, epsilon = 0.001331
 h33bf                                  1      0.0000       0.00000       A     2.60031e-01     8.68009e-02    ;  uncertainty sigma = 0.000006, epsilon = 0.000320
 h34bf                                  1      0.0000       0.00000       A     2.60031e-01     8.68009e-02    ;  uncertainty sigma = 0.000006, epsilon = 0.000320
 h35bf                                  1      0.0000       0.00000       A     2.60031e-01     8.68009e-02    ;  uncertainty sigma = 0.000006, epsilon = 0.000320
 c36bf                                  6      0.0000       0.00000       A     3.39774e-01     4.50900e-01    ;  uncertainty sigma = 0.000005, epsilon = 0.000754
 h37bf                                  1      0.0000       0.00000       A     2.60040e-01     8.68400e-02    ;  uncertainty sigma = 0.000008, epsilon = 0.000564
 h38bf                                  1      0.0000       0.00000       A     2.60040e-01     8.68400e-02    ;  uncertainty sigma = 0.000008, epsilon = 0.000564
 c39bf                                  6      0.0000       0.00000       A     3.39766e-01     4.50919e-01    ;  uncertainty sigma = 0.000004, epsilon = 0.000786
 h40bf                                  1      0.0000       0.00000       A     2.60028e-01     8.68474e-02    ;  uncertainty sigma = 0.000010, epsilon = 0.000573
 h41bf                                  1      0.0000       0.00000       A     2.60028e-01     8.68474e-02    ;  uncertainty sigma = 0.000010, epsilon = 0.000573
 c42bf                                  6      0.0000       0.00000       A     3.39772e-01     4.50640e-01    ;  uncertainty sigma = 0.000004, epsilon = 0.000350
 h43bf                                  1      0.0000       0.00000       A     2.42210e-01     8.67501e-02    ;  uncertainty sigma = 0.000013, epsilon = 0.000794
 h44bf                                  1      0.0000       0.00000       A     2.42210e-01     8.67501e-02    ;  uncertainty sigma = 0.000013, epsilon = 0.000794
 n45bf                                  7      0.0000       0.00000       A     3.18957e-01     8.98693e-01    ;  uncertainty sigma = 0.000013, epsilon = 0.002229
 c46bf                                  6      0.0000       0.00000       A     3.39772e-01     4.50640e-01    ;  uncertainty sigma = 0.000004, epsilon = 0.000349
 h47bf                                  1      0.0000       0.00000       A     2.42210e-01     8.67503e-02    ;  uncertainty sigma = 0.000013, epsilon = 0.000794
 h48bf                                  1      0.0000       0.00000       A     2.42210e-01     8.67503e-02    ;  uncertainty sigma = 0.000013, epsilon = 0.000794
 c49bf                                  6      0.0000       0.00000       A     3.39766e-01     4.50919e-01    ;  uncertainty sigma = 0.000004, epsilon = 0.000786
 h50bf                                  1      0.0000       0.00000       A     2.60028e-01     8.68474e-02    ;  uncertainty sigma = 0.000010, epsilon = 0.000573
 h51bf                                  1      0.0000       0.00000       A     2.60028e-01     8.68474e-02    ;  uncertainty sigma = 0.000010, epsilon = 0.000573

[ moleculetype ]
;name             nrexcl
 MOL                   3

[ atoms ]
;       nr            type      resi   res      atom      cgnr      charge          mass ; qtot
         1            c0bf         1   UNL        c0         1     0.19467       12.0110 ; qtot    0.195
         2            c1bf         1   UNL        c1         2    -0.15710       12.0110 ; qtot    0.038
         3            h2bf         1   UNL        h2         3     0.13407        1.0080 ; qtot    0.172
         4            c3bf         1   UNL        c3         4    -0.11209       12.0110 ; qtot    0.060
         5            h4bf         1   UNL        h4         5     0.15731        1.0080 ; qtot    0.217
         6            c5bf         1   UNL        c5         6     0.16089       12.0110 ; qtot    0.378
         7            c6bf         1   UNL        c6         7    -0.16888       12.0110 ; qtot    0.209
         8            c7bf         1   UNL        c7         8    -0.16322       12.0110 ; qtot    0.046
         9            h8bf         1   UNL        h8         9     0.14496        1.0080 ; qtot    0.191
        10            o9bf         1   UNL        o9        10    -0.32488       15.9990 ; qtot   -0.134
        11           c10bf         1   UNL       c10        11     0.16563       12.0110 ; qtot    0.031
        12           c11bf         1   UNL       c11        12    -0.09861       12.0110 ; qtot   -0.067
        13           h12bf         1   UNL       h12        13     0.09101        1.0080 ; qtot    0.024
        14           h13bf         1   UNL       h13        14     0.09101        1.0080 ; qtot    0.115
        15           c14bf         1   UNL       c14        15     0.03817       12.0110 ; qtot    0.153
        16           c15bf         1   UNL       c15        16     0.70460       12.0110 ; qtot    0.858
        17           n16bf         1   UNL       n16        17    -0.41729       14.0070 ; qtot    0.440
        18           c17bf         1   UNL       c17        18     0.47248       12.0110 ; qtot    0.913
        19           n18bf         1   UNL       n18        19    -0.37420       14.0070 ; qtot    0.539
        20           h19bf         1   UNL       h19        20     0.35504        1.0080 ; qtot    0.894
        21           c20bf         1   UNL       c20        21     0.07530       12.0110 ; qtot    0.969
        22           h21bf         1   UNL       h21        22     0.09109        1.0080 ; qtot    1.060
        23           h22bf         1   UNL       h22        23     0.09109        1.0080 ; qtot    1.151
        24           h23bf         1   UNL       h23        24     0.09109        1.0080 ; qtot    1.242
        25           n24bf         1   UNL       n24        25    -0.48596       14.0070 ; qtot    0.756
        26           h25bf         1   UNL       h25        26     0.33929        1.0080 ; qtot    1.095
        27           h26bf         1   UNL       h26        27     0.33929        1.0080 ; qtot    1.435
        28           o27bf         1   UNL       o27        28    -0.45182       15.9990 ; qtot    0.983
        29           c28bf         1   UNL       c28        29    -0.10337       12.0110 ; qtot    0.880
        30           h29bf         1   UNL       h29        30     0.05101        1.0080 ; qtot    0.931
        31           h30bf         1   UNL       h30        31     0.05101        1.0080 ; qtot    0.982
        32           h31bf         1   UNL       h31        32     0.05101        1.0080 ; qtot    1.033
        33           c32bf         1   UNL       c32        33    -0.10337       12.0110 ; qtot    0.929
        34           h33bf         1   UNL       h33        34     0.05101        1.0080 ; qtot    0.980
        35           h34bf         1   UNL       h34        35     0.05101        1.0080 ; qtot    1.031
        36           h35bf         1   UNL       h35        36     0.05101        1.0080 ; qtot    1.082
        37           c36bf         1   UNL       c36        37    -0.07520       12.0110 ; qtot    1.007
        38           h37bf         1   UNL       h37        38     0.04309        1.0080 ; qtot    1.050
        39           h38bf         1   UNL       h38        39     0.04309        1.0080 ; qtot    1.093
        40           c39bf         1   UNL       c39        40    -0.09321       12.0110 ; qtot    1.000
        41           h40bf         1   UNL       h40        41     0.04712        1.0080 ; qtot    1.047
        42           h41bf         1   UNL       h41        42     0.04712        1.0080 ; qtot    1.094
        43           c42bf         1   UNL       c42        43     0.21161       12.0110 ; qtot    1.306
        44           h43bf         1   UNL       h43        44     0.04193        1.0080 ; qtot    1.348
        45           h44bf         1   UNL       h44        45     0.04193        1.0080 ; qtot    1.390
        46           n45bf         1   UNL       n45        46    -0.68623       14.0070 ; qtot    0.704
        47           c46bf         1   UNL       c46        47     0.21161       12.0110 ; qtot    0.915
        48           h47bf         1   UNL       h47        48     0.04193        1.0080 ; qtot    0.957
        49           h48bf         1   UNL       h48        49     0.04193        1.0080 ; qtot    0.999
        50           c49bf         1   UNL       c49        50    -0.09321       12.0110 ; qtot    0.906
        51           h50bf         1   UNL       h50        51     0.04712        1.0080 ; qtot    0.953
        52           h51bf         1   UNL       h51        52     0.04711        1.0080 ; qtot    1.000

[ bonds ]
;       ai        aj funct               r               k
         1         2     1        0.141218   339618.962451    ;  uncertainty r = 0.000084, k = 12.565630
         1         8     1        0.140662   336199.773340    ;  uncertainty r = 0.000063, k = 12.536848
         1        46     1        0.138980   337440.749170    ;  uncertainty r = 0.000227, k = 9.592957
         2         3     1        0.108756   337828.223730    ;  uncertainty r = 0.000049, k = 2.855735
         2         4     1        0.138616   380360.279395    ;  uncertainty r = 0.000057, k = 4.406638
         4         5     1        0.108774   336051.326123    ;  uncertainty r = 0.000024, k = 1.835095
         4         6     1        0.140030   361221.543848    ;  uncertainty r = 0.000085, k = 3.880299
         6         7     1        0.139839   328100.296045    ;  uncertainty r = 0.000196, k = 7.292887
         6        10     1        0.136485   304350.094824    ;  uncertainty r = 0.000179, k = 10.908795
         7         8     1        0.139504   348090.566504    ;  uncertainty r = 0.000064, k = 10.096690
         7        15     1        0.150668   206293.532202    ;  uncertainty r = 0.000127, k = 20.449648
         8         9     1        0.108808   338389.912451    ;  uncertainty r = 0.000066, k = 2.789692
        10        11     1        0.145422   203859.641382    ;  uncertainty r = 0.000221, k = 9.275520
        11        12     1        0.152936   192803.911694    ;  uncertainty r = 0.000262, k = 11.274596
        11        29     1        0.152325   205847.654272    ;  uncertainty r = 0.000037, k = 5.592256
        11        33     1        0.152325   205847.654272    ;  uncertainty r = 0.000037, k = 5.592256
        12        13     1        0.109477   309561.503809    ;  uncertainty r = 0.000048, k = 2.448473
        12        14     1        0.109477   309561.503809    ;  uncertainty r = 0.000048, k = 2.448473
        12        15     1        0.153036   191069.431226    ;  uncertainty r = 0.000127, k = 21.514048
        15        16     1        0.153591   171638.959741    ;  uncertainty r = 0.000183, k = 14.425535
        15        19     1        0.149678   231723.219727    ;  uncertainty r = 0.000401, k = 51.856620
        16        17     1        0.142413   302839.344971    ;  uncertainty r = 0.000236, k = 75.996174
        16        28     1        0.120112   608584.455469    ;  uncertainty r = 0.000161, k = 10.569144
        17        18     1        0.135836   286250.770703    ;  uncertainty r = 0.000260, k = 52.766102
        17        21     1        0.146741   261825.572607    ;  uncertainty r = 0.000154, k = 17.700649
        18        19     1        0.133610   531287.609180    ;  uncertainty r = 0.000191, k = 37.526813
        18        25     1        0.133101   320485.564160    ;  uncertainty r = 0.000146, k = 40.823703
        19        20     1        0.101578   423262.955127    ;  uncertainty r = 0.000083, k = 11.557068
        21        22     1        0.109172   309495.286084    ;  uncertainty r = 0.000053, k = 3.597993
        21        23     1        0.109172   309495.286084    ;  uncertainty r = 0.000053, k = 3.597993
        21        24     1        0.109172   309495.286084    ;  uncertainty r = 0.000053, k = 3.597993
        25        26     1        0.101405   421785.684424    ;  uncertainty r = 0.000064, k = 13.590764
        25        27     1        0.101405   421785.735498    ;  uncertainty r = 0.000064, k = 13.590763
        29        30     1        0.109545   310467.177393    ;  uncertainty r = 0.000018, k = 1.787242
        29        31     1        0.109545   310467.177393    ;  uncertainty r = 0.000018, k = 1.787242
        29        32     1        0.109545   310467.177393    ;  uncertainty r = 0.000018, k = 1.787242
        33        34     1        0.109545   310467.177393    ;  uncertainty r = 0.000018, k = 1.787242
        33        35     1        0.109545   310467.177393    ;  uncertainty r = 0.000018, k = 1.787242
        33        36     1        0.109545   310467.177393    ;  uncertainty r = 0.000018, k = 1.787242
        37        38     1        0.109715   306501.545215    ;  uncertainty r = 0.000005, k = 1.702102
        37        39     1        0.109715   306501.545215    ;  uncertainty r = 0.000005, k = 1.702102
        37        40     1        0.153644   214214.019897    ;  uncertainty r = 0.000013, k = 2.741296
        37        50     1        0.153644   214214.019897    ;  uncertainty r = 0.000013, k = 2.741279
        40        41     1        0.109705   308413.636279    ;  uncertainty r = 0.000015, k = 0.919626
        40        42     1        0.109705   308413.636279    ;  uncertainty r = 0.000015, k = 0.919626
        40        43     1        0.153265   212669.739819    ;  uncertainty r = 0.000016, k = 1.653651
        43        44     1        0.109873   305211.972266    ;  uncertainty r = 0.000016, k = 1.944511
        43        45     1        0.109873   305211.972266    ;  uncertainty r = 0.000016, k = 1.944511
        43        46     1        0.145677   249364.612402    ;  uncertainty r = 0.000100, k = 11.050198
        46        47     1        0.145677   249364.612402    ;  uncertainty r = 0.000100, k = 11.050183
        47        48     1        0.109873   305211.972266    ;  uncertainty r = 0.000016, k = 1.944504
        47        49     1        0.109873   305211.972266    ;  uncertainty r = 0.000016, k = 1.944504
        47        50     1        0.153265   212669.714282    ;  uncertainty r = 0.000016, k = 1.653644
        50        51     1        0.109705   308413.636279    ;  uncertainty r = 0.000015, k = 0.919626
        50        52     1        0.109705   308413.636279    ;  uncertainty r = 0.000015, k = 0.919626

[ angles ]
;       ai        aj        ak funct           theta             cth
         1         2         3     1      119.257545      276.060494    ;  uncertainty theta = 0.002530, k = 0.060624
         1         2         4     1      120.156998      525.717085    ;  uncertainty theta = 0.002966, k = 0.135441
         1         8         7     1      122.738243      517.381229    ;  uncertainty theta = 0.006868, k = 0.233982
         1         8         9     1      119.295433      285.854805    ;  uncertainty theta = 0.005203, k = 0.122286
         1        46        43     1      111.314453      419.126627    ;  uncertainty theta = 0.004830, k = 0.142650
         1        46        47     1      111.314453      419.126595    ;  uncertainty theta = 0.004830, k = 0.142650
         2         1         8     1      119.799255      370.498065    ;  uncertainty theta = 0.008652, k = 0.236093
         2         1        46     1      121.607666      435.069348    ;  uncertainty theta = 0.003043, k = 0.307633
         2         4         5     1      121.376297      276.116771    ;  uncertainty theta = 0.002092, k = 0.069630
         2         4         6     1      120.057785      499.502476    ;  uncertainty theta = 0.003904, k = 0.063440
         3         2         4     1      119.492813      291.479226    ;  uncertainty theta = 0.001432, k = 0.113891
         4         6         7     1      120.755844      368.584537    ;  uncertainty theta = 0.003361, k = 0.141045
         4         6        10     1      118.473305      538.373340    ;  uncertainty theta = 0.002643, k = 0.116762
         5         4         6     1      120.068970      275.074314    ;  uncertainty theta = 0.003460, k = 0.140388
         6         7         8     1      121.988121      425.471928    ;  uncertainty theta = 0.003256, k = 0.208641
         6         7        15     1      119.912292      415.038486    ;  uncertainty theta = 0.010339, k = 0.200875
         6        10        11     1      114.486107      452.692060    ;  uncertainty theta = 0.006873, k = 0.087893
         7         6        10     1      123.931717      497.776901    ;  uncertainty theta = 0.003841, k = 0.282642
         7         8         9     1      117.633545      277.597030    ;  uncertainty theta = 0.005595, k = 0.119246
         7        15        12     1      110.332497      541.016111    ;  uncertainty theta = 0.001006, k = 0.155942
         7        15        16     1      108.924255      468.346500    ;  uncertainty theta = 0.004765, k = 0.401721
         7        15        19     1      110.476517      613.032739    ;  uncertainty theta = 0.004444, k = 0.286749
         8         1        46     1      121.402222      463.175044    ;  uncertainty theta = 0.004999, k = 0.292959
         8         7        15     1      118.035179      398.265170    ;  uncertainty theta = 0.005086, k = 0.161910
        10        11        12     1      109.104774      651.855785    ;  uncertainty theta = 0.004859, k = 0.084503
        10        11        29     1      107.605125      619.338362    ;  uncertainty theta = 0.001081, k = 0.064685
        10        11        33     1      107.605125      619.338362    ;  uncertainty theta = 0.001081, k = 0.064685
        11        12        13     1      107.678444      386.201185    ;  uncertainty theta = 0.003165, k = 0.032000
        11        12        14     1      107.678444      386.201185    ;  uncertainty theta = 0.003165, k = 0.032000
        11        12        15     1      109.849632      529.979547    ;  uncertainty theta = 0.007072, k = 0.200584
        11        29        30     1      107.221069      387.594393    ;  uncertainty theta = 0.001065, k = 0.069193
        11        29        31     1      107.221069      387.594393    ;  uncertainty theta = 0.001065, k = 0.069193
        11        29        32     1      107.221069      387.594393    ;  uncertainty theta = 0.001065, k = 0.069193
        11        33        34     1      107.221069      387.594393    ;  uncertainty theta = 0.001065, k = 0.069193
        11        33        35     1      107.221069      387.594393    ;  uncertainty theta = 0.001065, k = 0.069193
        11        33        36     1      107.221069      387.594393    ;  uncertainty theta = 0.001065, k = 0.069193
        12        11        29     1      109.374954      548.046988    ;  uncertainty theta = 0.004356, k = 0.115347
        12        11        33     1      109.374954      548.046988    ;  uncertainty theta = 0.004356, k = 0.115347
        12        15        16     1      107.828445      449.290869    ;  uncertainty theta = 0.006941, k = 0.161968
        12        15        19     1      109.825966      627.363143    ;  uncertainty theta = 0.008023, k = 0.273688
        13        12        14     1      106.986496      321.844700    ;  uncertainty theta = 0.004263, k = 0.066652
        13        12        15     1      106.649498      397.387141    ;  uncertainty theta = 0.003122, k = 0.082021
        14        12        15     1      106.649498      397.387141    ;  uncertainty theta = 0.003122, k = 0.082021
        15        16        17     1      110.167664      536.529944    ;  uncertainty theta = 0.011685, k = 0.712862
        15        16        28     1      125.838699      424.716029    ;  uncertainty theta = 0.006648, k = 0.212134
        15        19        18     1      110.996437      602.155526    ;  uncertainty theta = 0.016348, k = 0.385690
        15        19        20     1      118.104813      280.554770    ;  uncertainty theta = 0.015365, k = 0.123348
        16        15        19     1      103.840210      815.385857    ;  uncertainty theta = 0.012059, k = 0.857326
        16        17        18     1      110.293701      728.609291    ;  uncertainty theta = 0.010426, k = 0.320486
        16        17        21     1      119.398109      397.513773    ;  uncertainty theta = 0.006832, k = 0.281808
        17        16        28     1      125.307961      629.051912    ;  uncertainty theta = 0.008036, k = 0.165829
        17        18        19     1      113.250023      720.106327    ;  uncertainty theta = 0.006756, k = 0.305315
        17        18        25     1      125.598953      549.524885    ;  uncertainty theta = 0.008546, k = 0.324469
        17        21        22     1      107.360855      470.851946    ;  uncertainty theta = 0.002522, k = 0.203983
        17        21        23     1      107.360855      470.851946    ;  uncertainty theta = 0.002522, k = 0.203983
        17        21        24     1      107.360855      470.851946    ;  uncertainty theta = 0.002522, k = 0.203983
        18        17        21     1      118.646042      371.786540    ;  uncertainty theta = 0.007230, k = 0.373049
        18        19        20     1      119.824707      355.581520    ;  uncertainty theta = 0.006083, k = 0.153034
        18        25        26     1      114.903091      371.138312    ;  uncertainty theta = 0.001582, k = 0.210952
        18        25        27     1      114.903091      371.138312    ;  uncertainty theta = 0.001582, k = 0.210952
        19        18        25     1      128.730377      637.313550    ;  uncertainty theta = 0.008927, k = 0.256741
        22        21        23     1      107.634499      325.466948    ;  uncertainty theta = 0.003233, k = 0.098676
        22        21        24     1      107.634499      325.466948    ;  uncertainty theta = 0.003233, k = 0.098676
        23        21        24     1      107.634499      325.466948    ;  uncertainty theta = 0.003233, k = 0.098676
        26        25        27     1      112.323532      263.743275    ;  uncertainty theta = 0.015210, k = 0.362876
        29        11        33     1      110.900230      580.347282    ;  uncertainty theta = 0.002949, k = 0.067890
        30        29        31     1      106.043396      316.610487    ;  uncertainty theta = 0.000878, k = 0.018252
        30        29        32     1      106.043396      316.610487    ;  uncertainty theta = 0.000878, k = 0.018252
        31        29        32     1      106.043396      316.610487    ;  uncertainty theta = 0.000878, k = 0.018252
        34        33        35     1      106.043396      316.610487    ;  uncertainty theta = 0.000878, k = 0.018252
        34        33        36     1      106.043396      316.610487    ;  uncertainty theta = 0.000878, k = 0.018252
        35        33        36     1      106.043396      316.610487    ;  uncertainty theta = 0.000878, k = 0.018252
        37        40        41     1      109.184494      400.987522    ;  uncertainty theta = 0.000913, k = 0.021459
        37        40        42     1      109.184494      400.987522    ;  uncertainty theta = 0.000913, k = 0.021459
        37        40        43     1      109.521103      595.469975    ;  uncertainty theta = 0.001788, k = 0.049465
        37        50        47     1      109.521103      595.469975    ;  uncertainty theta = 0.001788, k = 0.049465
        37        50        51     1      109.184494      400.987522    ;  uncertainty theta = 0.000913, k = 0.021458
        37        50        52     1      109.184494      400.987522    ;  uncertainty theta = 0.000913, k = 0.021458
        38        37        39     1      103.837303      315.019557    ;  uncertainty theta = 0.001868, k = 0.044124
        38        37        40     1      108.961472      401.951899    ;  uncertainty theta = 0.001497, k = 0.029412
        38        37        50     1      108.961472      401.951899    ;  uncertainty theta = 0.001497, k = 0.029412
        39        37        40     1      108.961472      401.951899    ;  uncertainty theta = 0.001497, k = 0.029412
        39        37        50     1      108.961472      401.951899    ;  uncertainty theta = 0.001497, k = 0.029412
        40        37        50     1      109.074814      599.399945    ;  uncertainty theta = 0.001016, k = 0.054800
        40        43        44     1      109.153549      418.535027    ;  uncertainty theta = 0.001065, k = 0.035755
        40        43        45     1      109.153549      418.535027    ;  uncertainty theta = 0.001065, k = 0.035755
        40        43        46     1      109.879074      698.914612    ;  uncertainty theta = 0.002781, k = 0.046880
        41        40        42     1      104.946228      309.478834    ;  uncertainty theta = 0.001559, k = 0.049987
        41        40        43     1      107.968018      400.246275    ;  uncertainty theta = 0.000415, k = 0.018988
        42        40        43     1      107.968018      400.246275    ;  uncertainty theta = 0.000415, k = 0.018988
        43        46        47     1      109.060707      398.526160    ;  uncertainty theta = 0.009729, k = 0.203538
        44        43        45     1      105.047714      325.307532    ;  uncertainty theta = 0.001763, k = 0.043212
        44        43        46     1      107.564987      463.520816    ;  uncertainty theta = 0.001735, k = 0.035838
        45        43        46     1      107.564987      463.520816    ;  uncertainty theta = 0.001735, k = 0.035838
        46        47        48     1      107.564987      463.520816    ;  uncertainty theta = 0.001735, k = 0.035838
        46        47        49     1      107.564987      463.520816    ;  uncertainty theta = 0.001735, k = 0.035838
        46        47        50     1      109.879074      698.914612    ;  uncertainty theta = 0.002781, k = 0.046880
        47        50        51     1      107.968018      400.246307    ;  uncertainty theta = 0.000415, k = 0.018988
        47        50        52     1      107.968018      400.246307    ;  uncertainty theta = 0.000415, k = 0.018988
        48        47        49     1      105.047714      325.307500    ;  uncertainty theta = 0.001763, k = 0.043213
        48        47        50     1      109.153542      418.535027    ;  uncertainty theta = 0.001065, k = 0.035755
        49        47        50     1      109.153542      418.535027    ;  uncertainty theta = 0.001065, k = 0.035755
        51        50        52     1      104.946228      309.478802    ;  uncertainty theta = 0.001558, k = 0.049987

[ dihedrals ] ; propers for gromacs 4.5 or higher, use funct 9
;       ai        aj        ak        al funct           phase               k        pn
         1         2         4         5     9        0.000000        0.145025         1    ;  uncertainty k = 0.244557
         1         2         4         5     9      180.000000        8.766725         2    ;  uncertainty k = 0.349624
         1         2         4         5     9        0.000000        1.297161         3    ;  uncertainty k = 0.365084
         1         2         4         5     9      180.000000        1.805415         4    ;  uncertainty k = 0.222240
         1         2         4         6     9        0.000000       -0.121821         1    ;  uncertainty k = 0.188618
         1         2         4         6     9      180.000000       14.631333         2    ;  uncertainty k = 0.494288
         1         2         4         6     9        0.000000       -0.508675         3    ;  uncertainty k = 0.500373
         1         2         4         6     9      180.000000        0.848138         4    ;  uncertainty k = 0.234085
         1         8         7         6     9        0.000000       -0.259447         1    ;  uncertainty k = 0.199514
         1         8         7         6     9      180.000000       11.583484         2    ;  uncertainty k = 0.389301
         1         8         7         6     9        0.000000       -0.221979         3    ;  uncertainty k = 0.446554
         1         8         7         6     9      180.000000        1.073680         4    ;  uncertainty k = 0.284027
         1         8         7        15     9        0.000000        0.247389         1    ;  uncertainty k = 0.330757
         1         8         7        15     9      180.000000        8.909109         2    ;  uncertainty k = 0.110442
         1         8         7        15     9        0.000000        1.568839         3    ;  uncertainty k = 0.297328
         1         8         7        15     9      180.000000        1.766363         4    ;  uncertainty k = 0.179382
         1        46        43        40     9        0.000000       -1.368622         1    ;  uncertainty k = 0.219952
         1        46        43        40     9      180.000000        0.357169         2    ;  uncertainty k = 0.253606
         1        46        43        40     9        0.000000        0.294085         3    ;  uncertainty k = 0.184012
         1        46        43        40     9      180.000000        0.227187         4    ;  uncertainty k = 0.063747
         1        46        43        44     9        0.000000        0.545345         1    ;  uncertainty k = 0.509054
         1        46        43        44     9      180.000000       -1.436050         2    ;  uncertainty k = 0.216285
         1        46        43        44     9        0.000000        0.381660         3    ;  uncertainty k = 0.132899
         1        46        43        44     9      180.000000        0.207055         4    ;  uncertainty k = 0.101535
         1        46        43        45     9        0.000000        0.545345         1    ;  uncertainty k = 0.509054
         1        46        43        45     9      180.000000       -1.436050         2    ;  uncertainty k = 0.216285
         1        46        43        45     9        0.000000        0.381660         3    ;  uncertainty k = 0.132899
         1        46        43        45     9      180.000000        0.207055         4    ;  uncertainty k = 0.101535
         1        46        47        48     9        0.000000        0.545345         1    ;  uncertainty k = 0.509054
         1        46        47        48     9      180.000000       -1.436050         2    ;  uncertainty k = 0.216285
         1        46        47        48     9        0.000000        0.381660         3    ;  uncertainty k = 0.132899
         1        46        47        48     9      180.000000        0.207055         4    ;  uncertainty k = 0.101535
         1        46        47        49     9        0.000000        0.545345         1    ;  uncertainty k = 0.509054
         1        46        47        49     9      180.000000       -1.436050         2    ;  uncertainty k = 0.216285
         1        46        47        49     9        0.000000        0.381660         3    ;  uncertainty k = 0.132899
         1        46        47        49     9      180.000000        0.207055         4    ;  uncertainty k = 0.101535
         1        46        47        50     9        0.000000       -1.368622         1    ;  uncertainty k = 0.219952
         1        46        47        50     9      180.000000        0.357169         2    ;  uncertainty k = 0.253606
         1        46        47        50     9        0.000000        0.294086         3    ;  uncertainty k = 0.184012
         1        46        47        50     9      180.000000        0.227187         4    ;  uncertainty k = 0.063746
         2         1         8         7     9        0.000000        0.203317         1    ;  uncertainty k = 0.449529
         2         1         8         7     9      180.000000        7.221255         2    ;  uncertainty k = 0.365089
         2         1         8         7     9        0.000000        0.467367         3    ;  uncertainty k = 0.324126
         2         1         8         7     9      180.000000        1.506535         4    ;  uncertainty k = 0.327608
         2         1         8         9     9        0.000000        0.401147         1    ;  uncertainty k = 0.450860
         2         1         8         9     9      180.000000        6.206164         2    ;  uncertainty k = 0.545377
         2         1         8         9     9        0.000000        1.405330         3    ;  uncertainty k = 0.302539
         2         1         8         9     9      180.000000        1.659987         4    ;  uncertainty k = 0.208592
         2         1        46        43     9        0.000000        2.474860         1    ;  uncertainty k = 0.661259
         2         1        46        43     9      180.000000        7.765284         2    ;  uncertainty k = 0.227376
         2         1        46        43     9        0.000000        0.608808         3    ;  uncertainty k = 0.255576
         2         1        46        43     9      180.000000        0.091374         4    ;  uncertainty k = 0.081458
         2         1        46        47     9        0.000000        2.474859         1    ;  uncertainty k = 0.661259
         2         1        46        47     9      180.000000        7.765283         2    ;  uncertainty k = 0.227376
         2         1        46        47     9        0.000000        0.608808         3    ;  uncertainty k = 0.255576
         2         1        46        47     9      180.000000        0.091374         4    ;  uncertainty k = 0.081458
         2         4         6         7     9        0.000000        0.201712         1    ;  uncertainty k = 0.524814
         2         4         6         7     9      180.000000        8.075975         2    ;  uncertainty k = 0.658969
         2         4         6         7     9        0.000000        0.111219         3    ;  uncertainty k = 0.470829
         2         4         6         7     9      180.000000        1.275533         4    ;  uncertainty k = 0.175713
         2         4         6        10     9        0.000000        0.387096         1    ;  uncertainty k = 0.169609
         2         4         6        10     9      180.000000       11.395924         2    ;  uncertainty k = 0.350835
         2         4         6        10     9        0.000000        1.257727         3    ;  uncertainty k = 0.201139
         2         4         6        10     9      180.000000        1.546767         4    ;  uncertainty k = 0.166137
         3         2         1         8     9        0.000000        0.266216         1    ;  uncertainty k = 0.629622
         3         2         1         8     9      180.000000        5.642623         2    ;  uncertainty k = 0.488000
         3         2         1         8     9        0.000000        1.363343         3    ;  uncertainty k = 0.307206
         3         2         1         8     9      180.000000        1.563964         4    ;  uncertainty k = 0.199221
         3         2         1        46     9        0.000000       -0.005642         1    ;  uncertainty k = 0.528935
         3         2         1        46     9      180.000000        7.213484         2    ;  uncertainty k = 0.503974
         3         2         1        46     9        0.000000        0.674882         3    ;  uncertainty k = 0.154417
         3         2         1        46     9      180.000000        1.211528         4    ;  uncertainty k = 0.197759
         3         2         4         5     9        0.000000        0.009639         1    ;  uncertainty k = 0.604569
         3         2         4         5     9      180.000000        7.960042         2    ;  uncertainty k = 0.469861
         3         2         4         5     9        0.000000       -0.415698         3    ;  uncertainty k = 0.387294
         3         2         4         5     9      180.000000        0.169414         4    ;  uncertainty k = 0.174296
         3         2         4         6     9        0.000000        0.291514         1    ;  uncertainty k = 0.254866
         3         2         4         6     9      180.000000        8.795043         2    ;  uncertainty k = 0.336933
         3         2         4         6     9        0.000000        1.374434         3    ;  uncertainty k = 0.365933
         3         2         4         6     9      180.000000        1.722304         4    ;  uncertainty k = 0.181497
         4         2         1         8     9        0.000000       -0.194934         1    ;  uncertainty k = 0.382902
         4         2         1         8     9      180.000000        7.252565         2    ;  uncertainty k = 0.524566
         4         2         1         8     9        0.000000        0.229068         3    ;  uncertainty k = 0.330122
         4         2         1         8     9      180.000000        1.474494         4    ;  uncertainty k = 0.232473
         4         2         1        46     9        0.000000        0.219204         1    ;  uncertainty k = 0.412607
         4         2         1        46     9      180.000000        8.477221         2    ;  uncertainty k = 0.707362
         4         2         1        46     9        0.000000        1.022979         3    ;  uncertainty k = 0.437938
         4         2         1        46     9      180.000000        1.685208         4    ;  uncertainty k = 0.307463
         4         6         7         8     9        0.000000       -0.070224         1    ;  uncertainty k = 0.130437
         4         6         7         8     9      180.000000        7.049587         2    ;  uncertainty k = 0.629041
         4         6         7         8     9        0.000000        0.416727         3    ;  uncertainty k = 0.391560
         4         6         7         8     9      180.000000        1.368925         4    ;  uncertainty k = 0.350320
         4         6         7        15     9        0.000000        0.371647         1    ;  uncertainty k = 0.263464
         4         6         7        15     9      180.000000        5.116220         2    ;  uncertainty k = 0.395783
         4         6         7        15     9        0.000000        1.458054         3    ;  uncertainty k = 0.276932
         4         6         7        15     9      180.000000        1.653451         4    ;  uncertainty k = 0.223346
         4         6        10        11     9        0.000000       -0.121943         1    ;  uncertainty k = 0.828198
         4         6        10        11     9      180.000000        0.919315         2    ;  uncertainty k = 0.581936
         4         6        10        11     9        0.000000        0.856075         3    ;  uncertainty k = 0.183574
         4         6        10        11     9      180.000000        0.265250         4    ;  uncertainty k = 0.186108
         5         4         6         7     9        0.000000        0.331954         1    ;  uncertainty k = 0.507687
         5         4         6         7     9      180.000000        5.807209         2    ;  uncertainty k = 0.547668
         5         4         6         7     9        0.000000        1.283974         3    ;  uncertainty k = 0.208027
         5         4         6         7     9      180.000000        1.377874         4    ;  uncertainty k = 0.147489
         5         4         6        10     9        0.000000       -0.144840         1    ;  uncertainty k = 0.603763
         5         4         6        10     9      180.000000        8.753800         2    ;  uncertainty k = 0.434242
         5         4         6        10     9        0.000000        0.762533         3    ;  uncertainty k = 0.285919
         5         4         6        10     9      180.000000        1.250716         4    ;  uncertainty k = 0.278132
         6         7         8         9     9        0.000000        0.238655         1    ;  uncertainty k = 0.448380
         6         7         8         9     9      180.000000        8.173369         2    ;  uncertainty k = 0.689662
         6         7         8         9     9        0.000000        1.320743         3    ;  uncertainty k = 0.244471
         6         7         8         9     9      180.000000        1.650745         4    ;  uncertainty k = 0.161793
         6         7        15        12     9        0.000000       -0.533622         1    ;  uncertainty k = 1.410549
         6         7        15        12     9      180.000000        0.650567         2    ;  uncertainty k = 0.707648
         6         7        15        12     9        0.000000        0.286751         3    ;  uncertainty k = 0.288728
         6         7        15        12     9      180.000000        0.248043         4    ;  uncertainty k = 0.224741
         6         7        15        16     9        0.000000        2.064715         1    ;  uncertainty k = 2.679809
         6         7        15        16     9      180.000000        0.548206         2    ;  uncertainty k = 1.098898
         6         7        15        16     9        0.000000        0.453209         3    ;  uncertainty k = 0.307216
         6         7        15        16     9      180.000000        0.335219         4    ;  uncertainty k = 0.194274
         6         7        15        19     9        0.000000       -1.835995         1    ;  uncertainty k = 1.632964
         6         7        15        19     9      180.000000        1.369776         2    ;  uncertainty k = 0.401233
         6         7        15        19     9        0.000000        0.614169         3    ;  uncertainty k = 0.459596
         6         7        15        19     9      180.000000        0.010640         4    ;  uncertainty k = 0.177179
         6        10        11        12     9        0.000000        4.470967         1    ;  uncertainty k = 0.554279
         6        10        11        12     9      180.000000       -1.697634         2    ;  uncertainty k = 1.265550
         6        10        11        12     9        0.000000       -0.460185         3    ;  uncertainty k = 0.483317
         6        10        11        12     9      180.000000        0.325229         4    ;  uncertainty k = 0.240905
         6        10        11        29     9        0.000000       -1.345929         1    ;  uncertainty k = 0.507608
         6        10        11        29     9      180.000000        1.134135         2    ;  uncertainty k = 0.715456
         6        10        11        29     9        0.000000        0.433876         3    ;  uncertainty k = 0.218658
         6        10        11        29     9      180.000000        0.167602         4    ;  uncertainty k = 0.182067
         6        10        11        33     9        0.000000       -1.345929         1    ;  uncertainty k = 0.507608
         6        10        11        33     9      180.000000        1.134135         2    ;  uncertainty k = 0.715456
         6        10        11        33     9        0.000000        0.433876         3    ;  uncertainty k = 0.218658
         6        10        11        33     9      180.000000        0.167602         4    ;  uncertainty k = 0.182067
         7         6        10        11     9        0.000000        4.393076         1    ;  uncertainty k = 1.824991
         7         6        10        11     9      180.000000       -1.668517         2    ;  uncertainty k = 1.381248
         7         6        10        11     9        0.000000       -0.440486         3    ;  uncertainty k = 0.689425
         7         6        10        11     9      180.000000        0.638802         4    ;  uncertainty k = 0.279383
         7         8         1        46     9        0.000000        0.569997         1    ;  uncertainty k = 0.345297
         7         8         1        46     9      180.000000        8.675693         2    ;  uncertainty k = 0.476253
         7         8         1        46     9        0.000000        1.145140         3    ;  uncertainty k = 0.168289
         7         8         1        46     9      180.000000        1.595351         4    ;  uncertainty k = 0.279354
         7        15        12        11     9        0.000000        2.399349         1    ;  uncertainty k = 1.968904
         7        15        12        11     9      180.000000       -1.093623         2    ;  uncertainty k = 0.462051
         7        15        12        11     9        0.000000        0.365559         3    ;  uncertainty k = 0.209295
         7        15        12        11     9      180.000000       -0.298591         4    ;  uncertainty k = 0.239717
         7        15        12        13     9        0.000000       -0.142831         1    ;  uncertainty k = 0.116136
         7        15        12        13     9      180.000000        0.059058         2    ;  uncertainty k = 0.468803
         7        15        12        13     9        0.000000        0.447303         3    ;  uncertainty k = 0.218508
         7        15        12        13     9      180.000000       -0.092763         4    ;  uncertainty k = 0.138797
         7        15        12        14     9        0.000000       -0.142831         1    ;  uncertainty k = 0.116136
         7        15        12        14     9      180.000000        0.059058         2    ;  uncertainty k = 0.468803
         7        15        12        14     9        0.000000        0.447303         3    ;  uncertainty k = 0.218508
         7        15        12        14     9      180.000000       -0.092763         4    ;  uncertainty k = 0.138797
         7        15        16        17     9        0.000000       -2.569768         1    ;  uncertainty k = 2.768817
         7        15        16        17     9      180.000000        2.459861         2    ;  uncertainty k = 1.223493
         7        15        16        17     9        0.000000        1.463760         3    ;  uncertainty k = 0.152702
         7        15        16        17     9      180.000000        0.672776         4    ;  uncertainty k = 0.459645
         7        15        16        28     9        0.000000       -0.771808         1    ;  uncertainty k = 2.483819
         7        15        16        28     9      180.000000        3.140336         2    ;  uncertainty k = 0.511691
         7        15        16        28     9        0.000000        0.217330         3    ;  uncertainty k = 0.286863
         7        15        16        28     9      180.000000        0.146045         4    ;  uncertainty k = 0.275585
         7        15        19        18     9        0.000000        0.881599         1    ;  uncertainty k = 1.389009
         7        15        19        18     9      180.000000        0.561484         2    ;  uncertainty k = 0.620237
         7        15        19        18     9        0.000000        0.841649         3    ;  uncertainty k = 0.375769
         7        15        19        18     9      180.000000        0.387870         4    ;  uncertainty k = 0.136924
         7        15        19        20     9        0.000000        0.900204         1    ;  uncertainty k = 2.667176
         7        15        19        20     9      180.000000       -1.097625         2    ;  uncertainty k = 1.276340
         7        15        19        20     9        0.000000        0.531327         3    ;  uncertainty k = 0.517925
         7        15        19        20     9      180.000000       -0.028858         4    ;  uncertainty k = 0.127335
         8         1        46        43     9        0.000000        1.760026         1    ;  uncertainty k = 0.885264
         8         1        46        43     9      180.000000        8.287158         2    ;  uncertainty k = 0.180061
         8         1        46        43     9        0.000000        0.375463         3    ;  uncertainty k = 0.336054
         8         1        46        43     9      180.000000        0.162314         4    ;  uncertainty k = 0.033367
         8         1        46        47     9        0.000000        1.760026         1    ;  uncertainty k = 0.885264
         8         1        46        47     9      180.000000        8.287158         2    ;  uncertainty k = 0.180061
         8         1        46        47     9        0.000000        0.375463         3    ;  uncertainty k = 0.336054
         8         1        46        47     9      180.000000        0.162314         4    ;  uncertainty k = 0.033367
         8         7         6        10     9        0.000000        0.527261         1    ;  uncertainty k = 0.250090
         8         7         6        10     9      180.000000        8.339011         2    ;  uncertainty k = 0.224888
         8         7         6        10     9        0.000000        1.497738         3    ;  uncertainty k = 0.259611
         8         7         6        10     9      180.000000        1.597084         4    ;  uncertainty k = 0.174777
         8         7        15        12     9        0.000000       -0.373672         1    ;  uncertainty k = 0.859301
         8         7        15        12     9      180.000000        0.911971         2    ;  uncertainty k = 0.453504
         8         7        15        12     9        0.000000       -0.359909         3    ;  uncertainty k = 0.414068
         8         7        15        12     9      180.000000        0.164875         4    ;  uncertainty k = 0.173263
         8         7        15        16     9        0.000000        0.361944         1    ;  uncertainty k = 1.545464
         8         7        15        16     9      180.000000        0.278513         2    ;  uncertainty k = 0.791209
         8         7        15        16     9        0.000000        0.106489         3    ;  uncertainty k = 0.151821
         8         7        15        16     9      180.000000        0.270188         4    ;  uncertainty k = 0.163440
         8         7        15        19     9        0.000000       -0.090015         1    ;  uncertainty k = 0.771544
         8         7        15        19     9      180.000000        1.932401         2    ;  uncertainty k = 0.268015
         8         7        15        19     9        0.000000       -0.050572         3    ;  uncertainty k = 0.268193
         8         7        15        19     9      180.000000        0.077862         4    ;  uncertainty k = 0.207499
         9         8         1        46     9        0.000000       -0.070763         1    ;  uncertainty k = 0.468791
         9         8         1        46     9      180.000000        7.637880         2    ;  uncertainty k = 0.500145
         9         8         1        46     9        0.000000        0.699909         3    ;  uncertainty k = 0.191606
         9         8         1        46     9      180.000000        1.298761         4    ;  uncertainty k = 0.146602
         9         8         7        15     9        0.000000       -0.421112         1    ;  uncertainty k = 0.329013
         9         8         7        15     9      180.000000        7.171029         2    ;  uncertainty k = 0.315567
         9         8         7        15     9        0.000000        0.942392         3    ;  uncertainty k = 0.321002
         9         8         7        15     9      180.000000        1.224150         4    ;  uncertainty k = 0.233619
        10         6         7        15     9        0.000000        0.468209         1    ;  uncertainty k = 0.966664
        10         6         7        15     9      180.000000        5.764491         2    ;  uncertainty k = 0.673310
        10         6         7        15     9        0.000000        1.748078         3    ;  uncertainty k = 0.439326
        10         6         7        15     9      180.000000        1.058387         4    ;  uncertainty k = 0.417183
        10        11        12        13     9        0.000000       -1.286357         1    ;  uncertainty k = 0.418982
        10        11        12        13     9      180.000000       -0.843338         2    ;  uncertainty k = 0.564486
        10        11        12        13     9        0.000000        0.398057         3    ;  uncertainty k = 0.233267
        10        11        12        13     9      180.000000       -0.189590         4    ;  uncertainty k = 0.165011
        10        11        12        14     9        0.000000       -1.286357         1    ;  uncertainty k = 0.418982
        10        11        12        14     9      180.000000       -0.843338         2    ;  uncertainty k = 0.564486
        10        11        12        14     9        0.000000        0.398057         3    ;  uncertainty k = 0.233267
        10        11        12        14     9      180.000000       -0.189590         4    ;  uncertainty k = 0.165011
        10        11        12        15     9        0.000000        7.523561         1    ;  uncertainty k = 0.680849
        10        11        12        15     9      180.000000       -4.246752         2    ;  uncertainty k = 2.003334
        10        11        12        15     9        0.000000       -0.276242         3    ;  uncertainty k = 0.556536
        10        11        12        15     9      180.000000       -0.018646         4    ;  uncertainty k = 0.400223
        10        11        29        30     9        0.000000       -0.556685         1    ;  uncertainty k = 0.641512
        10        11        29        30     9      180.000000       -2.127823         2    ;  uncertainty k = 0.599046
        10        11        29        30     9        0.000000        0.863808         3    ;  uncertainty k = 0.110663
        10        11        29        30     9      180.000000       -0.195070         4    ;  uncertainty k = 0.150407
        10        11        29        31     9        0.000000       -0.556685         1    ;  uncertainty k = 0.641512
        10        11        29        31     9      180.000000       -2.127823         2    ;  uncertainty k = 0.599046
        10        11        29        31     9        0.000000        0.863808         3    ;  uncertainty k = 0.110663
        10        11        29        31     9      180.000000       -0.195070         4    ;  uncertainty k = 0.150407
        10        11        29        32     9        0.000000       -0.556685         1    ;  uncertainty k = 0.641512
        10        11        29        32     9      180.000000       -2.127823         2    ;  uncertainty k = 0.599046
        10        11        29        32     9        0.000000        0.863808         3    ;  uncertainty k = 0.110663
        10        11        29        32     9      180.000000       -0.195070         4    ;  uncertainty k = 0.150407
        10        11        33        34     9        0.000000       -0.556685         1    ;  uncertainty k = 0.641512
        10        11        33        34     9      180.000000       -2.127823         2    ;  uncertainty k = 0.599046
        10        11        33        34     9        0.000000        0.863808         3    ;  uncertainty k = 0.110663
        10        11        33        34     9      180.000000       -0.195070         4    ;  uncertainty k = 0.150407
        10        11        33        35     9        0.000000       -0.556685         1    ;  uncertainty k = 0.641512
        10        11        33        35     9      180.000000       -2.127823         2    ;  uncertainty k = 0.599046
        10        11        33        35     9        0.000000        0.863808         3    ;  uncertainty k = 0.110663
        10        11        33        35     9      180.000000       -0.195070         4    ;  uncertainty k = 0.150407
        10        11        33        36     9        0.000000       -0.556685         1    ;  uncertainty k = 0.641512
        10        11        33        36     9      180.000000       -2.127823         2    ;  uncertainty k = 0.599046
        10        11        33        36     9        0.000000        0.863808         3    ;  uncertainty k = 0.110663
        10        11        33        36     9      180.000000       -0.195070         4    ;  uncertainty k = 0.150407
        11        12        15        16     9        0.000000       -1.220957         1    ;  uncertainty k = 1.338729
        11        12        15        16     9      180.000000       -0.522166         2    ;  uncertainty k = 0.490949
        11        12        15        16     9        0.000000        0.431534         3    ;  uncertainty k = 0.246525
        11        12        15        16     9      180.000000       -0.079949         4    ;  uncertainty k = 0.227197
        11        12        15        19     9        0.000000       -2.977127         1    ;  uncertainty k = 1.022816
        11        12        15        19     9      180.000000       -1.351035         2    ;  uncertainty k = 1.014985
        11        12        15        19     9        0.000000        1.195206         3    ;  uncertainty k = 0.510498
        11        12        15        19     9      180.000000        0.003556         4    ;  uncertainty k = 0.227133
        12        11        29        30     9        0.000000       -0.810618         1    ;  uncertainty k = 0.476463
        12        11        29        30     9      180.000000       -0.740441         2    ;  uncertainty k = 0.208398
        12        11        29        30     9        0.000000        0.585176         3    ;  uncertainty k = 0.093112
        12        11        29        30     9      180.000000       -0.179618         4    ;  uncertainty k = 0.029902
        12        11        29        31     9        0.000000       -0.810618         1    ;  uncertainty k = 0.476463
        12        11        29        31     9      180.000000       -0.740441         2    ;  uncertainty k = 0.208398
        12        11        29        31     9        0.000000        0.585176         3    ;  uncertainty k = 0.093112
        12        11        29        31     9      180.000000       -0.179618         4    ;  uncertainty k = 0.029902
        12        11        29        32     9        0.000000       -0.810618         1    ;  uncertainty k = 0.476463
        12        11        29        32     9      180.000000       -0.740441         2    ;  uncertainty k = 0.208398
        12        11        29        32     9        0.000000        0.585176         3    ;  uncertainty k = 0.093112
        12        11        29        32     9      180.000000       -0.179618         4    ;  uncertainty k = 0.029902
        12        11        33        34     9        0.000000       -0.810618         1    ;  uncertainty k = 0.476463
        12        11        33        34     9      180.000000       -0.740441         2    ;  uncertainty k = 0.208398
        12        11        33        34     9        0.000000        0.585176         3    ;  uncertainty k = 0.093112
        12        11        33        34     9      180.000000       -0.179618         4    ;  uncertainty k = 0.029902
        12        11        33        35     9        0.000000       -0.810618         1    ;  uncertainty k = 0.476463
        12        11        33        35     9      180.000000       -0.740441         2    ;  uncertainty k = 0.208398
        12        11        33        35     9        0.000000        0.585176         3    ;  uncertainty k = 0.093112
        12        11        33        35     9      180.000000       -0.179618         4    ;  uncertainty k = 0.029902
        12        11        33        36     9        0.000000       -0.810618         1    ;  uncertainty k = 0.476463
        12        11        33        36     9      180.000000       -0.740441         2    ;  uncertainty k = 0.208398
        12        11        33        36     9        0.000000        0.585176         3    ;  uncertainty k = 0.093112
        12        11        33        36     9      180.000000       -0.179618         4    ;  uncertainty k = 0.029902
        12        15        16        17     9        0.000000       -3.067809         1    ;  uncertainty k = 1.271164
        12        15        16        17     9      180.000000        2.887798         2    ;  uncertainty k = 0.264391
        12        15        16        17     9        0.000000        0.862760         3    ;  uncertainty k = 0.089927
        12        15        16        17     9      180.000000        0.587226         4    ;  uncertainty k = 0.337452
        12        15        16        28     9        0.000000       -0.579796         1    ;  uncertainty k = 2.055155
        12        15        16        28     9      180.000000        3.915812         2    ;  uncertainty k = 1.075445
        12        15        16        28     9        0.000000        0.163855         3    ;  uncertainty k = 0.380441
        12        15        16        28     9      180.000000        0.058559         4    ;  uncertainty k = 0.332346
        12        15        19        18     9        0.000000       -0.717234         1    ;  uncertainty k = 0.358717
        12        15        19        18     9      180.000000        1.463519         2    ;  uncertainty k = 0.672101
        12        15        19        18     9        0.000000        0.365047         3    ;  uncertainty k = 0.243983
        12        15        19        18     9      180.000000        0.278446         4    ;  uncertainty k = 0.146948
        12        15        19        20     9        0.000000        1.019397         1    ;  uncertainty k = 3.216081
        12        15        19        20     9      180.000000       -0.452548         2    ;  uncertainty k = 0.878686
        12        15        19        20     9        0.000000        0.404849         3    ;  uncertainty k = 0.482436
        12        15        19        20     9      180.000000        0.076242         4    ;  uncertainty k = 0.078548
        13        12        11        29     9        0.000000       -0.868529         1    ;  uncertainty k = 0.359708
        13        12        11        29     9      180.000000        0.339049         2    ;  uncertainty k = 0.271426
        13        12        11        29     9        0.000000        0.030221         3    ;  uncertainty k = 0.169820
        13        12        11        29     9      180.000000       -0.198172         4    ;  uncertainty k = 0.102797
        13        12        11        33     9        0.000000       -0.868529         1    ;  uncertainty k = 0.359708
        13        12        11        33     9      180.000000        0.339049         2    ;  uncertainty k = 0.271426
        13        12        11        33     9        0.000000        0.030221         3    ;  uncertainty k = 0.169820
        13        12        11        33     9      180.000000       -0.198172         4    ;  uncertainty k = 0.102797
        13        12        15        16     9        0.000000        0.640696         1    ;  uncertainty k = 0.454366
        13        12        15        16     9      180.000000       -1.087739         2    ;  uncertainty k = 0.433631
        13        12        15        16     9        0.000000        0.083838         3    ;  uncertainty k = 0.202641
        13        12        15        16     9      180.000000       -0.054053         4    ;  uncertainty k = 0.094827
        13        12        15        19     9        0.000000       -1.018411         1    ;  uncertainty k = 0.673042
        13        12        15        19     9      180.000000       -0.205971         2    ;  uncertainty k = 0.429326
        13        12        15        19     9        0.000000        0.531976         3    ;  uncertainty k = 0.231077
        13        12        15        19     9      180.000000       -0.287800         4    ;  uncertainty k = 0.130598
        14        12        11        29     9        0.000000       -0.868529         1    ;  uncertainty k = 0.359708
        14        12        11        29     9      180.000000        0.339049         2    ;  uncertainty k = 0.271426
        14        12        11        29     9        0.000000        0.030221         3    ;  uncertainty k = 0.169820
        14        12        11        29     9      180.000000       -0.198172         4    ;  uncertainty k = 0.102797
        14        12        11        33     9        0.000000       -0.868529         1    ;  uncertainty k = 0.359708
        14        12        11        33     9      180.000000        0.339049         2    ;  uncertainty k = 0.271426
        14        12        11        33     9        0.000000        0.030221         3    ;  uncertainty k = 0.169820
        14        12        11        33     9      180.000000       -0.198172         4    ;  uncertainty k = 0.102797
        14        12        15        16     9        0.000000        0.640696         1    ;  uncertainty k = 0.454366
        14        12        15        16     9      180.000000       -1.087739         2    ;  uncertainty k = 0.433631
        14        12        15        16     9        0.000000        0.083838         3    ;  uncertainty k = 0.202641
        14        12        15        16     9      180.000000       -0.054053         4    ;  uncertainty k = 0.094827
        14        12        15        19     9        0.000000       -1.018411         1    ;  uncertainty k = 0.673042
        14        12        15        19     9      180.000000       -0.205971         2    ;  uncertainty k = 0.429326
        14        12        15        19     9        0.000000        0.531976         3    ;  uncertainty k = 0.231077
        14        12        15        19     9      180.000000       -0.287800         4    ;  uncertainty k = 0.130598
        15        12        11        29     9        0.000000       -0.390241         1    ;  uncertainty k = 0.963103
        15        12        11        29     9      180.000000       -0.295050         2    ;  uncertainty k = 0.216477
        15        12        11        29     9        0.000000        0.102936         3    ;  uncertainty k = 0.256553
        15        12        11        29     9      180.000000       -0.157588         4    ;  uncertainty k = 0.063460
        15        12        11        33     9        0.000000       -0.390241         1    ;  uncertainty k = 0.963103
        15        12        11        33     9      180.000000       -0.295050         2    ;  uncertainty k = 0.216477
        15        12        11        33     9        0.000000        0.102936         3    ;  uncertainty k = 0.256553
        15        12        11        33     9      180.000000       -0.157588         4    ;  uncertainty k = 0.063460
        15        16        17        18     9        0.000000        3.169204         1    ;  uncertainty k = 2.113065
        15        16        17        18     9      180.000000        4.160099         2    ;  uncertainty k = 2.109617
        15        16        17        18     9        0.000000       -0.156148         3    ;  uncertainty k = 0.826127
        15        16        17        18     9      180.000000        0.627441         4    ;  uncertainty k = 0.356704
        15        16        17        21     9        0.000000        4.940913         1    ;  uncertainty k = 2.770613
        15        16        17        21     9      180.000000        3.682063         2    ;  uncertainty k = 2.649472
        15        16        17        21     9        0.000000        1.130701         3    ;  uncertainty k = 0.860258
        15        16        17        21     9      180.000000        0.324452         4    ;  uncertainty k = 0.587440
        15        19        18        17     9        0.000000        1.166484         1    ;  uncertainty k = 2.616081
        15        19        18        17     9      180.000000       15.358861         2    ;  uncertainty k = 0.484240
        15        19        18        17     9        0.000000       -0.701867         3    ;  uncertainty k = 1.009575
        15        19        18        17     9      180.000000       -0.601314         4    ;  uncertainty k = 0.202954
        15        19        18        25     9        0.000000        3.713510         1    ;  uncertainty k = 0.866055
        15        19        18        25     9      180.000000       11.330912         2    ;  uncertainty k = 0.614038
        15        19        18        25     9        0.000000        0.317638         3    ;  uncertainty k = 0.234649
        15        19        18        25     9      180.000000       -0.481409         4    ;  uncertainty k = 0.510278
        16        15        19        18     9        0.000000        1.073365         1    ;  uncertainty k = 0.682312
        16        15        19        18     9      180.000000        2.338556         2    ;  uncertainty k = 0.689154
        16        15        19        18     9        0.000000        0.176286         3    ;  uncertainty k = 0.630207
        16        15        19        18     9      180.000000        0.490091         4    ;  uncertainty k = 0.343721
        16        15        19        20     9        0.000000        1.879209         1    ;  uncertainty k = 2.131631
        16        15        19        20     9      180.000000       -0.799744         2    ;  uncertainty k = 0.762699
        16        15        19        20     9        0.000000        0.061724         3    ;  uncertainty k = 0.476465
        16        15        19        20     9      180.000000        0.022128         4    ;  uncertainty k = 0.240687
        16        17        18        19     9        0.000000       -0.598871         1    ;  uncertainty k = 1.517512
        16        17        18        19     9      180.000000        9.023777         2    ;  uncertainty k = 0.890262
        16        17        18        19     9        0.000000       -1.321226         3    ;  uncertainty k = 1.261849
        16        17        18        19     9      180.000000       -0.043685         4    ;  uncertainty k = 0.510427
        16        17        18        25     9        0.000000       -0.742539         1    ;  uncertainty k = 0.884320
        16        17        18        25     9      180.000000        6.821150         2    ;  uncertainty k = 1.300514
        16        17        18        25     9        0.000000        0.216631         3    ;  uncertainty k = 0.558836
        16        17        18        25     9      180.000000       -0.098970         4    ;  uncertainty k = 0.493923
        16        17        21        22     9        0.000000        0.297431         1    ;  uncertainty k = 0.338022
        16        17        21        22     9      180.000000        0.087168         2    ;  uncertainty k = 0.381934
        16        17        21        22     9        0.000000        0.347193         3    ;  uncertainty k = 0.232215
        16        17        21        22     9      180.000000        0.291096         4    ;  uncertainty k = 0.074538
        16        17        21        23     9        0.000000        0.297431         1    ;  uncertainty k = 0.338022
        16        17        21        23     9      180.000000        0.087168         2    ;  uncertainty k = 0.381934
        16        17        21        23     9        0.000000        0.347193         3    ;  uncertainty k = 0.232215
        16        17        21        23     9      180.000000        0.291096         4    ;  uncertainty k = 0.074538
        16        17        21        24     9        0.000000        0.297431         1    ;  uncertainty k = 0.338022
        16        17        21        24     9      180.000000        0.087168         2    ;  uncertainty k = 0.381934
        16        17        21        24     9        0.000000        0.347193         3    ;  uncertainty k = 0.232215
        16        17        21        24     9      180.000000        0.291096         4    ;  uncertainty k = 0.074538
        17        16        15        19     9        0.000000       -0.749946         1    ;  uncertainty k = 2.407366
        17        16        15        19     9      180.000000        6.965492         2    ;  uncertainty k = 1.230910
        17        16        15        19     9        0.000000        0.628356         3    ;  uncertainty k = 0.584861
        17        16        15        19     9      180.000000        0.295188         4    ;  uncertainty k = 0.847792
        17        18        19        20     9        0.000000        4.051322         1    ;  uncertainty k = 3.391115
        17        18        19        20     9      180.000000       10.697180         2    ;  uncertainty k = 0.526601
        17        18        19        20     9        0.000000        1.093668         3    ;  uncertainty k = 0.752546
        17        18        19        20     9      180.000000       -0.389374         4    ;  uncertainty k = 0.265720
        17        18        25        26     9        0.000000        8.080941         1    ;  uncertainty k = 2.061712
        17        18        25        26     9      180.000000        9.353073         2    ;  uncertainty k = 0.455751
        17        18        25        26     9        0.000000        0.960301         3    ;  uncertainty k = 0.478476
        17        18        25        26     9      180.000000       -0.922267         4    ;  uncertainty k = 0.215681
        17        18        25        27     9        0.000000        8.080941         1    ;  uncertainty k = 2.061712
        17        18        25        27     9      180.000000        9.353073         2    ;  uncertainty k = 0.455751
        17        18        25        27     9        0.000000        0.960301         3    ;  uncertainty k = 0.478476
        17        18        25        27     9      180.000000       -0.922267         4    ;  uncertainty k = 0.215681
        18        17        16        28     9        0.000000       -0.225774         1    ;  uncertainty k = 3.237560
        18        17        16        28     9      180.000000        7.660703         2    ;  uncertainty k = 0.931236
        18        17        16        28     9        0.000000        0.373526         3    ;  uncertainty k = 0.816132
        18        17        16        28     9      180.000000        0.053274         4    ;  uncertainty k = 0.298389
        18        17        21        22     9        0.000000       -0.260671         1    ;  uncertainty k = 0.510831
        18        17        21        22     9      180.000000       -1.123799         2    ;  uncertainty k = 0.505443
        18        17        21        22     9        0.000000        0.381297         3    ;  uncertainty k = 0.163929
        18        17        21        22     9      180.000000        0.194836         4    ;  uncertainty k = 0.041789
        18        17        21        23     9        0.000000       -0.260671         1    ;  uncertainty k = 0.510831
        18        17        21        23     9      180.000000       -1.123799         2    ;  uncertainty k = 0.505443
        18        17        21        23     9        0.000000        0.381297         3    ;  uncertainty k = 0.163929
        18        17        21        23     9      180.000000        0.194836         4    ;  uncertainty k = 0.041789
        18        17        21        24     9        0.000000       -0.260671         1    ;  uncertainty k = 0.510831
        18        17        21        24     9      180.000000       -1.123799         2    ;  uncertainty k = 0.505443
        18        17        21        24     9        0.000000        0.381297         3    ;  uncertainty k = 0.163929
        18        17        21        24     9      180.000000        0.194836         4    ;  uncertainty k = 0.041789
        19        15        16        28     9        0.000000        0.019702         1    ;  uncertainty k = 2.209128
        19        15        16        28     9      180.000000        4.136642         2    ;  uncertainty k = 1.319189
        19        15        16        28     9        0.000000        0.407559         3    ;  uncertainty k = 0.210462
        19        15        16        28     9      180.000000        0.445289         4    ;  uncertainty k = 0.161117
        19        18        17        21     9        0.000000       -0.380136         1    ;  uncertainty k = 2.913081
        19        18        17        21     9      180.000000        8.267784         2    ;  uncertainty k = 0.403615
        19        18        17        21     9        0.000000        0.435757         3    ;  uncertainty k = 0.320054
        19        18        17        21     9      180.000000       -0.156996         4    ;  uncertainty k = 0.291188
        19        18        25        26     9        0.000000        6.366443         1    ;  uncertainty k = 1.644722
        19        18        25        26     9      180.000000       10.049531         2    ;  uncertainty k = 0.349760
        19        18        25        26     9        0.000000        1.357511         3    ;  uncertainty k = 0.507490
        19        18        25        26     9      180.000000       -0.656591         4    ;  uncertainty k = 0.287459
        19        18        25        27     9        0.000000        6.366443         1    ;  uncertainty k = 1.644722
        19        18        25        27     9      180.000000       10.049531         2    ;  uncertainty k = 0.349760
        19        18        25        27     9        0.000000        1.357511         3    ;  uncertainty k = 0.507490
        19        18        25        27     9      180.000000       -0.656591         4    ;  uncertainty k = 0.287459
        20        19        18        25     9        0.000000        1.886192         1    ;  uncertainty k = 2.633103
        20        19        18        25     9      180.000000        7.784175         2    ;  uncertainty k = 1.209625
        20        19        18        25     9        0.000000        0.956054         3    ;  uncertainty k = 0.197633
        20        19        18        25     9      180.000000       -0.247909         4    ;  uncertainty k = 0.316191
        21        17        16        28     9        0.000000       -0.743118         1    ;  uncertainty k = 3.324160
        21        17        16        28     9      180.000000        8.127734         2    ;  uncertainty k = 0.445128
        21        17        16        28     9        0.000000        0.693460         3    ;  uncertainty k = 0.571372
        21        17        16        28     9      180.000000        0.151177         4    ;  uncertainty k = 0.263311
        21        17        18        25     9        0.000000       -0.067505         1    ;  uncertainty k = 0.784520
        21        17        18        25     9      180.000000        6.890792         2    ;  uncertainty k = 0.817474
        21        17        18        25     9        0.000000        0.975121         3    ;  uncertainty k = 0.584566
        21        17        18        25     9      180.000000       -0.011356         4    ;  uncertainty k = 0.268200
        29        11        33        34     9        0.000000       -1.168308         1    ;  uncertainty k = 0.299692
        29        11        33        34     9      180.000000        0.150758         2    ;  uncertainty k = 0.296599
        29        11        33        34     9        0.000000        0.668939         3    ;  uncertainty k = 0.064920
        29        11        33        34     9      180.000000       -0.104414         4    ;  uncertainty k = 0.091599
        29        11        33        35     9        0.000000       -1.168308         1    ;  uncertainty k = 0.299692
        29        11        33        35     9      180.000000        0.150758         2    ;  uncertainty k = 0.296599
        29        11        33        35     9        0.000000        0.668939         3    ;  uncertainty k = 0.064920
        29        11        33        35     9      180.000000       -0.104414         4    ;  uncertainty k = 0.091599
        29        11        33        36     9        0.000000       -1.168308         1    ;  uncertainty k = 0.299692
        29        11        33        36     9      180.000000        0.150758         2    ;  uncertainty k = 0.296599
        29        11        33        36     9        0.000000        0.668939         3    ;  uncertainty k = 0.064920
        29        11        33        36     9      180.000000       -0.104414         4    ;  uncertainty k = 0.091599
        30        29        11        33     9        0.000000       -1.168308         1    ;  uncertainty k = 0.299692
        30        29        11        33     9      180.000000        0.150758         2    ;  uncertainty k = 0.296599
        30        29        11        33     9        0.000000        0.668939         3    ;  uncertainty k = 0.064920
        30        29        11        33     9      180.000000       -0.104414         4    ;  uncertainty k = 0.091599
        31        29        11        33     9        0.000000       -1.168308         1    ;  uncertainty k = 0.299692
        31        29        11        33     9      180.000000        0.150758         2    ;  uncertainty k = 0.296599
        31        29        11        33     9        0.000000        0.668939         3    ;  uncertainty k = 0.064920
        31        29        11        33     9      180.000000       -0.104414         4    ;  uncertainty k = 0.091599
        32        29        11        33     9        0.000000       -1.168308         1    ;  uncertainty k = 0.299692
        32        29        11        33     9      180.000000        0.150758         2    ;  uncertainty k = 0.296599
        32        29        11        33     9        0.000000        0.668939         3    ;  uncertainty k = 0.064920
        32        29        11        33     9      180.000000       -0.104414         4    ;  uncertainty k = 0.091599
        37        40        43        44     9        0.000000        2.599545         1    ;  uncertainty k = 0.709173
        37        40        43        44     9      180.000000       -2.531578         2    ;  uncertainty k = 0.471151
        37        40        43        44     9        0.000000        0.052985         3    ;  uncertainty k = 0.230142
        37        40        43        44     9      180.000000        0.430503         4    ;  uncertainty k = 0.197061
        37        40        43        45     9        0.000000        2.599545         1    ;  uncertainty k = 0.709173
        37        40        43        45     9      180.000000       -2.531578         2    ;  uncertainty k = 0.471151
        37        40        43        45     9        0.000000        0.052985         3    ;  uncertainty k = 0.230142
        37        40        43        45     9      180.000000        0.430503         4    ;  uncertainty k = 0.197061
        37        40        43        46     9        0.000000       -1.744011         1    ;  uncertainty k = 0.769445
        37        40        43        46     9      180.000000       -2.437348         2    ;  uncertainty k = 0.654900
        37        40        43        46     9        0.000000        2.276255         3    ;  uncertainty k = 0.335966
        37        40        43        46     9      180.000000       -0.742209         4    ;  uncertainty k = 0.215311
        37        50        47        46     9        0.000000       -1.744011         1    ;  uncertainty k = 0.769444
        37        50        47        46     9      180.000000       -2.437348         2    ;  uncertainty k = 0.654901
        37        50        47        46     9        0.000000        2.276255         3    ;  uncertainty k = 0.335966
        37        50        47        46     9      180.000000       -0.742209         4    ;  uncertainty k = 0.215311
        37        50        47        48     9        0.000000        2.599545         1    ;  uncertainty k = 0.709173
        37        50        47        48     9      180.000000       -2.531577         2    ;  uncertainty k = 0.471150
        37        50        47        48     9        0.000000        0.052985         3    ;  uncertainty k = 0.230141
        37        50        47        48     9      180.000000        0.430503         4    ;  uncertainty k = 0.197061
        37        50        47        49     9        0.000000        2.599545         1    ;  uncertainty k = 0.709173
        37        50        47        49     9      180.000000       -2.531577         2    ;  uncertainty k = 0.471150
        37        50        47        49     9        0.000000        0.052985         3    ;  uncertainty k = 0.230141
        37        50        47        49     9      180.000000        0.430503         4    ;  uncertainty k = 0.197061
        38        37        40        41     9        0.000000        2.457380         1    ;  uncertainty k = 0.480172
        38        37        40        41     9      180.000000       -0.028385         2    ;  uncertainty k = 0.085612
        38        37        40        41     9        0.000000        0.298238         3    ;  uncertainty k = 0.050914
        38        37        40        41     9      180.000000        0.087719         4    ;  uncertainty k = 0.051999
        38        37        40        42     9        0.000000        2.457380         1    ;  uncertainty k = 0.480172
        38        37        40        42     9      180.000000       -0.028385         2    ;  uncertainty k = 0.085612
        38        37        40        42     9        0.000000        0.298238         3    ;  uncertainty k = 0.050914
        38        37        40        42     9      180.000000        0.087719         4    ;  uncertainty k = 0.051999
        38        37        40        43     9        0.000000       -1.444372         1    ;  uncertainty k = 0.562858
        38        37        40        43     9      180.000000       -0.500389         2    ;  uncertainty k = 0.093840
        38        37        40        43     9        0.000000        0.528966         3    ;  uncertainty k = 0.188685
        38        37        40        43     9      180.000000        0.017673         4    ;  uncertainty k = 0.059536
        38        37        50        47     9        0.000000       -1.444372         1    ;  uncertainty k = 0.562858
        38        37        50        47     9      180.000000       -0.500389         2    ;  uncertainty k = 0.093840
        38        37        50        47     9        0.000000        0.528966         3    ;  uncertainty k = 0.188685
        38        37        50        47     9      180.000000        0.017673         4    ;  uncertainty k = 0.059536
        38        37        50        51     9        0.000000        2.457380         1    ;  uncertainty k = 0.480173
        38        37        50        51     9      180.000000       -0.028385         2    ;  uncertainty k = 0.085612
        38        37        50        51     9        0.000000        0.298238         3    ;  uncertainty k = 0.050914
        38        37        50        51     9      180.000000        0.087719         4    ;  uncertainty k = 0.051999
        38        37        50        52     9        0.000000        2.457380         1    ;  uncertainty k = 0.480173
        38        37        50        52     9      180.000000       -0.028385         2    ;  uncertainty k = 0.085612
        38        37        50        52     9        0.000000        0.298238         3    ;  uncertainty k = 0.050914
        38        37        50        52     9      180.000000        0.087719         4    ;  uncertainty k = 0.051999
        39        37        40        41     9        0.000000        2.457380         1    ;  uncertainty k = 0.480172
        39        37        40        41     9      180.000000       -0.028385         2    ;  uncertainty k = 0.085612
        39        37        40        41     9        0.000000        0.298238         3    ;  uncertainty k = 0.050914
        39        37        40        41     9      180.000000        0.087719         4    ;  uncertainty k = 0.051999
        39        37        40        42     9        0.000000        2.457380         1    ;  uncertainty k = 0.480172
        39        37        40        42     9      180.000000       -0.028385         2    ;  uncertainty k = 0.085612
        39        37        40        42     9        0.000000        0.298238         3    ;  uncertainty k = 0.050914
        39        37        40        42     9      180.000000        0.087719         4    ;  uncertainty k = 0.051999
        39        37        40        43     9        0.000000       -1.444372         1    ;  uncertainty k = 0.562858
        39        37        40        43     9      180.000000       -0.500389         2    ;  uncertainty k = 0.093840
        39        37        40        43     9        0.000000        0.528966         3    ;  uncertainty k = 0.188685
        39        37        40        43     9      180.000000        0.017673         4    ;  uncertainty k = 0.059536
        39        37        50        47     9        0.000000       -1.444372         1    ;  uncertainty k = 0.562858
        39        37        50        47     9      180.000000       -0.500389         2    ;  uncertainty k = 0.093840
        39        37        50        47     9        0.000000        0.528966         3    ;  uncertainty k = 0.188685
        39        37        50        47     9      180.000000        0.017673         4    ;  uncertainty k = 0.059536
        39        37        50        51     9        0.000000        2.457380         1    ;  uncertainty k = 0.480173
        39        37        50        51     9      180.000000       -0.028385         2    ;  uncertainty k = 0.085612
        39        37        50        51     9        0.000000        0.298238         3    ;  uncertainty k = 0.050914
        39        37        50        51     9      180.000000        0.087719         4    ;  uncertainty k = 0.051999
        39        37        50        52     9        0.000000        2.457380         1    ;  uncertainty k = 0.480173
        39        37        50        52     9      180.000000       -0.028385         2    ;  uncertainty k = 0.085612
        39        37        50        52     9        0.000000        0.298238         3    ;  uncertainty k = 0.050914
        39        37        50        52     9      180.000000        0.087719         4    ;  uncertainty k = 0.051999
        40        37        50        47     9        0.000000       -9.503040         1    ;  uncertainty k = 1.410705
        40        37        50        47     9      180.000000        0.480009         2    ;  uncertainty k = 0.589231
        40        37        50        47     9        0.000000        2.023831         3    ;  uncertainty k = 0.245850
        40        37        50        47     9      180.000000       -1.397783         4    ;  uncertainty k = 0.180378
        40        37        50        51     9        0.000000       -1.930202         1    ;  uncertainty k = 0.427401
        40        37        50        51     9      180.000000       -0.130312         2    ;  uncertainty k = 0.062595
        40        37        50        51     9        0.000000        0.632144         3    ;  uncertainty k = 0.095739
        40        37        50        51     9      180.000000       -0.056780         4    ;  uncertainty k = 0.040578
        40        37        50        52     9        0.000000       -1.930202         1    ;  uncertainty k = 0.427401
        40        37        50        52     9      180.000000       -0.130312         2    ;  uncertainty k = 0.062595
        40        37        50        52     9        0.000000        0.632144         3    ;  uncertainty k = 0.095739
        40        37        50        52     9      180.000000       -0.056780         4    ;  uncertainty k = 0.040578
        40        43        46        47     9        0.000000       -5.167667         1    ;  uncertainty k = 2.062890
        40        43        46        47     9      180.000000        0.746973         2    ;  uncertainty k = 0.912082
        40        43        46        47     9        0.000000        1.068798         3    ;  uncertainty k = 0.224346
        40        43        46        47     9      180.000000       -0.533633         4    ;  uncertainty k = 0.240471
        41        40        37        50     9        0.000000       -1.930202         1    ;  uncertainty k = 0.427401
        41        40        37        50     9      180.000000       -0.130311         2    ;  uncertainty k = 0.062595
        41        40        37        50     9        0.000000        0.632144         3    ;  uncertainty k = 0.095739
        41        40        37        50     9      180.000000       -0.056780         4    ;  uncertainty k = 0.040577
        41        40        43        44     9        0.000000       -0.027023         1    ;  uncertainty k = 0.278698
        41        40        43        44     9      180.000000        0.587284         2    ;  uncertainty k = 0.354584
        41        40        43        44     9        0.000000        0.213190         3    ;  uncertainty k = 0.067452
        41        40        43        44     9      180.000000       -0.242009         4    ;  uncertainty k = 0.074734
        41        40        43        45     9        0.000000       -0.027023         1    ;  uncertainty k = 0.278698
        41        40        43        45     9      180.000000        0.587284         2    ;  uncertainty k = 0.354584
        41        40        43        45     9        0.000000        0.213190         3    ;  uncertainty k = 0.067452
        41        40        43        45     9      180.000000       -0.242009         4    ;  uncertainty k = 0.074734
        41        40        43        46     9        0.000000       -1.787306         1    ;  uncertainty k = 0.655005
        41        40        43        46     9      180.000000       -0.073809         2    ;  uncertainty k = 0.293799
        41        40        43        46     9        0.000000        1.266081         3    ;  uncertainty k = 0.184843
        41        40        43        46     9      180.000000       -0.307114         4    ;  uncertainty k = 0.131197
        42        40        37        50     9        0.000000       -1.930202         1    ;  uncertainty k = 0.427401
        42        40        37        50     9      180.000000       -0.130311         2    ;  uncertainty k = 0.062595
        42        40        37        50     9        0.000000        0.632144         3    ;  uncertainty k = 0.095739
        42        40        37        50     9      180.000000       -0.056780         4    ;  uncertainty k = 0.040577
        42        40        43        44     9        0.000000       -0.027023         1    ;  uncertainty k = 0.278698
        42        40        43        44     9      180.000000        0.587284         2    ;  uncertainty k = 0.354584
        42        40        43        44     9        0.000000        0.213190         3    ;  uncertainty k = 0.067452
        42        40        43        44     9      180.000000       -0.242009         4    ;  uncertainty k = 0.074734
        42        40        43        45     9        0.000000       -0.027023         1    ;  uncertainty k = 0.278698
        42        40        43        45     9      180.000000        0.587284         2    ;  uncertainty k = 0.354584
        42        40        43        45     9        0.000000        0.213190         3    ;  uncertainty k = 0.067452
        42        40        43        45     9      180.000000       -0.242009         4    ;  uncertainty k = 0.074734
        42        40        43        46     9        0.000000       -1.787306         1    ;  uncertainty k = 0.655005
        42        40        43        46     9      180.000000       -0.073809         2    ;  uncertainty k = 0.293799
        42        40        43        46     9        0.000000        1.266081         3    ;  uncertainty k = 0.184843
        42        40        43        46     9      180.000000       -0.307114         4    ;  uncertainty k = 0.131197
        43        40        37        50     9        0.000000       -9.503040         1    ;  uncertainty k = 1.410703
        43        40        37        50     9      180.000000        0.480009         2    ;  uncertainty k = 0.589231
        43        40        37        50     9        0.000000        2.023831         3    ;  uncertainty k = 0.245850
        43        40        37        50     9      180.000000       -1.397783         4    ;  uncertainty k = 0.180378
        43        46        47        48     9        0.000000       -6.646724         1    ;  uncertainty k = 1.672533
        43        46        47        48     9      180.000000        0.412241         2    ;  uncertainty k = 0.357975
        43        46        47        48     9        0.000000        0.852395         3    ;  uncertainty k = 0.092603
        43        46        47        48     9      180.000000       -0.093543         4    ;  uncertainty k = 0.104180
        43        46        47        49     9        0.000000       -6.646724         1    ;  uncertainty k = 1.672533
        43        46        47        49     9      180.000000        0.412241         2    ;  uncertainty k = 0.357975
        43        46        47        49     9        0.000000        0.852395         3    ;  uncertainty k = 0.092603
        43        46        47        49     9      180.000000       -0.093543         4    ;  uncertainty k = 0.104180
        43        46        47        50     9        0.000000       -5.167666         1    ;  uncertainty k = 2.062889
        43        46        47        50     9      180.000000        0.746973         2    ;  uncertainty k = 0.912082
        43        46        47        50     9        0.000000        1.068798         3    ;  uncertainty k = 0.224346
        43        46        47        50     9      180.000000       -0.533633         4    ;  uncertainty k = 0.240472
        44        43        46        47     9        0.000000       -6.646725         1    ;  uncertainty k = 1.672532
        44        43        46        47     9      180.000000        0.412241         2    ;  uncertainty k = 0.357975
        44        43        46        47     9        0.000000        0.852395         3    ;  uncertainty k = 0.092603
        44        43        46        47     9      180.000000       -0.093543         4    ;  uncertainty k = 0.104180
        45        43        46        47     9        0.000000       -6.646725         1    ;  uncertainty k = 1.672532
        45        43        46        47     9      180.000000        0.412241         2    ;  uncertainty k = 0.357975
        45        43        46        47     9        0.000000        0.852395         3    ;  uncertainty k = 0.092603
        45        43        46        47     9      180.000000       -0.093543         4    ;  uncertainty k = 0.104180
        46        47        50        51     9        0.000000       -1.787307         1    ;  uncertainty k = 0.655005
        46        47        50        51     9      180.000000       -0.073808         2    ;  uncertainty k = 0.293799
        46        47        50        51     9        0.000000        1.266081         3    ;  uncertainty k = 0.184843
        46        47        50        51     9      180.000000       -0.307114         4    ;  uncertainty k = 0.131197
        46        47        50        52     9        0.000000       -1.787307         1    ;  uncertainty k = 0.655005
        46        47        50        52     9      180.000000       -0.073808         2    ;  uncertainty k = 0.293799
        46        47        50        52     9        0.000000        1.266081         3    ;  uncertainty k = 0.184843
        46        47        50        52     9      180.000000       -0.307114         4    ;  uncertainty k = 0.131197
        48        47        50        51     9        0.000000       -0.027024         1    ;  uncertainty k = 0.278698
        48        47        50        51     9      180.000000        0.587284         2    ;  uncertainty k = 0.354585
        48        47        50        51     9        0.000000        0.213190         3    ;  uncertainty k = 0.067452
        48        47        50        51     9      180.000000       -0.242009         4    ;  uncertainty k = 0.074734
        48        47        50        52     9        0.000000       -0.027024         1    ;  uncertainty k = 0.278698
        48        47        50        52     9      180.000000        0.587284         2    ;  uncertainty k = 0.354585
        48        47        50        52     9        0.000000        0.213190         3    ;  uncertainty k = 0.067452
        48        47        50        52     9      180.000000       -0.242009         4    ;  uncertainty k = 0.074734
        49        47        50        51     9        0.000000       -0.027024         1    ;  uncertainty k = 0.278698
        49        47        50        51     9      180.000000        0.587284         2    ;  uncertainty k = 0.354585
        49        47        50        51     9        0.000000        0.213190         3    ;  uncertainty k = 0.067452
        49        47        50        51     9      180.000000       -0.242009         4    ;  uncertainty k = 0.074734
        49        47        50        52     9        0.000000       -0.027024         1    ;  uncertainty k = 0.278698
        49        47        50        52     9      180.000000        0.587284         2    ;  uncertainty k = 0.354585
        49        47        50        52     9        0.000000        0.213190         3    ;  uncertainty k = 0.067452
        49        47        50        52     9      180.000000       -0.242009         4    ;  uncertainty k = 0.074734

[ dihedrals ] ; impropers
;       ai        aj        ak        al funct           phase               k        pn
         1         2         8        46     4      180.000000       21.090692         2    ;  uncertainty k = 0.070897
         1         8        46         2     4      180.000000       21.090692         2    ;  uncertainty k = 0.070897
         1        46         2         8     4      180.000000       21.090692         2    ;  uncertainty k = 0.070897
         2         1         3         4     4      180.000000        3.059177         2    ;  uncertainty k = 0.226616
         2         3         4         1     4      180.000000        3.059177         2    ;  uncertainty k = 0.226616
         2         4         1         3     4      180.000000        3.059177         2    ;  uncertainty k = 0.226616
         4         2         5         6     4      180.000000        2.200593         2    ;  uncertainty k = 0.220953
         4         5         6         2     4      180.000000        2.200593         2    ;  uncertainty k = 0.220953
         4         6         2         5     4      180.000000        2.200593         2    ;  uncertainty k = 0.220953
         6         4         7        10     4      180.000000       20.896723         2    ;  uncertainty k = 0.118832
         6         7        10         4     4      180.000000       20.896723         2    ;  uncertainty k = 0.118832
         6        10         4         7     4      180.000000       20.896723         2    ;  uncertainty k = 0.118832
         7         6         8        15     4      180.000000       11.873209         2    ;  uncertainty k = 0.269012
         7         8        15         6     4      180.000000       11.873209         2    ;  uncertainty k = 0.269012
         7        15         6         8     4      180.000000       11.873209         2    ;  uncertainty k = 0.269012
         8         1         7         9     4      180.000000        3.298880         2    ;  uncertainty k = 0.450657
         8         7         9         1     4      180.000000        3.298880         2    ;  uncertainty k = 0.450657
         8         9         1         7     4      180.000000        3.298880         2    ;  uncertainty k = 0.450657
        16        15        17        28     4      180.000000       50.513461         2    ;  uncertainty k = 0.072466
        16        17        28        15     4      180.000000       50.513461         2    ;  uncertainty k = 0.072466
        16        28        15        17     4      180.000000       50.513461         2    ;  uncertainty k = 0.072466
        17        16        18        21     4      180.000000        2.066646         2    ;  uncertainty k = 0.825300
        17        18        21        16     4      180.000000        2.066646         2    ;  uncertainty k = 0.825300
        17        21        16        18     4      180.000000        2.066646         2    ;  uncertainty k = 0.825300
        18        17        19        25     4      180.000000       30.892449         2    ;  uncertainty k = 0.146917
        18        19        25        17     4      180.000000       30.892449         2    ;  uncertainty k = 0.146917
        18        25        17        19     4      180.000000       30.892449         2    ;  uncertainty k = 0.146917
        25        18        26        27     4      180.000000        0.184047         2    ;  uncertainty k = 0.411542
        25        26        27        18     4      180.000000        0.184047         2    ;  uncertainty k = 0.411542
        25        27        18        26     4      180.000000        0.184047         2    ;  uncertainty k = 0.411542

[ pairs ]
;       ai        aj funct
         1         5     1
         1         6     1
         1        15     1
         1        40     1
         1        44     1
         1        45     1
         1        48     1
         1        49     1
         1        50     1
         2         7     1
         2         9     1
         2        10     1
         2        43     1
         2        47     1
         3         5     1
         3         6     1
         3         8     1
         3        46     1
         4         8     1
         4        11     1
         4        15     1
         4        46     1
         5         7     1
         5        10     1
         6         9     1
         6        12     1
         6        16     1
         6        19     1
         6        29     1
         6        33     1
         7        11     1
         7        13     1
         7        14     1
         7        17     1
         7        18     1
         7        20     1
         7        28     1
         7        46     1
         8        10     1
         8        12     1
         8        16     1
         8        19     1
         8        43     1
         8        47     1
         9        15     1
         9        46     1
        10        13     1
        10        14     1
        10        15     1
        10        30     1
        10        31     1
        10        32     1
        10        34     1
        10        35     1
        10        36     1
        11        16     1
        11        19     1
        12        17     1
        12        18     1
        12        20     1
        12        28     1
        12        30     1
        12        31     1
        12        32     1
        12        34     1
        12        35     1
        12        36     1
        13        16     1
        13        19     1
        13        29     1
        13        33     1
        14        16     1
        14        19     1
        14        29     1
        14        33     1
        15        21     1
        15        25     1
        15        29     1
        15        33     1
        16        20     1
        16        22     1
        16        23     1
        16        24     1
        16        25     1
        17        20     1
        17        26     1
        17        27     1
        18        22     1
        18        23     1
        18        24     1
        18        28     1
        19        21     1
        19        26     1
        19        27     1
        19        28     1
        20        25     1
        21        25     1
        21        28     1
        29        34     1
        29        35     1
        29        36     1
        30        33     1
        31        33     1
        32        33     1
        37        44     1
        37        45     1
        37        46     1
        37        48     1
        37        49     1
        38        41     1
        38        42     1
        38        43     1
        38        47     1
        38        51     1
        38        52     1
        39        41     1
        39        42     1
        39        43     1
        39        47     1
        39        51     1
        39        52     1
        40        47     1
        40        51     1
        40        52     1
        41        44     1
        41        45     1
        41        46     1
        41        50     1
        42        44     1
        42        45     1
        42        46     1
        42        50     1
        43        48     1
        43        49     1
        43        50     1
        44        47     1
        45        47     1
        46        51     1
        46        52     1
        48        51     1
        48        52     1
        49        51     1
        49        52     1
