; ITP file created by ByteFF-joint-25, 2026-03-14 15:23:52.798486

[ atomtypes ]
;name           bonded.type        at.num        mass        charge   ptype           sigma         epsilon
 c0bf                                   6      0.0000       0.00000       A     3.31477e-01     4.13469e-01    ;  uncertainty sigma = 0.000038, epsilon = 0.001296
 c1bf                                   6      0.0000       0.00000       A     3.31537e-01     4.13294e-01    ;  uncertainty sigma = 0.000010, epsilon = 0.000913
 h2bf                                   1      0.0000       0.00000       A     2.62598e-01     6.72067e-02    ;  uncertainty sigma = 0.000023, epsilon = 0.000676
 c3bf                                   6      0.0000       0.00000       A     3.31540e-01     4.13635e-01    ;  uncertainty sigma = 0.000004, epsilon = 0.000988
 h4bf                                   1      0.0000       0.00000       A     2.62561e-01     6.67791e-02    ;  uncertainty sigma = 0.000016, epsilon = 0.000510
 c5bf                                   6      0.0000       0.00000       A     3.31572e-01     4.13296e-01    ;  uncertainty sigma = 0.000025, epsilon = 0.001172
 c6bf                                   6      0.0000       0.00000       A     3.31559e-01     4.12842e-01    ;  uncertainty sigma = 0.000054, epsilon = 0.002806
 c7bf                                   6      0.0000       0.00000       A     3.31579e-01     4.13664e-01    ;  uncertainty sigma = 0.000041, epsilon = 0.001797
 h8bf                                   1      0.0000       0.00000       A     2.62620e-01     6.74909e-02    ;  uncertainty sigma = 0.000037, epsilon = 0.001248
 o9bf                                   8      0.0000       0.00000       A     3.15675e-01     3.03349e-01    ;  uncertainty sigma = 0.000037, epsilon = 0.000709
 c10bf                                  6      0.0000       0.00000       A     3.39754e-01     4.50298e-01    ;  uncertainty sigma = 0.000022, epsilon = 0.001818
 c11bf                                  6      0.0000       0.00000       A     3.39729e-01     4.51261e-01    ;  uncertainty sigma = 0.000015, epsilon = 0.001388
 h12bf                                  1      0.0000       0.00000       A     2.60113e-01     8.69260e-02    ;  uncertainty sigma = 0.000018, epsilon = 0.001362
 h13bf                                  1      0.0000       0.00000       A     2.60113e-01     8.69260e-02    ;  uncertainty sigma = 0.000018, epsilon = 0.001362
 c14bf                                  6      0.0000       0.00000       A     3.39916e-01     4.51903e-01    ;  uncertainty sigma = 0.000042, epsilon = 0.005008
 c15bf                                  6      0.0000       0.00000       A     3.31534e-01     4.13061e-01    ;  uncertainty sigma = 0.000023, epsilon = 0.000770
 n16bf                                  7      0.0000       0.00000       A     3.18159e-01     6.82058e-01    ;  uncertainty sigma = 0.000074, epsilon = 0.006526
 c17bf                                  6      0.0000       0.00000       A     3.31516e-01     4.13029e-01    ;  uncertainty sigma = 0.000046, epsilon = 0.002102
 n18bf                                  7      0.0000       0.00000       A     3.27895e-01     6.51183e-01    ;  uncertainty sigma = 0.000198, epsilon = 0.011723
 h19bf                                  1      0.0000       0.00000       A     1.10796e-01     4.19443e-02    ;  uncertainty sigma = 0.000445, epsilon = 0.001840
 c20bf                                  6      0.0000       0.00000       A     3.39747e-01     4.51374e-01    ;  uncertainty sigma = 0.000011, epsilon = 0.001160
 h21bf                                  1      0.0000       0.00000       A     2.42212e-01     8.67416e-02    ;  uncertainty sigma = 0.000033, epsilon = 0.000677
 h22bf                                  1      0.0000       0.00000       A     2.42212e-01     8.67416e-02    ;  uncertainty sigma = 0.000033, epsilon = 0.000677
 h23bf                                  1      0.0000       0.00000       A     2.42212e-01     8.67416e-02    ;  uncertainty sigma = 0.000033, epsilon = 0.000677
 n24bf                                  7      0.0000       0.00000       A     3.36518e-01     4.71691e-01    ;  uncertainty sigma = 0.000108, epsilon = 0.006012
 h25bf                                  1      0.0000       0.00000       A     1.10696e-01     4.11175e-02    ;  uncertainty sigma = 0.000127, epsilon = 0.001410
 h26bf                                  1      0.0000       0.00000       A     1.10696e-01     4.11175e-02    ;  uncertainty sigma = 0.000127, epsilon = 0.001410
 o27bf                                  8      0.0000       0.00000       A     3.04746e-01     6.12575e-01    ;  uncertainty sigma = 0.000054, epsilon = 0.002454
 c28bf                                  6      0.0000       0.00000       A     3.39769e-01     4.50351e-01    ;  uncertainty sigma = 0.000003, epsilon = 0.001331
 h29bf                                  1      0.0000       0.00000       A     2.60031e-01     8.68009e-02    ;  uncertainty sigma = 0.000006, epsilon = 0.000320
 h30bf                                  1      0.0000       0.00000       A     2.60031e-01     8.68009e-02    ;  uncertainty sigma = 0.000006, epsilon = 0.000320
 h31bf                                  1      0.0000       0.00000       A     2.60031e-01     8.68009e-02    ;  uncertainty sigma = 0.000006, epsilon = 0.000320
 c32bf                                  6      0.0000       0.00000       A     3.39769e-01     4.50351e-01    ;  uncertainty sigma = 0.000003, epsilon = 0.001331
 h33bf                                  1      0.0000       0.00000       A     2.60031e-01     8.68009e-02    ;  uncertainty sigma = 0.000006, epsilon = 0.000320
 h34bf                                  1      0.0000       0.00000       A     2.60031e-01     8.68009e-02    ;  uncertainty sigma = 0.000006, epsilon = 0.000320
 h35bf                                  1      0.0000       0.00000       A     2.60031e-01     8.68009e-02    ;  uncertainty sigma = 0.000006, epsilon = 0.000320
 c36bf                                  6      0.0000       0.00000       A     3.39789e-01     4.50582e-01    ;  uncertainty sigma = 0.000006, epsilon = 0.000867
 h37bf                                  1      0.0000       0.00000       A     2.60047e-01     8.69057e-02    ;  uncertainty sigma = 0.000002, epsilon = 0.000829
 h38bf                                  1      0.0000       0.00000       A     2.60047e-01     8.69057e-02    ;  uncertainty sigma = 0.000002, epsilon = 0.000829
 c39bf                                  6      0.0000       0.00000       A     3.39768e-01     4.50792e-01    ;  uncertainty sigma = 0.000010, epsilon = 0.000872
 h40bf                                  1      0.0000       0.00000       A     2.60029e-01     8.66804e-02    ;  uncertainty sigma = 0.000009, epsilon = 0.000971
 h41bf                                  1      0.0000       0.00000       A     2.60029e-01     8.66804e-02    ;  uncertainty sigma = 0.000009, epsilon = 0.000971
 c42bf                                  6      0.0000       0.00000       A     3.39748e-01     4.50876e-01    ;  uncertainty sigma = 0.000007, epsilon = 0.001237
 h43bf                                  1      0.0000       0.00000       A     1.88770e-01     8.64922e-02    ;  uncertainty sigma = 0.000085, epsilon = 0.000682
 h44bf                                  1      0.0000       0.00000       A     1.88770e-01     8.64922e-02    ;  uncertainty sigma = 0.000085, epsilon = 0.000682
 n45bf                                  7      0.0000       0.00000       A     2.58865e-01     1.06528e+01    ;  uncertainty sigma = 0.000054, epsilon = 0.002530
 c46bf                                  6      0.0000       0.00000       A     3.39748e-01     4.50876e-01    ;  uncertainty sigma = 0.000007, epsilon = 0.001237
 h47bf                                  1      0.0000       0.00000       A     1.88770e-01     8.64923e-02    ;  uncertainty sigma = 0.000085, epsilon = 0.000682
 h48bf                                  1      0.0000       0.00000       A     1.88770e-01     8.64923e-02    ;  uncertainty sigma = 0.000085, epsilon = 0.000682
 c49bf                                  6      0.0000       0.00000       A     3.39768e-01     4.50792e-01    ;  uncertainty sigma = 0.000010, epsilon = 0.000872
 h50bf                                  1      0.0000       0.00000       A     2.60029e-01     8.66806e-02    ;  uncertainty sigma = 0.000009, epsilon = 0.000971
 h51bf                                  1      0.0000       0.00000       A     2.60029e-01     8.66806e-02    ;  uncertainty sigma = 0.000009, epsilon = 0.000971
 h52bf                                  1      0.0000       0.00000       A     1.10713e-01     4.18240e-02    ;  uncertainty sigma = 0.000098, epsilon = 0.001516

[ moleculetype ]
;name             nrexcl
 MOL                   3

[ atoms ]
;       nr            type      resi   res      atom      cgnr      charge          mass ; qtot
         1            c0bf         1   UNL        c0         1    -0.03939       12.0110 ; qtot   -0.039
         2            c1bf         1   UNL        c1         2    -0.06251       12.0110 ; qtot   -0.102
         3            h2bf         1   UNL        h2         3     0.15831        1.0080 ; qtot    0.056
         4            c3bf         1   UNL        c3         4    -0.11051       12.0110 ; qtot   -0.054
         5            h4bf         1   UNL        h4         5     0.19260        1.0080 ; qtot    0.139
         6            c5bf         1   UNL        c5         6     0.23009       12.0110 ; qtot    0.369
         7            c6bf         1   UNL        c6         7    -0.16723       12.0110 ; qtot    0.201
         8            c7bf         1   UNL        c7         8    -0.02408       12.0110 ; qtot    0.177
         9            h8bf         1   UNL        h8         9     0.17325        1.0080 ; qtot    0.351
        10            o9bf         1   UNL        o9        10    -0.31497       15.9990 ; qtot    0.036
        11           c10bf         1   UNL       c10        11     0.16563       12.0110 ; qtot    0.201
        12           c11bf         1   UNL       c11        12    -0.09663       12.0110 ; qtot    0.105
        13           h12bf         1   UNL       h12        13     0.09101        1.0080 ; qtot    0.196
        14           h13bf         1   UNL       h13        14     0.09101        1.0080 ; qtot    0.287
        15           c14bf         1   UNL       c14        15     0.02971       12.0110 ; qtot    0.316
        16           c15bf         1   UNL       c15        16     0.70640       12.0110 ; qtot    1.023
        17           n16bf         1   UNL       n16        17    -0.41729       14.0070 ; qtot    0.605
        18           c17bf         1   UNL       c17        18     0.47248       12.0110 ; qtot    1.078
        19           n18bf         1   UNL       n18        19    -0.37360       14.0070 ; qtot    0.704
        20           h19bf         1   UNL       h19        20     0.35504        1.0080 ; qtot    1.059
        21           c20bf         1   UNL       c20        21     0.07530       12.0110 ; qtot    1.135
        22           h21bf         1   UNL       h21        22     0.09109        1.0080 ; qtot    1.226
        23           h22bf         1   UNL       h22        23     0.09109        1.0080 ; qtot    1.317
        24           h23bf         1   UNL       h23        24     0.09109        1.0080 ; qtot    1.408
        25           n24bf         1   UNL       n24        25    -0.48596       14.0070 ; qtot    0.922
        26           h25bf         1   UNL       h25        26     0.33929        1.0080 ; qtot    1.261
        27           h26bf         1   UNL       h26        27     0.33929        1.0080 ; qtot    1.601
        28           o27bf         1   UNL       o27        28    -0.45182       15.9990 ; qtot    1.149
        29           c28bf         1   UNL       c28        29    -0.10337       12.0110 ; qtot    1.045
        30           h29bf         1   UNL       h29        30     0.05101        1.0080 ; qtot    1.096
        31           h30bf         1   UNL       h30        31     0.05101        1.0080 ; qtot    1.147
        32           h31bf         1   UNL       h31        32     0.05101        1.0080 ; qtot    1.198
        33           c32bf         1   UNL       c32        33    -0.10337       12.0110 ; qtot    1.095
        34           h33bf         1   UNL       h33        34     0.05101        1.0080 ; qtot    1.146
        35           h34bf         1   UNL       h34        35     0.05101        1.0080 ; qtot    1.197
        36           h35bf         1   UNL       h35        36     0.05101        1.0080 ; qtot    1.248
        37           c36bf         1   UNL       c36        37    -0.08996       12.0110 ; qtot    1.158
        38           h37bf         1   UNL       h37        38     0.07818        1.0080 ; qtot    1.236
        39           h38bf         1   UNL       h38        39     0.07818        1.0080 ; qtot    1.314
        40           c39bf         1   UNL       c39        40    -0.10381       12.0110 ; qtot    1.211
        41           h40bf         1   UNL       h40        41     0.08662        1.0080 ; qtot    1.297
        42           h41bf         1   UNL       h41        42     0.08662        1.0080 ; qtot    1.384
        43           c42bf         1   UNL       c42        43     0.14616       12.0110 ; qtot    1.530
        44           h43bf         1   UNL       h43        44     0.09870        1.0080 ; qtot    1.629
        45           h44bf         1   UNL       h44        45     0.09870        1.0080 ; qtot    1.727
        46           n45bf         1   UNL       n45        46    -0.58584       14.0070 ; qtot    1.142
        47           c46bf         1   UNL       c46        47     0.14616       12.0110 ; qtot    1.288
        48           h47bf         1   UNL       h47        48     0.09870        1.0080 ; qtot    1.386
        49           h48bf         1   UNL       h48        49     0.09870        1.0080 ; qtot    1.485
        50           c49bf         1   UNL       c49        50    -0.10381       12.0110 ; qtot    1.381
        51           h50bf         1   UNL       h50        51     0.08662        1.0080 ; qtot    1.468
        52           h51bf         1   UNL       h51        52     0.08662        1.0080 ; qtot    1.555
        53           h52bf         1   UNL       h52        53     0.44545        1.0080 ; qtot    2.000

[ bonds ]
;       ai        aj funct               r               k
         1         2     1        0.139387   354509.293408    ;  uncertainty r = 0.000063, k = 8.516841
         1         8     1        0.138805   348370.912891    ;  uncertainty r = 0.000142, k = 5.700869
         1        46     1        0.148039   246077.833203    ;  uncertainty r = 0.000055, k = 19.336530
         2         3     1        0.108743   334682.996729    ;  uncertainty r = 0.000033, k = 3.079151
         2         4     1        0.138734   375908.650488    ;  uncertainty r = 0.000056, k = 6.570984
         4         5     1        0.108695   335417.060937    ;  uncertainty r = 0.000040, k = 1.822251
         4         6     1        0.140500   362379.396387    ;  uncertainty r = 0.000067, k = 12.371145
         6         7     1        0.140258   328065.105908    ;  uncertainty r = 0.000160, k = 7.555671
         6        10     1        0.135238   303248.832520    ;  uncertainty r = 0.000274, k = 10.862252
         7         8     1        0.139575   347819.873145    ;  uncertainty r = 0.000244, k = 10.906732
         7        15     1        0.150598   207158.091040    ;  uncertainty r = 0.000141, k = 19.262980
         8         9     1        0.108779   333545.497266    ;  uncertainty r = 0.000036, k = 3.190860
        10        11     1        0.145422   203859.641382    ;  uncertainty r = 0.000221, k = 9.275520
        11        12     1        0.152936   192803.911694    ;  uncertainty r = 0.000262, k = 11.274596
        11        29     1        0.152325   205847.654272    ;  uncertainty r = 0.000037, k = 5.592256
        11        33     1        0.152325   205847.654272    ;  uncertainty r = 0.000037, k = 5.592256
        12        13     1        0.109477   309561.503809    ;  uncertainty r = 0.000048, k = 2.448473
        12        14     1        0.109477   309561.503809    ;  uncertainty r = 0.000048, k = 2.448473
        12        15     1        0.153097   191018.637915    ;  uncertainty r = 0.000123, k = 22.168656
        15        16     1        0.153706   171960.842236    ;  uncertainty r = 0.000207, k = 15.010209
        15        19     1        0.149571   231328.135107    ;  uncertainty r = 0.000394, k = 48.384265
        16        17     1        0.142413   302839.344971    ;  uncertainty r = 0.000236, k = 75.996174
        16        28     1        0.120112   608584.455469    ;  uncertainty r = 0.000161, k = 10.569144
        17        18     1        0.135836   286250.770703    ;  uncertainty r = 0.000260, k = 52.766102
        17        21     1        0.146741   261825.572607    ;  uncertainty r = 0.000154, k = 17.700649
        18        19     1        0.133610   531287.609180    ;  uncertainty r = 0.000191, k = 37.526813
        18        25     1        0.133101   320485.564160    ;  uncertainty r = 0.000146, k = 40.823703
        19        20     1        0.101578   423262.955127    ;  uncertainty r = 0.000083, k = 11.557068
        21        22     1        0.109172   309495.286084    ;  uncertainty r = 0.000053, k = 3.597993
        21        23     1        0.109172   309495.286084    ;  uncertainty r = 0.000053, k = 3.597993
        21        24     1        0.109172   309495.286084    ;  uncertainty r = 0.000053, k = 3.597993
        25        26     1        0.101405   421785.684424    ;  uncertainty r = 0.000064, k = 13.590764
        25        27     1        0.101405   421785.735498    ;  uncertainty r = 0.000064, k = 13.590763
        29        30     1        0.109545   310467.177393    ;  uncertainty r = 0.000018, k = 1.787242
        29        31     1        0.109545   310467.177393    ;  uncertainty r = 0.000018, k = 1.787242
        29        32     1        0.109545   310467.177393    ;  uncertainty r = 0.000018, k = 1.787242
        33        34     1        0.109545   310467.177393    ;  uncertainty r = 0.000018, k = 1.787242
        33        35     1        0.109545   310467.177393    ;  uncertainty r = 0.000018, k = 1.787242
        33        36     1        0.109545   310467.177393    ;  uncertainty r = 0.000018, k = 1.787242
        37        38     1        0.109470   308240.009473    ;  uncertainty r = 0.000014, k = 3.553246
        37        39     1        0.109470   308240.009473    ;  uncertainty r = 0.000014, k = 3.553246
        37        40     1        0.153686   219064.704443    ;  uncertainty r = 0.000038, k = 7.572508
        37        50     1        0.153686   219064.704443    ;  uncertainty r = 0.000038, k = 7.572523
        40        41     1        0.109511   309012.021826    ;  uncertainty r = 0.000021, k = 2.965936
        40        42     1        0.109511   309012.021826    ;  uncertainty r = 0.000021, k = 2.965936
        40        43     1        0.152748   208933.188281    ;  uncertainty r = 0.000039, k = 10.161386
        43        44     1        0.109120   309863.582275    ;  uncertainty r = 0.000015, k = 3.760349
        43        45     1        0.109120   309863.582275    ;  uncertainty r = 0.000015, k = 3.760349
        43        46     1        0.152996   174086.027710    ;  uncertainty r = 0.000062, k = 16.231539
        46        47     1        0.152996   174086.027710    ;  uncertainty r = 0.000062, k = 16.231554
        46        53     1        0.102544   394485.416406    ;  uncertainty r = 0.000126, k = 10.088870
        47        48     1        0.109120   309863.582275    ;  uncertainty r = 0.000015, k = 3.760350
        47        49     1        0.109120   309863.582275    ;  uncertainty r = 0.000015, k = 3.760350
        47        50     1        0.152748   208933.188281    ;  uncertainty r = 0.000039, k = 10.161386
        50        51     1        0.109511   309012.021826    ;  uncertainty r = 0.000021, k = 2.965919
        50        52     1        0.109511   309012.021826    ;  uncertainty r = 0.000021, k = 2.965919

[ angles ]
;       ai        aj        ak funct           theta             cth
         1         2         3     1      119.235695      284.671543    ;  uncertainty theta = 0.004256, k = 0.137216
         1         2         4     1      118.891113      511.215454    ;  uncertainty theta = 0.002635, k = 0.074464
         1         8         7     1      121.707741      504.261699    ;  uncertainty theta = 0.005800, k = 0.164292
         1         8         9     1      119.053055      286.163166    ;  uncertainty theta = 0.003897, k = 0.096989
         1        46        43     1      111.962448      607.369821    ;  uncertainty theta = 0.005016, k = 0.168749
         1        46        47     1      111.962448      607.369821    ;  uncertainty theta = 0.005016, k = 0.168749
         1        46        53     1      105.579735      459.196969    ;  uncertainty theta = 0.009110, k = 0.238023
         2         1         8     1      122.896591      421.183705    ;  uncertainty theta = 0.006223, k = 0.064813
         2         1        46     1      118.311462      496.021002    ;  uncertainty theta = 0.002981, k = 0.173529
         2         4         5     1      120.495583      279.023054    ;  uncertainty theta = 0.003261, k = 0.075915
         2         4         6     1      119.753746      503.144546    ;  uncertainty theta = 0.002718, k = 0.201719
         3         2         4     1      119.904030      294.039097    ;  uncertainty theta = 0.001609, k = 0.086977
         4         6         7     1      121.152695      378.313123    ;  uncertainty theta = 0.006361, k = 0.175628
         4         6        10     1      118.359314      526.896548    ;  uncertainty theta = 0.006635, k = 0.096999
         5         4         6     1      120.152061      276.959464    ;  uncertainty theta = 0.002817, k = 0.109323
         6         7         8     1      121.657730      435.855795    ;  uncertainty theta = 0.002795, k = 0.265480
         6         7        15     1      120.313309      412.583093    ;  uncertainty theta = 0.008147, k = 0.164230
         6        10        11     1      114.506638      451.186233    ;  uncertainty theta = 0.007193, k = 0.115477
         7         6        10     1      124.018044      482.197317    ;  uncertainty theta = 0.005893, k = 0.276899
         7         8         9     1      117.952797      273.018130    ;  uncertainty theta = 0.004223, k = 0.116799
         7        15        12     1      110.140060      537.389076    ;  uncertainty theta = 0.001183, k = 0.198496
         7        15        16     1      108.471153      465.232696    ;  uncertainty theta = 0.007384, k = 0.349815
         7        15        19     1      110.184166      616.506616    ;  uncertainty theta = 0.005641, k = 0.344776
         8         1        46     1      117.669960      467.106322    ;  uncertainty theta = 0.006192, k = 0.261541
         8         7        15     1      118.434715      403.473751    ;  uncertainty theta = 0.004328, k = 0.151614
        10        11        12     1      109.104774      651.855785    ;  uncertainty theta = 0.004859, k = 0.084503
        10        11        29     1      107.605125      619.338362    ;  uncertainty theta = 0.001081, k = 0.064685
        10        11        33     1      107.605125      619.338362    ;  uncertainty theta = 0.001081, k = 0.064685
        11        12        13     1      107.678444      386.201185    ;  uncertainty theta = 0.003165, k = 0.032000
        11        12        14     1      107.678444      386.201185    ;  uncertainty theta = 0.003165, k = 0.032000
        11        12        15     1      109.739090      530.125524    ;  uncertainty theta = 0.007399, k = 0.210959
        11        29        30     1      107.221069      387.594393    ;  uncertainty theta = 0.001065, k = 0.069193
        11        29        31     1      107.221069      387.594393    ;  uncertainty theta = 0.001065, k = 0.069193
        11        29        32     1      107.221069      387.594393    ;  uncertainty theta = 0.001065, k = 0.069193
        11        33        34     1      107.221069      387.594393    ;  uncertainty theta = 0.001065, k = 0.069193
        11        33        35     1      107.221069      387.594393    ;  uncertainty theta = 0.001065, k = 0.069193
        11        33        36     1      107.221069      387.594393    ;  uncertainty theta = 0.001065, k = 0.069193
        12        11        29     1      109.374954      548.046988    ;  uncertainty theta = 0.004356, k = 0.115347
        12        11        33     1      109.374954      548.046988    ;  uncertainty theta = 0.004356, k = 0.115347
        12        15        16     1      107.925613      450.236955    ;  uncertainty theta = 0.006732, k = 0.160047
        12        15        19     1      109.959068      624.814604    ;  uncertainty theta = 0.008081, k = 0.273836
        13        12        14     1      106.986496      321.844700    ;  uncertainty theta = 0.004263, k = 0.066652
        13        12        15     1      106.597633      397.191558    ;  uncertainty theta = 0.003256, k = 0.087772
        14        12        15     1      106.597633      397.191558    ;  uncertainty theta = 0.003256, k = 0.087772
        15        16        17     1      110.071190      535.074616    ;  uncertainty theta = 0.012042, k = 0.703961
        15        16        28     1      125.775803      424.936893    ;  uncertainty theta = 0.006583, k = 0.212476
        15        19        18     1      110.908493      602.646286    ;  uncertainty theta = 0.015973, k = 0.371943
        15        19        20     1      118.032127      282.115789    ;  uncertainty theta = 0.014983, k = 0.111323
        16        15        19     1      103.911415      814.966091    ;  uncertainty theta = 0.011895, k = 0.850392
        16        17        18     1      110.293701      728.609291    ;  uncertainty theta = 0.010426, k = 0.320486
        16        17        21     1      119.398109      397.513773    ;  uncertainty theta = 0.006832, k = 0.281808
        17        16        28     1      125.307961      629.051912    ;  uncertainty theta = 0.008036, k = 0.165829
        17        18        19     1      113.250023      720.106327    ;  uncertainty theta = 0.006756, k = 0.305315
        17        18        25     1      125.598953      549.524885    ;  uncertainty theta = 0.008546, k = 0.324469
        17        21        22     1      107.360855      470.851946    ;  uncertainty theta = 0.002522, k = 0.203983
        17        21        23     1      107.360855      470.851946    ;  uncertainty theta = 0.002522, k = 0.203983
        17        21        24     1      107.360855      470.851946    ;  uncertainty theta = 0.002522, k = 0.203983
        18        17        21     1      118.646042      371.786540    ;  uncertainty theta = 0.007230, k = 0.373049
        18        19        20     1      119.824707      355.581520    ;  uncertainty theta = 0.006083, k = 0.153034
        18        25        26     1      114.903091      371.138312    ;  uncertainty theta = 0.001582, k = 0.210952
        18        25        27     1      114.903091      371.138312    ;  uncertainty theta = 0.001582, k = 0.210952
        19        18        25     1      128.730377      637.313550    ;  uncertainty theta = 0.008927, k = 0.256741
        22        21        23     1      107.634499      325.466948    ;  uncertainty theta = 0.003233, k = 0.098676
        22        21        24     1      107.634499      325.466948    ;  uncertainty theta = 0.003233, k = 0.098676
        23        21        24     1      107.634499      325.466948    ;  uncertainty theta = 0.003233, k = 0.098676
        26        25        27     1      112.323532      263.743275    ;  uncertainty theta = 0.015210, k = 0.362876
        29        11        33     1      110.900230      580.347282    ;  uncertainty theta = 0.002949, k = 0.067890
        30        29        31     1      106.043396      316.610487    ;  uncertainty theta = 0.000878, k = 0.018252
        30        29        32     1      106.043396      316.610487    ;  uncertainty theta = 0.000878, k = 0.018252
        31        29        32     1      106.043396      316.610487    ;  uncertainty theta = 0.000878, k = 0.018252
        34        33        35     1      106.043396      316.610487    ;  uncertainty theta = 0.000878, k = 0.018252
        34        33        36     1      106.043396      316.610487    ;  uncertainty theta = 0.000878, k = 0.018252
        35        33        36     1      106.043396      316.610487    ;  uncertainty theta = 0.000878, k = 0.018252
        37        40        41     1      109.393234      408.914847    ;  uncertainty theta = 0.001953, k = 0.020317
        37        40        42     1      109.393234      408.914847    ;  uncertainty theta = 0.001953, k = 0.020317
        37        40        43     1      109.836792      623.936446    ;  uncertainty theta = 0.004301, k = 0.096463
        37        50        47     1      109.836792      623.936446    ;  uncertainty theta = 0.004301, k = 0.096462
        37        50        51     1      109.393234      408.914847    ;  uncertainty theta = 0.001953, k = 0.020317
        37        50        52     1      109.393234      408.914847    ;  uncertainty theta = 0.001953, k = 0.020317
        38        37        39     1      104.110756      320.079384    ;  uncertainty theta = 0.003088, k = 0.052177
        38        37        40     1      108.650291      407.116109    ;  uncertainty theta = 0.002084, k = 0.057117
        38        37        50     1      108.650291      407.116109    ;  uncertainty theta = 0.002084, k = 0.057117
        39        37        40     1      108.650291      407.116109    ;  uncertainty theta = 0.002084, k = 0.057117
        39        37        50     1      108.650291      407.116109    ;  uncertainty theta = 0.002084, k = 0.057117
        40        37        50     1      109.007324      632.571884    ;  uncertainty theta = 0.005500, k = 0.179310
        40        43        44     1      111.308517      419.020041    ;  uncertainty theta = 0.001798, k = 0.153744
        40        43        45     1      111.308517      419.020041    ;  uncertainty theta = 0.001798, k = 0.153744
        40        43        46     1      110.619431      726.406013    ;  uncertainty theta = 0.001319, k = 0.132590
        41        40        42     1      104.902931      315.338419    ;  uncertainty theta = 0.003307, k = 0.058177
        41        40        43     1      107.334274      407.478321    ;  uncertainty theta = 0.001518, k = 0.060877
        42        40        43     1      107.334274      407.478321    ;  uncertainty theta = 0.001518, k = 0.060877
        43        46        47     1      111.605179      638.565635    ;  uncertainty theta = 0.007548, k = 0.315070
        43        46        53     1      106.160278      451.854794    ;  uncertainty theta = 0.004928, k = 0.116752
        44        43        45     1      107.489464      323.536502    ;  uncertainty theta = 0.002903, k = 0.047493
        44        43        46     1      106.083397      456.611783    ;  uncertainty theta = 0.001773, k = 0.107247
        45        43        46     1      106.083397      456.611783    ;  uncertainty theta = 0.001773, k = 0.107247
        46        47        48     1      106.083397      456.611847    ;  uncertainty theta = 0.001773, k = 0.107247
        46        47        49     1      106.083397      456.611847    ;  uncertainty theta = 0.001773, k = 0.107247
        46        47        50     1      110.619423      726.405949    ;  uncertainty theta = 0.001319, k = 0.132590
        47        46        53     1      106.160278      451.854794    ;  uncertainty theta = 0.004928, k = 0.116752
        47        50        51     1      107.334274      407.478353    ;  uncertainty theta = 0.001518, k = 0.060877
        47        50        52     1      107.334274      407.478353    ;  uncertainty theta = 0.001518, k = 0.060877
        48        47        49     1      107.489464      323.536470    ;  uncertainty theta = 0.002903, k = 0.047493
        48        47        50     1      111.308517      419.019977    ;  uncertainty theta = 0.001798, k = 0.153744
        49        47        50     1      111.308517      419.019977    ;  uncertainty theta = 0.001798, k = 0.153744
        51        50        52     1      104.902939      315.338419    ;  uncertainty theta = 0.003307, k = 0.058177

[ dihedrals ] ; propers for gromacs 4.5 or higher, use funct 9
;       ai        aj        ak        al funct           phase               k        pn
         1         2         4         5     9        0.000000        0.259469         1    ;  uncertainty k = 0.353463
         1         2         4         5     9      180.000000        7.766772         2    ;  uncertainty k = 0.476627
         1         2         4         5     9        0.000000        1.425899         3    ;  uncertainty k = 0.284100
         1         2         4         5     9      180.000000        1.880501         4    ;  uncertainty k = 0.148015
         1         2         4         6     9        0.000000       -0.079202         1    ;  uncertainty k = 0.224379
         1         2         4         6     9      180.000000       13.651031         2    ;  uncertainty k = 0.167185
         1         2         4         6     9        0.000000       -0.363012         3    ;  uncertainty k = 0.571238
         1         2         4         6     9      180.000000        0.948343         4    ;  uncertainty k = 0.284744
         1         8         7         6     9        0.000000       -0.160360         1    ;  uncertainty k = 0.346550
         1         8         7         6     9      180.000000       10.337759         2    ;  uncertainty k = 0.691186
         1         8         7         6     9        0.000000       -0.167974         3    ;  uncertainty k = 0.372205
         1         8         7         6     9      180.000000        1.123484         4    ;  uncertainty k = 0.443781
         1         8         7        15     9        0.000000        0.108703         1    ;  uncertainty k = 0.271363
         1         8         7        15     9      180.000000        8.292994         2    ;  uncertainty k = 0.493581
         1         8         7        15     9        0.000000        1.557049         3    ;  uncertainty k = 0.291554
         1         8         7        15     9      180.000000        1.900106         4    ;  uncertainty k = 0.425536
         1        46        43        40     9        0.000000       -3.347655         1    ;  uncertainty k = 0.495424
         1        46        43        40     9      180.000000        0.724415         2    ;  uncertainty k = 0.256543
         1        46        43        40     9        0.000000        1.066324         3    ;  uncertainty k = 0.109284
         1        46        43        40     9      180.000000        0.114835         4    ;  uncertainty k = 0.066758
         1        46        43        44     9        0.000000        1.646528         1    ;  uncertainty k = 0.784587
         1        46        43        44     9      180.000000       -0.839635         2    ;  uncertainty k = 0.352825
         1        46        43        44     9        0.000000        0.965891         3    ;  uncertainty k = 0.095568
         1        46        43        44     9      180.000000        0.146484         4    ;  uncertainty k = 0.239621
         1        46        43        45     9        0.000000        1.646528         1    ;  uncertainty k = 0.784587
         1        46        43        45     9      180.000000       -0.839635         2    ;  uncertainty k = 0.352825
         1        46        43        45     9        0.000000        0.965891         3    ;  uncertainty k = 0.095568
         1        46        43        45     9      180.000000        0.146484         4    ;  uncertainty k = 0.239621
         1        46        47        48     9        0.000000        1.646528         1    ;  uncertainty k = 0.784586
         1        46        47        48     9      180.000000       -0.839636         2    ;  uncertainty k = 0.352825
         1        46        47        48     9        0.000000        0.965891         3    ;  uncertainty k = 0.095568
         1        46        47        48     9      180.000000        0.146484         4    ;  uncertainty k = 0.239621
         1        46        47        49     9        0.000000        1.646528         1    ;  uncertainty k = 0.784586
         1        46        47        49     9      180.000000       -0.839636         2    ;  uncertainty k = 0.352825
         1        46        47        49     9        0.000000        0.965891         3    ;  uncertainty k = 0.095568
         1        46        47        49     9      180.000000        0.146484         4    ;  uncertainty k = 0.239621
         1        46        47        50     9        0.000000       -3.347654         1    ;  uncertainty k = 0.495424
         1        46        47        50     9      180.000000        0.724415         2    ;  uncertainty k = 0.256543
         1        46        47        50     9        0.000000        1.066324         3    ;  uncertainty k = 0.109284
         1        46        47        50     9      180.000000        0.114835         4    ;  uncertainty k = 0.066758
         2         1         8         7     9        0.000000       -0.122960         1    ;  uncertainty k = 0.394927
         2         1         8         7     9      180.000000       10.154238         2    ;  uncertainty k = 0.514338
         2         1         8         7     9        0.000000       -0.146796         3    ;  uncertainty k = 0.521854
         2         1         8         7     9      180.000000        1.142821         4    ;  uncertainty k = 0.492415
         2         1         8         9     9        0.000000        0.159561         1    ;  uncertainty k = 0.338341
         2         1         8         9     9      180.000000        7.115890         2    ;  uncertainty k = 0.554977
         2         1         8         9     9        0.000000        1.362182         3    ;  uncertainty k = 0.333629
         2         1         8         9     9      180.000000        1.621057         4    ;  uncertainty k = 0.138147
         2         1        46        43     9        0.000000       -0.797768         1    ;  uncertainty k = 0.502215
         2         1        46        43     9      180.000000        0.967736         2    ;  uncertainty k = 0.283516
         2         1        46        43     9        0.000000        0.221878         3    ;  uncertainty k = 0.234760
         2         1        46        43     9      180.000000        0.151916         4    ;  uncertainty k = 0.175397
         2         1        46        47     9        0.000000       -0.797768         1    ;  uncertainty k = 0.502215
         2         1        46        47     9      180.000000        0.967735         2    ;  uncertainty k = 0.283516
         2         1        46        47     9        0.000000        0.221878         3    ;  uncertainty k = 0.234760
         2         1        46        47     9      180.000000        0.151916         4    ;  uncertainty k = 0.175397
         2         1        46        53     9        0.000000       -0.742349         1    ;  uncertainty k = 0.555641
         2         1        46        53     9      180.000000        1.443804         2    ;  uncertainty k = 0.266751
         2         1        46        53     9        0.000000        0.398020         3    ;  uncertainty k = 0.328014
         2         1        46        53     9      180.000000       -0.158340         4    ;  uncertainty k = 0.104040
         2         4         6         7     9        0.000000        0.137995         1    ;  uncertainty k = 0.567039
         2         4         6         7     9      180.000000        7.016632         2    ;  uncertainty k = 0.578374
         2         4         6         7     9        0.000000        0.394806         3    ;  uncertainty k = 0.317970
         2         4         6         7     9      180.000000        1.292651         4    ;  uncertainty k = 0.294717
         2         4         6        10     9        0.000000        0.424908         1    ;  uncertainty k = 0.275864
         2         4         6        10     9      180.000000       11.488468         2    ;  uncertainty k = 0.243644
         2         4         6        10     9        0.000000        1.394078         3    ;  uncertainty k = 0.274552
         2         4         6        10     9      180.000000        1.519968         4    ;  uncertainty k = 0.142033
         3         2         1         8     9        0.000000        0.179696         1    ;  uncertainty k = 0.424483
         3         2         1         8     9      180.000000        6.778618         2    ;  uncertainty k = 0.638520
         3         2         1         8     9        0.000000        1.255358         3    ;  uncertainty k = 0.259358
         3         2         1         8     9      180.000000        1.524528         4    ;  uncertainty k = 0.213733
         3         2         1        46     9        0.000000        0.051557         1    ;  uncertainty k = 0.315618
         3         2         1        46     9      180.000000        7.233321         2    ;  uncertainty k = 0.463144
         3         2         1        46     9        0.000000        1.036557         3    ;  uncertainty k = 0.308989
         3         2         1        46     9      180.000000        1.311860         4    ;  uncertainty k = 0.232940
         3         2         4         5     9        0.000000       -0.006139         1    ;  uncertainty k = 0.470490
         3         2         4         5     9      180.000000        7.899707         2    ;  uncertainty k = 0.271345
         3         2         4         5     9        0.000000       -0.350115         3    ;  uncertainty k = 0.221092
         3         2         4         5     9      180.000000        0.298140         4    ;  uncertainty k = 0.130249
         3         2         4         6     9        0.000000        0.281750         1    ;  uncertainty k = 0.291204
         3         2         4         6     9      180.000000        8.746540         2    ;  uncertainty k = 0.385813
         3         2         4         6     9        0.000000        1.368568         3    ;  uncertainty k = 0.348310
         3         2         4         6     9      180.000000        1.708454         4    ;  uncertainty k = 0.083238
         4         2         1         8     9        0.000000       -0.263754         1    ;  uncertainty k = 0.319634
         4         2         1         8     9      180.000000       11.090314         2    ;  uncertainty k = 0.155942
         4         2         1         8     9        0.000000       -0.602651         3    ;  uncertainty k = 0.377969
         4         2         1         8     9      180.000000        0.938161         4    ;  uncertainty k = 0.242951
         4         2         1        46     9        0.000000        0.244262         1    ;  uncertainty k = 0.509573
         4         2         1        46     9      180.000000       10.678324         2    ;  uncertainty k = 0.594875
         4         2         1        46     9        0.000000        1.316357         3    ;  uncertainty k = 0.205911
         4         2         1        46     9      180.000000        1.568323         4    ;  uncertainty k = 0.256235
         4         6         7         8     9        0.000000       -0.115254         1    ;  uncertainty k = 0.504981
         4         6         7         8     9      180.000000        6.324252         2    ;  uncertainty k = 0.341966
         4         6         7         8     9        0.000000        0.338799         3    ;  uncertainty k = 0.342272
         4         6         7         8     9      180.000000        1.318364         4    ;  uncertainty k = 0.282529
         4         6         7        15     9        0.000000        0.208144         1    ;  uncertainty k = 0.200598
         4         6         7        15     9      180.000000        4.878048         2    ;  uncertainty k = 0.388883
         4         6         7        15     9        0.000000        1.454918         3    ;  uncertainty k = 0.267843
         4         6         7        15     9      180.000000        1.644810         4    ;  uncertainty k = 0.183456
         4         6        10        11     9        0.000000        0.352233         1    ;  uncertainty k = 0.968322
         4         6        10        11     9      180.000000        2.780051         2    ;  uncertainty k = 0.406361
         4         6        10        11     9        0.000000        1.057492         3    ;  uncertainty k = 0.309323
         4         6        10        11     9      180.000000        0.259458         4    ;  uncertainty k = 0.163465
         5         4         6         7     9        0.000000        0.482620         1    ;  uncertainty k = 0.624087
         5         4         6         7     9      180.000000        5.641821         2    ;  uncertainty k = 0.346248
         5         4         6         7     9        0.000000        1.388434         3    ;  uncertainty k = 0.203418
         5         4         6         7     9      180.000000        1.398824         4    ;  uncertainty k = 0.199298
         5         4         6        10     9        0.000000       -0.147559         1    ;  uncertainty k = 0.711949
         5         4         6        10     9      180.000000        9.365937         2    ;  uncertainty k = 0.417583
         5         4         6        10     9        0.000000        0.801747         3    ;  uncertainty k = 0.200954
         5         4         6        10     9      180.000000        1.229115         4    ;  uncertainty k = 0.290250
         6         7         8         9     9        0.000000        0.183696         1    ;  uncertainty k = 0.323409
         6         7         8         9     9      180.000000        7.780381         2    ;  uncertainty k = 1.023225
         6         7         8         9     9        0.000000        1.286124         3    ;  uncertainty k = 0.262385
         6         7         8         9     9      180.000000        1.656605         4    ;  uncertainty k = 0.152355
         6         7        15        12     9        0.000000       -0.619076         1    ;  uncertainty k = 1.717761
         6         7        15        12     9      180.000000        0.728064         2    ;  uncertainty k = 0.552196
         6         7        15        12     9        0.000000        0.293914         3    ;  uncertainty k = 0.397248
         6         7        15        12     9      180.000000        0.273673         4    ;  uncertainty k = 0.224493
         6         7        15        16     9        0.000000        1.702152         1    ;  uncertainty k = 2.527431
         6         7        15        16     9      180.000000        0.476690         2    ;  uncertainty k = 1.159750
         6         7        15        16     9        0.000000        0.475212         3    ;  uncertainty k = 0.244498
         6         7        15        16     9      180.000000        0.350430         4    ;  uncertainty k = 0.171408
         6         7        15        19     9        0.000000       -2.297681         1    ;  uncertainty k = 1.531204
         6         7        15        19     9      180.000000        1.719463         2    ;  uncertainty k = 0.219129
         6         7        15        19     9        0.000000        0.565756         3    ;  uncertainty k = 0.505765
         6         7        15        19     9      180.000000        0.011190         4    ;  uncertainty k = 0.158723
         6        10        11        12     9        0.000000        4.471371         1    ;  uncertainty k = 0.509673
         6        10        11        12     9      180.000000       -1.845154         2    ;  uncertainty k = 1.514575
         6        10        11        12     9        0.000000       -0.543835         3    ;  uncertainty k = 0.475552
         6        10        11        12     9      180.000000        0.311631         4    ;  uncertainty k = 0.192850
         6        10        11        29     9        0.000000       -1.419744         1    ;  uncertainty k = 0.512648
         6        10        11        29     9      180.000000        1.044254         2    ;  uncertainty k = 0.711813
         6        10        11        29     9        0.000000        0.393780         3    ;  uncertainty k = 0.241499
         6        10        11        29     9      180.000000        0.165857         4    ;  uncertainty k = 0.187626
         6        10        11        33     9        0.000000       -1.419744         1    ;  uncertainty k = 0.512648
         6        10        11        33     9      180.000000        1.044254         2    ;  uncertainty k = 0.711813
         6        10        11        33     9        0.000000        0.393780         3    ;  uncertainty k = 0.241499
         6        10        11        33     9      180.000000        0.165857         4    ;  uncertainty k = 0.187626
         7         6        10        11     9        0.000000        4.233761         1    ;  uncertainty k = 1.513520
         7         6        10        11     9      180.000000       -0.431737         2    ;  uncertainty k = 1.306634
         7         6        10        11     9        0.000000       -0.202068         3    ;  uncertainty k = 0.690784
         7         6        10        11     9      180.000000        0.665228         4    ;  uncertainty k = 0.293674
         7         8         1        46     9        0.000000        0.383492         1    ;  uncertainty k = 0.519069
         7         8         1        46     9      180.000000        9.885465         2    ;  uncertainty k = 0.695914
         7         8         1        46     9        0.000000        1.524281         3    ;  uncertainty k = 0.165348
         7         8         1        46     9      180.000000        1.583156         4    ;  uncertainty k = 0.202760
         7        15        12        11     9        0.000000        1.552020         1    ;  uncertainty k = 0.492323
         7        15        12        11     9      180.000000       -1.109396         2    ;  uncertainty k = 0.397588
         7        15        12        11     9        0.000000        0.377689         3    ;  uncertainty k = 0.124757
         7        15        12        11     9      180.000000       -0.242401         4    ;  uncertainty k = 0.228924
         7        15        12        13     9        0.000000       -0.217735         1    ;  uncertainty k = 0.125623
         7        15        12        13     9      180.000000       -0.013812         2    ;  uncertainty k = 0.433910
         7        15        12        13     9        0.000000        0.417180         3    ;  uncertainty k = 0.224210
         7        15        12        13     9      180.000000       -0.102155         4    ;  uncertainty k = 0.131670
         7        15        12        14     9        0.000000       -0.217735         1    ;  uncertainty k = 0.125623
         7        15        12        14     9      180.000000       -0.013812         2    ;  uncertainty k = 0.433910
         7        15        12        14     9        0.000000        0.417180         3    ;  uncertainty k = 0.224210
         7        15        12        14     9      180.000000       -0.102155         4    ;  uncertainty k = 0.131670
         7        15        16        17     9        0.000000       -1.822612         1    ;  uncertainty k = 2.260902
         7        15        16        17     9      180.000000        2.588504         2    ;  uncertainty k = 1.046127
         7        15        16        17     9        0.000000        1.454821         3    ;  uncertainty k = 0.184028
         7        15        16        17     9      180.000000        0.658667         4    ;  uncertainty k = 0.422989
         7        15        16        28     9        0.000000       -0.172335         1    ;  uncertainty k = 2.373044
         7        15        16        28     9      180.000000        3.207531         2    ;  uncertainty k = 0.367526
         7        15        16        28     9        0.000000        0.208063         3    ;  uncertainty k = 0.308281
         7        15        16        28     9      180.000000        0.158010         4    ;  uncertainty k = 0.257307
         7        15        19        18     9        0.000000        0.809728         1    ;  uncertainty k = 1.109549
         7        15        19        18     9      180.000000        0.356222         2    ;  uncertainty k = 0.557640
         7        15        19        18     9        0.000000        0.919822         3    ;  uncertainty k = 0.378908
         7        15        19        18     9      180.000000        0.382818         4    ;  uncertainty k = 0.139786
         7        15        19        20     9        0.000000        0.760122         1    ;  uncertainty k = 2.933513
         7        15        19        20     9      180.000000       -1.094127         2    ;  uncertainty k = 1.342882
         7        15        19        20     9        0.000000        0.475513         3    ;  uncertainty k = 0.546407
         7        15        19        20     9      180.000000       -0.039954         4    ;  uncertainty k = 0.085831
         8         1        46        43     9        0.000000       -0.821372         1    ;  uncertainty k = 0.702379
         8         1        46        43     9      180.000000        0.891060         2    ;  uncertainty k = 0.199206
         8         1        46        43     9        0.000000        0.127183         3    ;  uncertainty k = 0.296328
         8         1        46        43     9      180.000000        0.158982         4    ;  uncertainty k = 0.207810
         8         1        46        47     9        0.000000       -0.821373         1    ;  uncertainty k = 0.702380
         8         1        46        47     9      180.000000        0.891060         2    ;  uncertainty k = 0.199205
         8         1        46        47     9        0.000000        0.127183         3    ;  uncertainty k = 0.296328
         8         1        46        47     9      180.000000        0.158982         4    ;  uncertainty k = 0.207810
         8         1        46        53     9        0.000000       -0.772326         1    ;  uncertainty k = 0.842660
         8         1        46        53     9      180.000000        1.503904         2    ;  uncertainty k = 0.303639
         8         1        46        53     9        0.000000        0.343143         3    ;  uncertainty k = 0.429531
         8         1        46        53     9      180.000000       -0.152198         4    ;  uncertainty k = 0.127154
         8         7         6        10     9        0.000000        0.635178         1    ;  uncertainty k = 0.493786
         8         7         6        10     9      180.000000        7.746293         2    ;  uncertainty k = 0.334592
         8         7         6        10     9        0.000000        1.457744         3    ;  uncertainty k = 0.273538
         8         7         6        10     9      180.000000        1.500431         4    ;  uncertainty k = 0.310342
         8         7        15        12     9        0.000000       -0.672298         1    ;  uncertainty k = 0.796423
         8         7        15        12     9      180.000000        1.127224         2    ;  uncertainty k = 0.472023
         8         7        15        12     9        0.000000       -0.299702         3    ;  uncertainty k = 0.430354
         8         7        15        12     9      180.000000        0.179174         4    ;  uncertainty k = 0.190652
         8         7        15        16     9        0.000000        0.462299         1    ;  uncertainty k = 1.664657
         8         7        15        16     9      180.000000        0.260698         2    ;  uncertainty k = 0.516439
         8         7        15        16     9        0.000000        0.127021         3    ;  uncertainty k = 0.279482
         8         7        15        16     9      180.000000        0.321612         4    ;  uncertainty k = 0.130199
         8         7        15        19     9        0.000000       -0.513093         1    ;  uncertainty k = 0.996903
         8         7        15        19     9      180.000000        2.105000         2    ;  uncertainty k = 0.495091
         8         7        15        19     9        0.000000       -0.043914         3    ;  uncertainty k = 0.429205
         8         7        15        19     9      180.000000        0.080134         4    ;  uncertainty k = 0.299116
         9         8         1        46     9        0.000000        0.174807         1    ;  uncertainty k = 0.467784
         9         8         1        46     9      180.000000        7.429197         2    ;  uncertainty k = 0.720819
         9         8         1        46     9        0.000000        0.988969         3    ;  uncertainty k = 0.268732
         9         8         1        46     9      180.000000        1.404133         4    ;  uncertainty k = 0.184614
         9         8         7        15     9        0.000000       -0.455782         1    ;  uncertainty k = 0.349523
         9         8         7        15     9      180.000000        6.676126         2    ;  uncertainty k = 0.244225
         9         8         7        15     9        0.000000        0.957908         3    ;  uncertainty k = 0.310984
         9         8         7        15     9      180.000000        1.280539         4    ;  uncertainty k = 0.268103
        10         6         7        15     9        0.000000        0.478464         1    ;  uncertainty k = 0.859026
        10         6         7        15     9      180.000000        5.403370         2    ;  uncertainty k = 0.632404
        10         6         7        15     9        0.000000        1.723104         3    ;  uncertainty k = 0.404054
        10         6         7        15     9      180.000000        1.075812         4    ;  uncertainty k = 0.443885
        10        11        12        13     9        0.000000       -1.286357         1    ;  uncertainty k = 0.418982
        10        11        12        13     9      180.000000       -0.843338         2    ;  uncertainty k = 0.564486
        10        11        12        13     9        0.000000        0.398057         3    ;  uncertainty k = 0.233267
        10        11        12        13     9      180.000000       -0.189590         4    ;  uncertainty k = 0.165011
        10        11        12        14     9        0.000000       -1.286357         1    ;  uncertainty k = 0.418982
        10        11        12        14     9      180.000000       -0.843338         2    ;  uncertainty k = 0.564486
        10        11        12        14     9        0.000000        0.398057         3    ;  uncertainty k = 0.233267
        10        11        12        14     9      180.000000       -0.189590         4    ;  uncertainty k = 0.165011
        10        11        12        15     9        0.000000        7.600568         1    ;  uncertainty k = 0.642130
        10        11        12        15     9      180.000000       -4.217923         2    ;  uncertainty k = 2.010371
        10        11        12        15     9        0.000000       -0.270502         3    ;  uncertainty k = 0.553118
        10        11        12        15     9      180.000000       -0.025068         4    ;  uncertainty k = 0.409495
        10        11        29        30     9        0.000000       -0.556685         1    ;  uncertainty k = 0.641512
        10        11        29        30     9      180.000000       -2.127823         2    ;  uncertainty k = 0.599046
        10        11        29        30     9        0.000000        0.863808         3    ;  uncertainty k = 0.110663
        10        11        29        30     9      180.000000       -0.195070         4    ;  uncertainty k = 0.150407
        10        11        29        31     9        0.000000       -0.556685         1    ;  uncertainty k = 0.641512
        10        11        29        31     9      180.000000       -2.127823         2    ;  uncertainty k = 0.599046
        10        11        29        31     9        0.000000        0.863808         3    ;  uncertainty k = 0.110663
        10        11        29        31     9      180.000000       -0.195070         4    ;  uncertainty k = 0.150407
        10        11        29        32     9        0.000000       -0.556685         1    ;  uncertainty k = 0.641512
        10        11        29        32     9      180.000000       -2.127823         2    ;  uncertainty k = 0.599046
        10        11        29        32     9        0.000000        0.863808         3    ;  uncertainty k = 0.110663
        10        11        29        32     9      180.000000       -0.195070         4    ;  uncertainty k = 0.150407
        10        11        33        34     9        0.000000       -0.556685         1    ;  uncertainty k = 0.641512
        10        11        33        34     9      180.000000       -2.127823         2    ;  uncertainty k = 0.599046
        10        11        33        34     9        0.000000        0.863808         3    ;  uncertainty k = 0.110663
        10        11        33        34     9      180.000000       -0.195070         4    ;  uncertainty k = 0.150407
        10        11        33        35     9        0.000000       -0.556685         1    ;  uncertainty k = 0.641512
        10        11        33        35     9      180.000000       -2.127823         2    ;  uncertainty k = 0.599046
        10        11        33        35     9        0.000000        0.863808         3    ;  uncertainty k = 0.110663
        10        11        33        35     9      180.000000       -0.195070         4    ;  uncertainty k = 0.150407
        10        11        33        36     9        0.000000       -0.556685         1    ;  uncertainty k = 0.641512
        10        11        33        36     9      180.000000       -2.127823         2    ;  uncertainty k = 0.599046
        10        11        33        36     9        0.000000        0.863808         3    ;  uncertainty k = 0.110663
        10        11        33        36     9      180.000000       -0.195070         4    ;  uncertainty k = 0.150407
        11        12        15        16     9        0.000000       -1.233932         1    ;  uncertainty k = 1.352273
        11        12        15        16     9      180.000000       -0.496994         2    ;  uncertainty k = 0.482855
        11        12        15        16     9        0.000000        0.427850         3    ;  uncertainty k = 0.243574
        11        12        15        16     9      180.000000       -0.081710         4    ;  uncertainty k = 0.230809
        11        12        15        19     9        0.000000       -3.007793         1    ;  uncertainty k = 0.993606
        11        12        15        19     9      180.000000       -1.345264         2    ;  uncertainty k = 0.997005
        11        12        15        19     9        0.000000        1.203893         3    ;  uncertainty k = 0.522885
        11        12        15        19     9      180.000000        0.004781         4    ;  uncertainty k = 0.226537
        12        11        29        30     9        0.000000       -0.810618         1    ;  uncertainty k = 0.476463
        12        11        29        30     9      180.000000       -0.740441         2    ;  uncertainty k = 0.208398
        12        11        29        30     9        0.000000        0.585176         3    ;  uncertainty k = 0.093112
        12        11        29        30     9      180.000000       -0.179618         4    ;  uncertainty k = 0.029902
        12        11        29        31     9        0.000000       -0.810618         1    ;  uncertainty k = 0.476463
        12        11        29        31     9      180.000000       -0.740441         2    ;  uncertainty k = 0.208398
        12        11        29        31     9        0.000000        0.585176         3    ;  uncertainty k = 0.093112
        12        11        29        31     9      180.000000       -0.179618         4    ;  uncertainty k = 0.029902
        12        11        29        32     9        0.000000       -0.810618         1    ;  uncertainty k = 0.476463
        12        11        29        32     9      180.000000       -0.740441         2    ;  uncertainty k = 0.208398
        12        11        29        32     9        0.000000        0.585176         3    ;  uncertainty k = 0.093112
        12        11        29        32     9      180.000000       -0.179618         4    ;  uncertainty k = 0.029902
        12        11        33        34     9        0.000000       -0.810618         1    ;  uncertainty k = 0.476463
        12        11        33        34     9      180.000000       -0.740441         2    ;  uncertainty k = 0.208398
        12        11        33        34     9        0.000000        0.585176         3    ;  uncertainty k = 0.093112
        12        11        33        34     9      180.000000       -0.179618         4    ;  uncertainty k = 0.029902
        12        11        33        35     9        0.000000       -0.810618         1    ;  uncertainty k = 0.476463
        12        11        33        35     9      180.000000       -0.740441         2    ;  uncertainty k = 0.208398
        12        11        33        35     9        0.000000        0.585176         3    ;  uncertainty k = 0.093112
        12        11        33        35     9      180.000000       -0.179618         4    ;  uncertainty k = 0.029902
        12        11        33        36     9        0.000000       -0.810618         1    ;  uncertainty k = 0.476463
        12        11        33        36     9      180.000000       -0.740441         2    ;  uncertainty k = 0.208398
        12        11        33        36     9        0.000000        0.585176         3    ;  uncertainty k = 0.093112
        12        11        33        36     9      180.000000       -0.179618         4    ;  uncertainty k = 0.029902
        12        15        16        17     9        0.000000       -3.142899         1    ;  uncertainty k = 1.243165
        12        15        16        17     9      180.000000        2.875696         2    ;  uncertainty k = 0.264447
        12        15        16        17     9        0.000000        0.859754         3    ;  uncertainty k = 0.083611
        12        15        16        17     9      180.000000        0.582672         4    ;  uncertainty k = 0.341223
        12        15        16        28     9        0.000000       -0.642207         1    ;  uncertainty k = 2.082315
        12        15        16        28     9      180.000000        3.894295         2    ;  uncertainty k = 1.117714
        12        15        16        28     9        0.000000        0.152145         3    ;  uncertainty k = 0.379823
        12        15        16        28     9      180.000000        0.059274         4    ;  uncertainty k = 0.334970
        12        15        19        18     9        0.000000       -0.755626         1    ;  uncertainty k = 0.305055
        12        15        19        18     9      180.000000        1.457245         2    ;  uncertainty k = 0.689415
        12        15        19        18     9        0.000000        0.348890         3    ;  uncertainty k = 0.242666
        12        15        19        18     9      180.000000        0.284148         4    ;  uncertainty k = 0.156792
        12        15        19        20     9        0.000000        1.039048         1    ;  uncertainty k = 3.191573
        12        15        19        20     9      180.000000       -0.443521         2    ;  uncertainty k = 0.897452
        12        15        19        20     9        0.000000        0.394261         3    ;  uncertainty k = 0.483207
        12        15        19        20     9      180.000000        0.074196         4    ;  uncertainty k = 0.076153
        13        12        11        29     9        0.000000       -0.868529         1    ;  uncertainty k = 0.359708
        13        12        11        29     9      180.000000        0.339049         2    ;  uncertainty k = 0.271426
        13        12        11        29     9        0.000000        0.030221         3    ;  uncertainty k = 0.169820
        13        12        11        29     9      180.000000       -0.198172         4    ;  uncertainty k = 0.102797
        13        12        11        33     9        0.000000       -0.868529         1    ;  uncertainty k = 0.359708
        13        12        11        33     9      180.000000        0.339049         2    ;  uncertainty k = 0.271426
        13        12        11        33     9        0.000000        0.030221         3    ;  uncertainty k = 0.169820
        13        12        11        33     9      180.000000       -0.198172         4    ;  uncertainty k = 0.102797
        13        12        15        16     9        0.000000        0.649094         1    ;  uncertainty k = 0.463258
        13        12        15        16     9      180.000000       -1.102903         2    ;  uncertainty k = 0.459500
        13        12        15        16     9        0.000000        0.088136         3    ;  uncertainty k = 0.193792
        13        12        15        16     9      180.000000       -0.048446         4    ;  uncertainty k = 0.097921
        13        12        15        19     9        0.000000       -0.999456         1    ;  uncertainty k = 0.647356
        13        12        15        19     9      180.000000       -0.203330         2    ;  uncertainty k = 0.442527
        13        12        15        19     9        0.000000        0.535791         3    ;  uncertainty k = 0.217061
        13        12        15        19     9      180.000000       -0.285117         4    ;  uncertainty k = 0.128335
        14        12        11        29     9        0.000000       -0.868529         1    ;  uncertainty k = 0.359708
        14        12        11        29     9      180.000000        0.339049         2    ;  uncertainty k = 0.271426
        14        12        11        29     9        0.000000        0.030221         3    ;  uncertainty k = 0.169820
        14        12        11        29     9      180.000000       -0.198172         4    ;  uncertainty k = 0.102797
        14        12        11        33     9        0.000000       -0.868529         1    ;  uncertainty k = 0.359708
        14        12        11        33     9      180.000000        0.339049         2    ;  uncertainty k = 0.271426
        14        12        11        33     9        0.000000        0.030221         3    ;  uncertainty k = 0.169820
        14        12        11        33     9      180.000000       -0.198172         4    ;  uncertainty k = 0.102797
        14        12        15        16     9        0.000000        0.649094         1    ;  uncertainty k = 0.463258
        14        12        15        16     9      180.000000       -1.102903         2    ;  uncertainty k = 0.459500
        14        12        15        16     9        0.000000        0.088136         3    ;  uncertainty k = 0.193792
        14        12        15        16     9      180.000000       -0.048446         4    ;  uncertainty k = 0.097921
        14        12        15        19     9        0.000000       -0.999456         1    ;  uncertainty k = 0.647356
        14        12        15        19     9      180.000000       -0.203330         2    ;  uncertainty k = 0.442527
        14        12        15        19     9        0.000000        0.535791         3    ;  uncertainty k = 0.217061
        14        12        15        19     9      180.000000       -0.285117         4    ;  uncertainty k = 0.128335
        15        12        11        29     9        0.000000       -0.404181         1    ;  uncertainty k = 0.932164
        15        12        11        29     9      180.000000       -0.281999         2    ;  uncertainty k = 0.245847
        15        12        11        29     9        0.000000        0.112528         3    ;  uncertainty k = 0.243041
        15        12        11        29     9      180.000000       -0.158213         4    ;  uncertainty k = 0.077950
        15        12        11        33     9        0.000000       -0.404181         1    ;  uncertainty k = 0.932164
        15        12        11        33     9      180.000000       -0.281999         2    ;  uncertainty k = 0.245847
        15        12        11        33     9        0.000000        0.112528         3    ;  uncertainty k = 0.243041
        15        12        11        33     9      180.000000       -0.158213         4    ;  uncertainty k = 0.077950
        15        16        17        18     9        0.000000        3.360021         1    ;  uncertainty k = 2.410562
        15        16        17        18     9      180.000000        4.177403         2    ;  uncertainty k = 2.199924
        15        16        17        18     9        0.000000       -0.189175         3    ;  uncertainty k = 0.837941
        15        16        17        18     9      180.000000        0.631910         4    ;  uncertainty k = 0.369654
        15        16        17        21     9        0.000000        4.761120         1    ;  uncertainty k = 2.960098
        15        16        17        21     9      180.000000        3.764959         2    ;  uncertainty k = 2.655137
        15        16        17        21     9        0.000000        1.137436         3    ;  uncertainty k = 0.867191
        15        16        17        21     9      180.000000        0.327094         4    ;  uncertainty k = 0.567634
        15        19        18        17     9        0.000000        1.211302         1    ;  uncertainty k = 2.629482
        15        19        18        17     9      180.000000       15.271707         2    ;  uncertainty k = 0.523258
        15        19        18        17     9        0.000000       -0.694641         3    ;  uncertainty k = 0.988733
        15        19        18        17     9      180.000000       -0.583216         4    ;  uncertainty k = 0.210951
        15        19        18        25     9        0.000000        3.734729         1    ;  uncertainty k = 0.913676
        15        19        18        25     9      180.000000       11.326783         2    ;  uncertainty k = 0.589583
        15        19        18        25     9        0.000000        0.321251         3    ;  uncertainty k = 0.251251
        15        19        18        25     9      180.000000       -0.482782         4    ;  uncertainty k = 0.517835
        16        15        19        18     9        0.000000        1.042826         1    ;  uncertainty k = 0.732009
        16        15        19        18     9      180.000000        2.378625         2    ;  uncertainty k = 0.647798
        16        15        19        18     9        0.000000        0.168786         3    ;  uncertainty k = 0.610128
        16        15        19        18     9      180.000000        0.483589         4    ;  uncertainty k = 0.339678
        16        15        19        20     9        0.000000        1.829642         1    ;  uncertainty k = 2.160835
        16        15        19        20     9      180.000000       -0.786861         2    ;  uncertainty k = 0.773542
        16        15        19        20     9        0.000000        0.069502         3    ;  uncertainty k = 0.472451
        16        15        19        20     9      180.000000        0.020689         4    ;  uncertainty k = 0.248430
        16        17        18        19     9        0.000000       -0.598871         1    ;  uncertainty k = 1.517512
        16        17        18        19     9      180.000000        9.023777         2    ;  uncertainty k = 0.890262
        16        17        18        19     9        0.000000       -1.321226         3    ;  uncertainty k = 1.261849
        16        17        18        19     9      180.000000       -0.043685         4    ;  uncertainty k = 0.510427
        16        17        18        25     9        0.000000       -0.742539         1    ;  uncertainty k = 0.884320
        16        17        18        25     9      180.000000        6.821150         2    ;  uncertainty k = 1.300514
        16        17        18        25     9        0.000000        0.216631         3    ;  uncertainty k = 0.558836
        16        17        18        25     9      180.000000       -0.098970         4    ;  uncertainty k = 0.493923
        16        17        21        22     9        0.000000        0.297431         1    ;  uncertainty k = 0.338022
        16        17        21        22     9      180.000000        0.087168         2    ;  uncertainty k = 0.381934
        16        17        21        22     9        0.000000        0.347193         3    ;  uncertainty k = 0.232215
        16        17        21        22     9      180.000000        0.291096         4    ;  uncertainty k = 0.074538
        16        17        21        23     9        0.000000        0.297431         1    ;  uncertainty k = 0.338022
        16        17        21        23     9      180.000000        0.087168         2    ;  uncertainty k = 0.381934
        16        17        21        23     9        0.000000        0.347193         3    ;  uncertainty k = 0.232215
        16        17        21        23     9      180.000000        0.291096         4    ;  uncertainty k = 0.074538
        16        17        21        24     9        0.000000        0.297431         1    ;  uncertainty k = 0.338022
        16        17        21        24     9      180.000000        0.087168         2    ;  uncertainty k = 0.381934
        16        17        21        24     9        0.000000        0.347193         3    ;  uncertainty k = 0.232215
        16        17        21        24     9      180.000000        0.291096         4    ;  uncertainty k = 0.074538
        17        16        15        19     9        0.000000       -0.865499         1    ;  uncertainty k = 2.406738
        17        16        15        19     9      180.000000        7.013554         2    ;  uncertainty k = 1.234799
        17        16        15        19     9        0.000000        0.625662         3    ;  uncertainty k = 0.578697
        17        16        15        19     9      180.000000        0.284425         4    ;  uncertainty k = 0.853545
        17        18        19        20     9        0.000000        4.051322         1    ;  uncertainty k = 3.391115
        17        18        19        20     9      180.000000       10.697180         2    ;  uncertainty k = 0.526601
        17        18        19        20     9        0.000000        1.093668         3    ;  uncertainty k = 0.752546
        17        18        19        20     9      180.000000       -0.389374         4    ;  uncertainty k = 0.265720
        17        18        25        26     9        0.000000        8.080941         1    ;  uncertainty k = 2.061712
        17        18        25        26     9      180.000000        9.353073         2    ;  uncertainty k = 0.455751
        17        18        25        26     9        0.000000        0.960301         3    ;  uncertainty k = 0.478476
        17        18        25        26     9      180.000000       -0.922267         4    ;  uncertainty k = 0.215681
        17        18        25        27     9        0.000000        8.080941         1    ;  uncertainty k = 2.061712
        17        18        25        27     9      180.000000        9.353073         2    ;  uncertainty k = 0.455751
        17        18        25        27     9        0.000000        0.960301         3    ;  uncertainty k = 0.478476
        17        18        25        27     9      180.000000       -0.922267         4    ;  uncertainty k = 0.215681
        18        17        16        28     9        0.000000       -0.225774         1    ;  uncertainty k = 3.237560
        18        17        16        28     9      180.000000        7.660703         2    ;  uncertainty k = 0.931236
        18        17        16        28     9        0.000000        0.373526         3    ;  uncertainty k = 0.816132
        18        17        16        28     9      180.000000        0.053274         4    ;  uncertainty k = 0.298389
        18        17        21        22     9        0.000000       -0.260671         1    ;  uncertainty k = 0.510831
        18        17        21        22     9      180.000000       -1.123799         2    ;  uncertainty k = 0.505443
        18        17        21        22     9        0.000000        0.381297         3    ;  uncertainty k = 0.163929
        18        17        21        22     9      180.000000        0.194836         4    ;  uncertainty k = 0.041789
        18        17        21        23     9        0.000000       -0.260671         1    ;  uncertainty k = 0.510831
        18        17        21        23     9      180.000000       -1.123799         2    ;  uncertainty k = 0.505443
        18        17        21        23     9        0.000000        0.381297         3    ;  uncertainty k = 0.163929
        18        17        21        23     9      180.000000        0.194836         4    ;  uncertainty k = 0.041789
        18        17        21        24     9        0.000000       -0.260671         1    ;  uncertainty k = 0.510831
        18        17        21        24     9      180.000000       -1.123799         2    ;  uncertainty k = 0.505443
        18        17        21        24     9        0.000000        0.381297         3    ;  uncertainty k = 0.163929
        18        17        21        24     9      180.000000        0.194836         4    ;  uncertainty k = 0.041789
        19        15        16        28     9        0.000000       -0.068882         1    ;  uncertainty k = 2.217723
        19        15        16        28     9      180.000000        4.132041         2    ;  uncertainty k = 1.376455
        19        15        16        28     9        0.000000        0.390498         3    ;  uncertainty k = 0.205669
        19        15        16        28     9      180.000000        0.443546         4    ;  uncertainty k = 0.158109
        19        18        17        21     9        0.000000       -0.380136         1    ;  uncertainty k = 2.913081
        19        18        17        21     9      180.000000        8.267784         2    ;  uncertainty k = 0.403615
        19        18        17        21     9        0.000000        0.435757         3    ;  uncertainty k = 0.320054
        19        18        17        21     9      180.000000       -0.156996         4    ;  uncertainty k = 0.291188
        19        18        25        26     9        0.000000        6.366443         1    ;  uncertainty k = 1.644722
        19        18        25        26     9      180.000000       10.049531         2    ;  uncertainty k = 0.349760
        19        18        25        26     9        0.000000        1.357511         3    ;  uncertainty k = 0.507490
        19        18        25        26     9      180.000000       -0.656591         4    ;  uncertainty k = 0.287459
        19        18        25        27     9        0.000000        6.366443         1    ;  uncertainty k = 1.644722
        19        18        25        27     9      180.000000       10.049531         2    ;  uncertainty k = 0.349760
        19        18        25        27     9        0.000000        1.357511         3    ;  uncertainty k = 0.507490
        19        18        25        27     9      180.000000       -0.656591         4    ;  uncertainty k = 0.287459
        20        19        18        25     9        0.000000        1.886192         1    ;  uncertainty k = 2.633103
        20        19        18        25     9      180.000000        7.784175         2    ;  uncertainty k = 1.209625
        20        19        18        25     9        0.000000        0.956054         3    ;  uncertainty k = 0.197633
        20        19        18        25     9      180.000000       -0.247909         4    ;  uncertainty k = 0.316191
        21        17        16        28     9        0.000000       -0.743118         1    ;  uncertainty k = 3.324160
        21        17        16        28     9      180.000000        8.127734         2    ;  uncertainty k = 0.445128
        21        17        16        28     9        0.000000        0.693460         3    ;  uncertainty k = 0.571372
        21        17        16        28     9      180.000000        0.151177         4    ;  uncertainty k = 0.263311
        21        17        18        25     9        0.000000       -0.067505         1    ;  uncertainty k = 0.784520
        21        17        18        25     9      180.000000        6.890792         2    ;  uncertainty k = 0.817474
        21        17        18        25     9        0.000000        0.975121         3    ;  uncertainty k = 0.584566
        21        17        18        25     9      180.000000       -0.011356         4    ;  uncertainty k = 0.268200
        29        11        33        34     9        0.000000       -1.168308         1    ;  uncertainty k = 0.299692
        29        11        33        34     9      180.000000        0.150758         2    ;  uncertainty k = 0.296599
        29        11        33        34     9        0.000000        0.668939         3    ;  uncertainty k = 0.064920
        29        11        33        34     9      180.000000       -0.104414         4    ;  uncertainty k = 0.091599
        29        11        33        35     9        0.000000       -1.168308         1    ;  uncertainty k = 0.299692
        29        11        33        35     9      180.000000        0.150758         2    ;  uncertainty k = 0.296599
        29        11        33        35     9        0.000000        0.668939         3    ;  uncertainty k = 0.064920
        29        11        33        35     9      180.000000       -0.104414         4    ;  uncertainty k = 0.091599
        29        11        33        36     9        0.000000       -1.168308         1    ;  uncertainty k = 0.299692
        29        11        33        36     9      180.000000        0.150758         2    ;  uncertainty k = 0.296599
        29        11        33        36     9        0.000000        0.668939         3    ;  uncertainty k = 0.064920
        29        11        33        36     9      180.000000       -0.104414         4    ;  uncertainty k = 0.091599
        30        29        11        33     9        0.000000       -1.168308         1    ;  uncertainty k = 0.299692
        30        29        11        33     9      180.000000        0.150758         2    ;  uncertainty k = 0.296599
        30        29        11        33     9        0.000000        0.668939         3    ;  uncertainty k = 0.064920
        30        29        11        33     9      180.000000       -0.104414         4    ;  uncertainty k = 0.091599
        31        29        11        33     9        0.000000       -1.168308         1    ;  uncertainty k = 0.299692
        31        29        11        33     9      180.000000        0.150758         2    ;  uncertainty k = 0.296599
        31        29        11        33     9        0.000000        0.668939         3    ;  uncertainty k = 0.064920
        31        29        11        33     9      180.000000       -0.104414         4    ;  uncertainty k = 0.091599
        32        29        11        33     9        0.000000       -1.168308         1    ;  uncertainty k = 0.299692
        32        29        11        33     9      180.000000        0.150758         2    ;  uncertainty k = 0.296599
        32        29        11        33     9        0.000000        0.668939         3    ;  uncertainty k = 0.064920
        32        29        11        33     9      180.000000       -0.104414         4    ;  uncertainty k = 0.091599
        37        40        43        44     9        0.000000       -0.186938         1    ;  uncertainty k = 0.603692
        37        40        43        44     9      180.000000       -0.689603         2    ;  uncertainty k = 0.222970
        37        40        43        44     9        0.000000        0.502230         3    ;  uncertainty k = 0.200385
        37        40        43        44     9      180.000000        0.109273         4    ;  uncertainty k = 0.071290
        37        40        43        45     9        0.000000       -0.186938         1    ;  uncertainty k = 0.603692
        37        40        43        45     9      180.000000       -0.689603         2    ;  uncertainty k = 0.222970
        37        40        43        45     9        0.000000        0.502230         3    ;  uncertainty k = 0.200385
        37        40        43        45     9      180.000000        0.109273         4    ;  uncertainty k = 0.071290
        37        40        43        46     9        0.000000       -0.815790         1    ;  uncertainty k = 1.273470
        37        40        43        46     9      180.000000       -2.013833         2    ;  uncertainty k = 0.938312
        37        40        43        46     9        0.000000        1.840536         3    ;  uncertainty k = 0.251960
        37        40        43        46     9      180.000000       -0.909928         4    ;  uncertainty k = 0.267122
        37        50        47        46     9        0.000000       -0.815791         1    ;  uncertainty k = 1.273469
        37        50        47        46     9      180.000000       -2.013834         2    ;  uncertainty k = 0.938311
        37        50        47        46     9        0.000000        1.840536         3    ;  uncertainty k = 0.251960
        37        50        47        46     9      180.000000       -0.909929         4    ;  uncertainty k = 0.267122
        37        50        47        48     9        0.000000       -0.186938         1    ;  uncertainty k = 0.603692
        37        50        47        48     9      180.000000       -0.689604         2    ;  uncertainty k = 0.222971
        37        50        47        48     9        0.000000        0.502230         3    ;  uncertainty k = 0.200386
        37        50        47        48     9      180.000000        0.109274         4    ;  uncertainty k = 0.071290
        37        50        47        49     9        0.000000       -0.186938         1    ;  uncertainty k = 0.603692
        37        50        47        49     9      180.000000       -0.689604         2    ;  uncertainty k = 0.222971
        37        50        47        49     9        0.000000        0.502230         3    ;  uncertainty k = 0.200386
        37        50        47        49     9      180.000000        0.109274         4    ;  uncertainty k = 0.071290
        38        37        40        41     9        0.000000        2.068277         1    ;  uncertainty k = 0.570952
        38        37        40        41     9      180.000000        0.125898         2    ;  uncertainty k = 0.172954
        38        37        40        41     9        0.000000        0.328804         3    ;  uncertainty k = 0.127693
        38        37        40        41     9      180.000000        0.123460         4    ;  uncertainty k = 0.037517
        38        37        40        42     9        0.000000        2.068277         1    ;  uncertainty k = 0.570952
        38        37        40        42     9      180.000000        0.125898         2    ;  uncertainty k = 0.172954
        38        37        40        42     9        0.000000        0.328804         3    ;  uncertainty k = 0.127693
        38        37        40        42     9      180.000000        0.123460         4    ;  uncertainty k = 0.037517
        38        37        40        43     9        0.000000       -1.639783         1    ;  uncertainty k = 0.631193
        38        37        40        43     9      180.000000       -0.679820         2    ;  uncertainty k = 0.276955
        38        37        40        43     9        0.000000        0.576817         3    ;  uncertainty k = 0.084243
        38        37        40        43     9      180.000000       -0.103202         4    ;  uncertainty k = 0.061708
        38        37        50        47     9        0.000000       -1.639783         1    ;  uncertainty k = 0.631193
        38        37        50        47     9      180.000000       -0.679820         2    ;  uncertainty k = 0.276955
        38        37        50        47     9        0.000000        0.576817         3    ;  uncertainty k = 0.084243
        38        37        50        47     9      180.000000       -0.103202         4    ;  uncertainty k = 0.061708
        38        37        50        51     9        0.000000        2.068276         1    ;  uncertainty k = 0.570953
        38        37        50        51     9      180.000000        0.125898         2    ;  uncertainty k = 0.172955
        38        37        50        51     9        0.000000        0.328805         3    ;  uncertainty k = 0.127693
        38        37        50        51     9      180.000000        0.123460         4    ;  uncertainty k = 0.037517
        38        37        50        52     9        0.000000        2.068276         1    ;  uncertainty k = 0.570953
        38        37        50        52     9      180.000000        0.125898         2    ;  uncertainty k = 0.172955
        38        37        50        52     9        0.000000        0.328805         3    ;  uncertainty k = 0.127693
        38        37        50        52     9      180.000000        0.123460         4    ;  uncertainty k = 0.037517
        39        37        40        41     9        0.000000        2.068277         1    ;  uncertainty k = 0.570952
        39        37        40        41     9      180.000000        0.125898         2    ;  uncertainty k = 0.172954
        39        37        40        41     9        0.000000        0.328804         3    ;  uncertainty k = 0.127693
        39        37        40        41     9      180.000000        0.123460         4    ;  uncertainty k = 0.037517
        39        37        40        42     9        0.000000        2.068277         1    ;  uncertainty k = 0.570952
        39        37        40        42     9      180.000000        0.125898         2    ;  uncertainty k = 0.172954
        39        37        40        42     9        0.000000        0.328804         3    ;  uncertainty k = 0.127693
        39        37        40        42     9      180.000000        0.123460         4    ;  uncertainty k = 0.037517
        39        37        40        43     9        0.000000       -1.639783         1    ;  uncertainty k = 0.631193
        39        37        40        43     9      180.000000       -0.679820         2    ;  uncertainty k = 0.276955
        39        37        40        43     9        0.000000        0.576817         3    ;  uncertainty k = 0.084243
        39        37        40        43     9      180.000000       -0.103202         4    ;  uncertainty k = 0.061708
        39        37        50        47     9        0.000000       -1.639783         1    ;  uncertainty k = 0.631193
        39        37        50        47     9      180.000000       -0.679820         2    ;  uncertainty k = 0.276955
        39        37        50        47     9        0.000000        0.576817         3    ;  uncertainty k = 0.084243
        39        37        50        47     9      180.000000       -0.103202         4    ;  uncertainty k = 0.061708
        39        37        50        51     9        0.000000        2.068276         1    ;  uncertainty k = 0.570953
        39        37        50        51     9      180.000000        0.125898         2    ;  uncertainty k = 0.172955
        39        37        50        51     9        0.000000        0.328805         3    ;  uncertainty k = 0.127693
        39        37        50        51     9      180.000000        0.123460         4    ;  uncertainty k = 0.037517
        39        37        50        52     9        0.000000        2.068276         1    ;  uncertainty k = 0.570953
        39        37        50        52     9      180.000000        0.125898         2    ;  uncertainty k = 0.172955
        39        37        50        52     9        0.000000        0.328805         3    ;  uncertainty k = 0.127693
        39        37        50        52     9      180.000000        0.123460         4    ;  uncertainty k = 0.037517
        40        37        50        47     9        0.000000       -7.055418         1    ;  uncertainty k = 1.211901
        40        37        50        47     9      180.000000        0.487541         2    ;  uncertainty k = 0.772370
        40        37        50        47     9        0.000000        1.703687         3    ;  uncertainty k = 0.088041
        40        37        50        47     9      180.000000       -1.000023         4    ;  uncertainty k = 0.167365
        40        37        50        51     9        0.000000       -1.688915         1    ;  uncertainty k = 0.140914
        40        37        50        51     9      180.000000       -0.309172         2    ;  uncertainty k = 0.199599
        40        37        50        51     9        0.000000        0.507697         3    ;  uncertainty k = 0.200451
        40        37        50        51     9      180.000000       -0.016492         4    ;  uncertainty k = 0.106133
        40        37        50        52     9        0.000000       -1.688915         1    ;  uncertainty k = 0.140914
        40        37        50        52     9      180.000000       -0.309172         2    ;  uncertainty k = 0.199599
        40        37        50        52     9        0.000000        0.507697         3    ;  uncertainty k = 0.200451
        40        37        50        52     9      180.000000       -0.016492         4    ;  uncertainty k = 0.106133
        40        43        46        47     9        0.000000        1.568792         1    ;  uncertainty k = 1.609773
        40        43        46        47     9      180.000000       -0.483387         2    ;  uncertainty k = 0.766262
        40        43        46        47     9        0.000000        0.549683         3    ;  uncertainty k = 0.277199
        40        43        46        47     9      180.000000       -0.431969         4    ;  uncertainty k = 0.301473
        40        43        46        53     9        0.000000        0.093878         1    ;  uncertainty k = 0.730987
        40        43        46        53     9      180.000000       -0.462420         2    ;  uncertainty k = 0.404307
        40        43        46        53     9        0.000000        0.418817         3    ;  uncertainty k = 0.267358
        40        43        46        53     9      180.000000       -0.116844         4    ;  uncertainty k = 0.047615
        41        40        37        50     9        0.000000       -1.688915         1    ;  uncertainty k = 0.140914
        41        40        37        50     9      180.000000       -0.309172         2    ;  uncertainty k = 0.199599
        41        40        37        50     9        0.000000        0.507696         3    ;  uncertainty k = 0.200451
        41        40        37        50     9      180.000000       -0.016492         4    ;  uncertainty k = 0.106133
        41        40        43        44     9        0.000000        0.342754         1    ;  uncertainty k = 0.295683
        41        40        43        44     9      180.000000        0.434560         2    ;  uncertainty k = 0.098508
        41        40        43        44     9        0.000000        0.302398         3    ;  uncertainty k = 0.075548
        41        40        43        44     9      180.000000       -0.052983         4    ;  uncertainty k = 0.043225
        41        40        43        45     9        0.000000        0.342754         1    ;  uncertainty k = 0.295683
        41        40        43        45     9      180.000000        0.434560         2    ;  uncertainty k = 0.098508
        41        40        43        45     9        0.000000        0.302398         3    ;  uncertainty k = 0.075548
        41        40        43        45     9      180.000000       -0.052983         4    ;  uncertainty k = 0.043225
        41        40        43        46     9        0.000000       -0.731615         1    ;  uncertainty k = 0.747756
        41        40        43        46     9      180.000000       -1.567664         2    ;  uncertainty k = 0.515434
        41        40        43        46     9        0.000000        0.682722         3    ;  uncertainty k = 0.157824
        41        40        43        46     9      180.000000       -0.078032         4    ;  uncertainty k = 0.152829
        42        40        37        50     9        0.000000       -1.688915         1    ;  uncertainty k = 0.140914
        42        40        37        50     9      180.000000       -0.309172         2    ;  uncertainty k = 0.199599
        42        40        37        50     9        0.000000        0.507696         3    ;  uncertainty k = 0.200451
        42        40        37        50     9      180.000000       -0.016492         4    ;  uncertainty k = 0.106133
        42        40        43        44     9        0.000000        0.342754         1    ;  uncertainty k = 0.295683
        42        40        43        44     9      180.000000        0.434560         2    ;  uncertainty k = 0.098508
        42        40        43        44     9        0.000000        0.302398         3    ;  uncertainty k = 0.075548
        42        40        43        44     9      180.000000       -0.052983         4    ;  uncertainty k = 0.043225
        42        40        43        45     9        0.000000        0.342754         1    ;  uncertainty k = 0.295683
        42        40        43        45     9      180.000000        0.434560         2    ;  uncertainty k = 0.098508
        42        40        43        45     9        0.000000        0.302398         3    ;  uncertainty k = 0.075548
        42        40        43        45     9      180.000000       -0.052983         4    ;  uncertainty k = 0.043225
        42        40        43        46     9        0.000000       -0.731615         1    ;  uncertainty k = 0.747756
        42        40        43        46     9      180.000000       -1.567664         2    ;  uncertainty k = 0.515434
        42        40        43        46     9        0.000000        0.682722         3    ;  uncertainty k = 0.157824
        42        40        43        46     9      180.000000       -0.078032         4    ;  uncertainty k = 0.152829
        43        40        37        50     9        0.000000       -7.055418         1    ;  uncertainty k = 1.211901
        43        40        37        50     9      180.000000        0.487542         2    ;  uncertainty k = 0.772371
        43        40        37        50     9        0.000000        1.703688         3    ;  uncertainty k = 0.088041
        43        40        37        50     9      180.000000       -1.000023         4    ;  uncertainty k = 0.167365
        43        46        47        48     9        0.000000       -0.611500         1    ;  uncertainty k = 0.500337
        43        46        47        48     9      180.000000       -0.949748         2    ;  uncertainty k = 0.293724
        43        46        47        48     9        0.000000        0.404094         3    ;  uncertainty k = 0.245884
        43        46        47        48     9      180.000000        0.018193         4    ;  uncertainty k = 0.193847
        43        46        47        49     9        0.000000       -0.611500         1    ;  uncertainty k = 0.500337
        43        46        47        49     9      180.000000       -0.949748         2    ;  uncertainty k = 0.293724
        43        46        47        49     9        0.000000        0.404094         3    ;  uncertainty k = 0.245884
        43        46        47        49     9      180.000000        0.018193         4    ;  uncertainty k = 0.193847
        43        46        47        50     9        0.000000        1.568794         1    ;  uncertainty k = 1.609774
        43        46        47        50     9      180.000000       -0.483386         2    ;  uncertainty k = 0.766261
        43        46        47        50     9        0.000000        0.549683         3    ;  uncertainty k = 0.277199
        43        46        47        50     9      180.000000       -0.431970         4    ;  uncertainty k = 0.301473
        44        43        46        47     9        0.000000       -0.611501         1    ;  uncertainty k = 0.500337
        44        43        46        47     9      180.000000       -0.949747         2    ;  uncertainty k = 0.293724
        44        43        46        47     9        0.000000        0.404094         3    ;  uncertainty k = 0.245884
        44        43        46        47     9      180.000000        0.018193         4    ;  uncertainty k = 0.193847
        44        43        46        53     9        0.000000        0.451646         1    ;  uncertainty k = 0.563159
        44        43        46        53     9      180.000000       -0.474801         2    ;  uncertainty k = 0.339550
        44        43        46        53     9        0.000000        0.037354         3    ;  uncertainty k = 0.263778
        44        43        46        53     9      180.000000       -0.009049         4    ;  uncertainty k = 0.091339
        45        43        46        47     9        0.000000       -0.611501         1    ;  uncertainty k = 0.500337
        45        43        46        47     9      180.000000       -0.949747         2    ;  uncertainty k = 0.293724
        45        43        46        47     9        0.000000        0.404094         3    ;  uncertainty k = 0.245884
        45        43        46        47     9      180.000000        0.018193         4    ;  uncertainty k = 0.193847
        45        43        46        53     9        0.000000        0.451646         1    ;  uncertainty k = 0.563159
        45        43        46        53     9      180.000000       -0.474801         2    ;  uncertainty k = 0.339550
        45        43        46        53     9        0.000000        0.037354         3    ;  uncertainty k = 0.263778
        45        43        46        53     9      180.000000       -0.009049         4    ;  uncertainty k = 0.091339
        46        47        50        51     9        0.000000       -0.731616         1    ;  uncertainty k = 0.747757
        46        47        50        51     9      180.000000       -1.567664         2    ;  uncertainty k = 0.515434
        46        47        50        51     9        0.000000        0.682721         3    ;  uncertainty k = 0.157824
        46        47        50        51     9      180.000000       -0.078032         4    ;  uncertainty k = 0.152829
        46        47        50        52     9        0.000000       -0.731616         1    ;  uncertainty k = 0.747757
        46        47        50        52     9      180.000000       -1.567664         2    ;  uncertainty k = 0.515434
        46        47        50        52     9        0.000000        0.682721         3    ;  uncertainty k = 0.157824
        46        47        50        52     9      180.000000       -0.078032         4    ;  uncertainty k = 0.152829
        48        47        46        53     9        0.000000        0.451646         1    ;  uncertainty k = 0.563158
        48        47        46        53     9      180.000000       -0.474801         2    ;  uncertainty k = 0.339551
        48        47        46        53     9        0.000000        0.037354         3    ;  uncertainty k = 0.263777
        48        47        46        53     9      180.000000       -0.009049         4    ;  uncertainty k = 0.091339
        48        47        50        51     9        0.000000        0.342755         1    ;  uncertainty k = 0.295683
        48        47        50        51     9      180.000000        0.434560         2    ;  uncertainty k = 0.098508
        48        47        50        51     9        0.000000        0.302398         3    ;  uncertainty k = 0.075548
        48        47        50        51     9      180.000000       -0.052983         4    ;  uncertainty k = 0.043225
        48        47        50        52     9        0.000000        0.342755         1    ;  uncertainty k = 0.295683
        48        47        50        52     9      180.000000        0.434560         2    ;  uncertainty k = 0.098508
        48        47        50        52     9        0.000000        0.302398         3    ;  uncertainty k = 0.075548
        48        47        50        52     9      180.000000       -0.052983         4    ;  uncertainty k = 0.043225
        49        47        46        53     9        0.000000        0.451646         1    ;  uncertainty k = 0.563158
        49        47        46        53     9      180.000000       -0.474801         2    ;  uncertainty k = 0.339551
        49        47        46        53     9        0.000000        0.037354         3    ;  uncertainty k = 0.263777
        49        47        46        53     9      180.000000       -0.009049         4    ;  uncertainty k = 0.091339
        49        47        50        51     9        0.000000        0.342755         1    ;  uncertainty k = 0.295683
        49        47        50        51     9      180.000000        0.434560         2    ;  uncertainty k = 0.098508
        49        47        50        51     9        0.000000        0.302398         3    ;  uncertainty k = 0.075548
        49        47        50        51     9      180.000000       -0.052983         4    ;  uncertainty k = 0.043225
        49        47        50        52     9        0.000000        0.342755         1    ;  uncertainty k = 0.295683
        49        47        50        52     9      180.000000        0.434560         2    ;  uncertainty k = 0.098508
        49        47        50        52     9        0.000000        0.302398         3    ;  uncertainty k = 0.075548
        49        47        50        52     9      180.000000       -0.052983         4    ;  uncertainty k = 0.043225
        50        47        46        53     9        0.000000        0.093879         1    ;  uncertainty k = 0.730985
        50        47        46        53     9      180.000000       -0.462420         2    ;  uncertainty k = 0.404307
        50        47        46        53     9        0.000000        0.418817         3    ;  uncertainty k = 0.267358
        50        47        46        53     9      180.000000       -0.116843         4    ;  uncertainty k = 0.047615

[ dihedrals ] ; impropers
;       ai        aj        ak        al funct           phase               k        pn
         1         2         8        46     4      180.000000        9.025602         2    ;  uncertainty k = 0.361444
         1         8        46         2     4      180.000000        9.025602         2    ;  uncertainty k = 0.361444
         1        46         2         8     4      180.000000        9.025602         2    ;  uncertainty k = 0.361444
         2         1         3         4     4      180.000000        4.157464         2    ;  uncertainty k = 0.292240
         2         3         4         1     4      180.000000        4.157464         2    ;  uncertainty k = 0.292240
         2         4         1         3     4      180.000000        4.157464         2    ;  uncertainty k = 0.292240
         4         2         5         6     4      180.000000        2.785149         2    ;  uncertainty k = 0.376150
         4         5         6         2     4      180.000000        2.785149         2    ;  uncertainty k = 0.376150
         4         6         2         5     4      180.000000        2.785149         2    ;  uncertainty k = 0.376150
         6         4         7        10     4      180.000000       24.266984         2    ;  uncertainty k = 0.154081
         6         7        10         4     4      180.000000       24.266984         2    ;  uncertainty k = 0.154081
         6        10         4         7     4      180.000000       24.266984         2    ;  uncertainty k = 0.154081
         7         6         8        15     4      180.000000       12.548018         2    ;  uncertainty k = 0.258945
         7         8        15         6     4      180.000000       12.548018         2    ;  uncertainty k = 0.258945
         7        15         6         8     4      180.000000       12.548018         2    ;  uncertainty k = 0.258945
         8         1         7         9     4      180.000000        4.585934         2    ;  uncertainty k = 0.421902
         8         7         9         1     4      180.000000        4.585934         2    ;  uncertainty k = 0.421902
         8         9         1         7     4      180.000000        4.585934         2    ;  uncertainty k = 0.421902
        16        15        17        28     4      180.000000       50.614466         2    ;  uncertainty k = 0.069193
        16        17        28        15     4      180.000000       50.614466         2    ;  uncertainty k = 0.069193
        16        28        15        17     4      180.000000       50.614466         2    ;  uncertainty k = 0.069193
        17        16        18        21     4      180.000000        2.066646         2    ;  uncertainty k = 0.825300
        17        18        21        16     4      180.000000        2.066646         2    ;  uncertainty k = 0.825300
        17        21        16        18     4      180.000000        2.066646         2    ;  uncertainty k = 0.825300
        18        17        19        25     4      180.000000       30.892449         2    ;  uncertainty k = 0.146917
        18        19        25        17     4      180.000000       30.892449         2    ;  uncertainty k = 0.146917
        18        25        17        19     4      180.000000       30.892449         2    ;  uncertainty k = 0.146917
        25        18        26        27     4      180.000000        0.184047         2    ;  uncertainty k = 0.411541
        25        26        27        18     4      180.000000        0.184047         2    ;  uncertainty k = 0.411541
        25        27        18        26     4      180.000000        0.184047         2    ;  uncertainty k = 0.411541

[ pairs ]
;       ai        aj funct
         1         5     1
         1         6     1
         1        15     1
         1        40     1
         1        44     1
         1        45     1
         1        48     1
         1        49     1
         1        50     1
         2         7     1
         2         9     1
         2        10     1
         2        43     1
         2        47     1
         2        53     1
         3         5     1
         3         6     1
         3         8     1
         3        46     1
         4         8     1
         4        11     1
         4        15     1
         4        46     1
         5         7     1
         5        10     1
         6         9     1
         6        12     1
         6        16     1
         6        19     1
         6        29     1
         6        33     1
         7        11     1
         7        13     1
         7        14     1
         7        17     1
         7        18     1
         7        20     1
         7        28     1
         7        46     1
         8        10     1
         8        12     1
         8        16     1
         8        19     1
         8        43     1
         8        47     1
         8        53     1
         9        15     1
         9        46     1
        10        13     1
        10        14     1
        10        15     1
        10        30     1
        10        31     1
        10        32     1
        10        34     1
        10        35     1
        10        36     1
        11        16     1
        11        19     1
        12        17     1
        12        18     1
        12        20     1
        12        28     1
        12        30     1
        12        31     1
        12        32     1
        12        34     1
        12        35     1
        12        36     1
        13        16     1
        13        19     1
        13        29     1
        13        33     1
        14        16     1
        14        19     1
        14        29     1
        14        33     1
        15        21     1
        15        25     1
        15        29     1
        15        33     1
        16        20     1
        16        22     1
        16        23     1
        16        24     1
        16        25     1
        17        20     1
        17        26     1
        17        27     1
        18        22     1
        18        23     1
        18        24     1
        18        28     1
        19        21     1
        19        26     1
        19        27     1
        19        28     1
        20        25     1
        21        25     1
        21        28     1
        29        34     1
        29        35     1
        29        36     1
        30        33     1
        31        33     1
        32        33     1
        37        44     1
        37        45     1
        37        46     1
        37        48     1
        37        49     1
        38        41     1
        38        42     1
        38        43     1
        38        47     1
        38        51     1
        38        52     1
        39        41     1
        39        42     1
        39        43     1
        39        47     1
        39        51     1
        39        52     1
        40        47     1
        40        51     1
        40        52     1
        40        53     1
        41        44     1
        41        45     1
        41        46     1
        41        50     1
        42        44     1
        42        45     1
        42        46     1
        42        50     1
        43        48     1
        43        49     1
        43        50     1
        44        47     1
        44        53     1
        45        47     1
        45        53     1
        46        51     1
        46        52     1
        48        51     1
        48        52     1
        48        53     1
        49        51     1
        49        52     1
        49        53     1
        50        53     1
