; ITP file created by ByteFF-joint-25, 2026-03-14 14:51:37.899335

[ atomtypes ]
;name           bonded.type        at.num        mass        charge   ptype           sigma         epsilon
 c0bf                                   6      0.0000       0.00000       A     3.31505e-01     4.13358e-01    ;  uncertainty sigma = 0.000009, epsilon = 0.000672
 c1bf                                   6      0.0000       0.00000       A     3.31510e-01     4.13385e-01    ;  uncertainty sigma = 0.000007, epsilon = 0.000565
 h2bf                                   1      0.0000       0.00000       A     2.62563e-01     6.71382e-02    ;  uncertainty sigma = 0.000008, epsilon = 0.000500
 c3bf                                   6      0.0000       0.00000       A     3.31523e-01     4.13778e-01    ;  uncertainty sigma = 0.000003, epsilon = 0.000961
 h4bf                                   1      0.0000       0.00000       A     2.62561e-01     6.68067e-02    ;  uncertainty sigma = 0.000012, epsilon = 0.000527
 c5bf                                   6      0.0000       0.00000       A     3.31562e-01     4.13129e-01    ;  uncertainty sigma = 0.000021, epsilon = 0.000953
 c6bf                                   6      0.0000       0.00000       A     3.31604e-01     4.12991e-01    ;  uncertainty sigma = 0.000053, epsilon = 0.001665
 c7bf                                   6      0.0000       0.00000       A     3.31543e-01     4.13398e-01    ;  uncertainty sigma = 0.000018, epsilon = 0.001289
 h8bf                                   1      0.0000       0.00000       A     2.62555e-01     6.73758e-02    ;  uncertainty sigma = 0.000015, epsilon = 0.000633
 o9bf                                   8      0.0000       0.00000       A     3.15675e-01     3.03348e-01    ;  uncertainty sigma = 0.000037, epsilon = 0.000709
 c10bf                                  6      0.0000       0.00000       A     3.39754e-01     4.50298e-01    ;  uncertainty sigma = 0.000022, epsilon = 0.001818
 c11bf                                  6      0.0000       0.00000       A     3.39729e-01     4.51261e-01    ;  uncertainty sigma = 0.000015, epsilon = 0.001388
 h12bf                                  1      0.0000       0.00000       A     2.60113e-01     8.69261e-02    ;  uncertainty sigma = 0.000018, epsilon = 0.001362
 h13bf                                  1      0.0000       0.00000       A     2.60113e-01     8.69261e-02    ;  uncertainty sigma = 0.000018, epsilon = 0.001362
 c14bf                                  6      0.0000       0.00000       A     3.39922e-01     4.52078e-01    ;  uncertainty sigma = 0.000044, epsilon = 0.005050
 c15bf                                  6      0.0000       0.00000       A     3.31534e-01     4.13061e-01    ;  uncertainty sigma = 0.000023, epsilon = 0.000770
 n16bf                                  7      0.0000       0.00000       A     3.18159e-01     6.82058e-01    ;  uncertainty sigma = 0.000074, epsilon = 0.006526
 c17bf                                  6      0.0000       0.00000       A     3.31516e-01     4.13029e-01    ;  uncertainty sigma = 0.000046, epsilon = 0.002102
 n18bf                                  7      0.0000       0.00000       A     3.27895e-01     6.51183e-01    ;  uncertainty sigma = 0.000198, epsilon = 0.011723
 h19bf                                  1      0.0000       0.00000       A     1.10796e-01     4.19443e-02    ;  uncertainty sigma = 0.000445, epsilon = 0.001840
 c20bf                                  6      0.0000       0.00000       A     3.31498e-01     4.13079e-01    ;  uncertainty sigma = 0.000008, epsilon = 0.000778
 c21bf                                  6      0.0000       0.00000       A     3.39747e-01     4.51374e-01    ;  uncertainty sigma = 0.000011, epsilon = 0.001160
 h22bf                                  1      0.0000       0.00000       A     2.42212e-01     8.67416e-02    ;  uncertainty sigma = 0.000033, epsilon = 0.000677
 h23bf                                  1      0.0000       0.00000       A     2.42212e-01     8.67416e-02    ;  uncertainty sigma = 0.000033, epsilon = 0.000677
 h24bf                                  1      0.0000       0.00000       A     2.42212e-01     8.67416e-02    ;  uncertainty sigma = 0.000033, epsilon = 0.000677
 n25bf                                  7      0.0000       0.00000       A     3.36518e-01     4.71691e-01    ;  uncertainty sigma = 0.000108, epsilon = 0.006012
 h26bf                                  1      0.0000       0.00000       A     1.10696e-01     4.11175e-02    ;  uncertainty sigma = 0.000127, epsilon = 0.001410
 h27bf                                  1      0.0000       0.00000       A     1.10696e-01     4.11175e-02    ;  uncertainty sigma = 0.000127, epsilon = 0.001410
 c28bf                                  6      0.0000       0.00000       A     3.31517e-01     4.13228e-01    ;  uncertainty sigma = 0.000003, epsilon = 0.000592
 h29bf                                  1      0.0000       0.00000       A     2.62564e-01     6.70712e-02    ;  uncertainty sigma = 0.000018, epsilon = 0.000644
 c30bf                                  6      0.0000       0.00000       A     3.31520e-01     4.13305e-01    ;  uncertainty sigma = 0.000007, epsilon = 0.000588
 h31bf                                  1      0.0000       0.00000       A     2.62565e-01     6.71316e-02    ;  uncertainty sigma = 0.000013, epsilon = 0.000533
 c32bf                                  6      0.0000       0.00000       A     3.31524e-01     4.13109e-01    ;  uncertainty sigma = 0.000005, epsilon = 0.000496
 h33bf                                  1      0.0000       0.00000       A     2.53637e-01     6.70819e-02    ;  uncertainty sigma = 0.000013, epsilon = 0.000406
 n34bf                                  7      0.0000       0.00000       A     3.38406e-01     3.93558e-01    ;  uncertainty sigma = 0.000008, epsilon = 0.000926
 c35bf                                  6      0.0000       0.00000       A     3.31516e-01     4.13344e-01    ;  uncertainty sigma = 0.000006, epsilon = 0.000642
 h36bf                                  1      0.0000       0.00000       A     2.53644e-01     6.67556e-02    ;  uncertainty sigma = 0.000027, epsilon = 0.000598
 o37bf                                  8      0.0000       0.00000       A     3.04746e-01     6.12575e-01    ;  uncertainty sigma = 0.000054, epsilon = 0.002454
 c38bf                                  6      0.0000       0.00000       A     3.39769e-01     4.50351e-01    ;  uncertainty sigma = 0.000003, epsilon = 0.001331
 h39bf                                  1      0.0000       0.00000       A     2.60031e-01     8.68008e-02    ;  uncertainty sigma = 0.000006, epsilon = 0.000320
 h40bf                                  1      0.0000       0.00000       A     2.60031e-01     8.68008e-02    ;  uncertainty sigma = 0.000006, epsilon = 0.000320
 h41bf                                  1      0.0000       0.00000       A     2.60031e-01     8.68008e-02    ;  uncertainty sigma = 0.000006, epsilon = 0.000320
 c42bf                                  6      0.0000       0.00000       A     3.39769e-01     4.50351e-01    ;  uncertainty sigma = 0.000003, epsilon = 0.001331
 h43bf                                  1      0.0000       0.00000       A     2.60031e-01     8.68008e-02    ;  uncertainty sigma = 0.000006, epsilon = 0.000319
 h44bf                                  1      0.0000       0.00000       A     2.60031e-01     8.68010e-02    ;  uncertainty sigma = 0.000006, epsilon = 0.000319
 h45bf                                  1      0.0000       0.00000       A     2.60031e-01     8.68010e-02    ;  uncertainty sigma = 0.000006, epsilon = 0.000320

[ moleculetype ]
;name             nrexcl
 MOL                   3

[ atoms ]
;       nr            type      resi   res      atom      cgnr      charge          mass ; qtot
         1            c0bf         1   UNL        c0         1    -0.03096       12.0110 ; qtot   -0.031
         2            c1bf         1   UNL        c1         2    -0.06413       12.0110 ; qtot   -0.095
         3            h2bf         1   UNL        h2         3     0.13961        1.0080 ; qtot    0.045
         4            c3bf         1   UNL        c3         4    -0.14797       12.0110 ; qtot   -0.103
         5            h4bf         1   UNL        h4         5     0.15718        1.0080 ; qtot    0.054
         6            c5bf         1   UNL        c5         6     0.18249       12.0110 ; qtot    0.236
         7            c6bf         1   UNL        c6         7    -0.20488       12.0110 ; qtot    0.031
         8            c7bf         1   UNL        c7         8    -0.06180       12.0110 ; qtot   -0.030
         9            h8bf         1   UNL        h8         9     0.15023        1.0080 ; qtot    0.120
        10            o9bf         1   UNL        o9        10    -0.32527       15.9990 ; qtot   -0.205
        11           c10bf         1   UNL       c10        11     0.16563       12.0110 ; qtot   -0.040
        12           c11bf         1   UNL       c11        12    -0.09875       12.0110 ; qtot   -0.139
        13           h12bf         1   UNL       h12        13     0.09101        1.0080 ; qtot   -0.048
        14           h13bf         1   UNL       h13        14     0.09101        1.0080 ; qtot    0.043
        15           c14bf         1   UNL       c14        15     0.04015       12.0110 ; qtot    0.084
        16           c15bf         1   UNL       c15        16     0.70447       12.0110 ; qtot    0.788
        17           n16bf         1   UNL       n16        17    -0.41729       14.0070 ; qtot    0.371
        18           c17bf         1   UNL       c17        18     0.47248       12.0110 ; qtot    0.843
        19           n18bf         1   UNL       n18        19    -0.37461       14.0070 ; qtot    0.469
        20           h19bf         1   UNL       h19        20     0.35504        1.0080 ; qtot    0.824
        21           c20bf         1   UNL       c20        21    -0.15978       12.0110 ; qtot    0.664
        22           c21bf         1   UNL       c21        22     0.07530       12.0110 ; qtot    0.739
        23           h22bf         1   UNL       h22        23     0.09109        1.0080 ; qtot    0.830
        24           h23bf         1   UNL       h23        24     0.09109        1.0080 ; qtot    0.921
        25           h24bf         1   UNL       h24        25     0.09109        1.0080 ; qtot    1.012
        26           n25bf         1   UNL       n25        26    -0.48596       14.0070 ; qtot    0.526
        27           h26bf         1   UNL       h26        27     0.33929        1.0080 ; qtot    0.866
        28           h27bf         1   UNL       h27        28     0.33929        1.0080 ; qtot    1.205
        29           c28bf         1   UNL       c28        29    -0.08321       12.0110 ; qtot    1.122
        30           h29bf         1   UNL       h29        30     0.14155        1.0080 ; qtot    1.263
        31           c30bf         1   UNL       c30        31    -0.24749       12.0110 ; qtot    1.016
        32           h31bf         1   UNL       h31        32     0.14521        1.0080 ; qtot    1.161
        33           c32bf         1   UNL       c32        33     0.39854       12.0110 ; qtot    1.560
        34           h33bf         1   UNL       h33        34     0.02336        1.0080 ; qtot    1.583
        35           n34bf         1   UNL       n34        35    -0.66136       14.0070 ; qtot    0.922
        36           c35bf         1   UNL       c35        36     0.40739       12.0110 ; qtot    1.329
        37           h36bf         1   UNL       h36        37     0.02345        1.0080 ; qtot    1.352
        38           o37bf         1   UNL       o37        38    -0.45182       15.9990 ; qtot    0.901
        39           c38bf         1   UNL       c38        39    -0.10337       12.0110 ; qtot    0.797
        40           h39bf         1   UNL       h39        40     0.05101        1.0080 ; qtot    0.848
        41           h40bf         1   UNL       h40        41     0.05101        1.0080 ; qtot    0.899
        42           h41bf         1   UNL       h41        42     0.05101        1.0080 ; qtot    0.950
        43           c42bf         1   UNL       c42        43    -0.10337       12.0110 ; qtot    0.847
        44           h43bf         1   UNL       h43        44     0.05101        1.0080 ; qtot    0.898
        45           h44bf         1   UNL       h44        45     0.05101        1.0080 ; qtot    0.949
        46           h45bf         1   UNL       h45        46     0.05102        1.0080 ; qtot    1.000

[ bonds ]
;       ai        aj funct               r               k
         1         2     1        0.140399   346710.183594    ;  uncertainty r = 0.000046, k = 4.929639
         1         8     1        0.139631   339280.672363    ;  uncertainty r = 0.000100, k = 6.684698
         1        21     1        0.147636   272434.505029    ;  uncertainty r = 0.000080, k = 4.545013
         2         3     1        0.108758   334419.121777    ;  uncertainty r = 0.000028, k = 1.545779
         2         4     1        0.138691   376500.396387    ;  uncertainty r = 0.000073, k = 3.074405
         4         5     1        0.108788   336617.637061    ;  uncertainty r = 0.000017, k = 1.411956
         4         6     1        0.140086   362230.540576    ;  uncertainty r = 0.000052, k = 3.404705
         6         7     1        0.139987   328983.803418    ;  uncertainty r = 0.000163, k = 7.293712
         6        10     1        0.136368   303578.797510    ;  uncertainty r = 0.000194, k = 10.538334
         7         8     1        0.139598   346291.119629    ;  uncertainty r = 0.000122, k = 6.656862
         7        15     1        0.150678   205784.156250    ;  uncertainty r = 0.000110, k = 20.274094
         8         9     1        0.108768   335648.988965    ;  uncertainty r = 0.000063, k = 4.223167
        10        11     1        0.145422   203859.641382    ;  uncertainty r = 0.000221, k = 9.275544
        11        12     1        0.152936   192803.911694    ;  uncertainty r = 0.000262, k = 11.274614
        11        39     1        0.152325   205847.654272    ;  uncertainty r = 0.000037, k = 5.592259
        11        43     1        0.152325   205847.654272    ;  uncertainty r = 0.000037, k = 5.592261
        12        13     1        0.109477   309561.503809    ;  uncertainty r = 0.000048, k = 2.448475
        12        14     1        0.109477   309561.503809    ;  uncertainty r = 0.000048, k = 2.448475
        12        15     1        0.153041   191194.052319    ;  uncertainty r = 0.000126, k = 21.513802
        15        16     1        0.153598   171646.122900    ;  uncertainty r = 0.000173, k = 14.753148
        15        19     1        0.149698   232215.881641    ;  uncertainty r = 0.000407, k = 51.570428
        16        17     1        0.142413   302839.344971    ;  uncertainty r = 0.000236, k = 75.996174
        16        38     1        0.120112   608584.455469    ;  uncertainty r = 0.000161, k = 10.569144
        17        18     1        0.135836   286250.770703    ;  uncertainty r = 0.000260, k = 52.766102
        17        22     1        0.146741   261825.572607    ;  uncertainty r = 0.000154, k = 17.700649
        18        19     1        0.133610   531287.609180    ;  uncertainty r = 0.000191, k = 37.526813
        18        26     1        0.133101   320485.564160    ;  uncertainty r = 0.000146, k = 40.823703
        19        20     1        0.101578   423262.955127    ;  uncertainty r = 0.000083, k = 11.557068
        21        29     1        0.140004   358557.614746    ;  uncertainty r = 0.000048, k = 3.594247
        21        36     1        0.140439   329409.966699    ;  uncertainty r = 0.000062, k = 6.287098
        22        23     1        0.109172   309495.286084    ;  uncertainty r = 0.000053, k = 3.597993
        22        24     1        0.109172   309495.286084    ;  uncertainty r = 0.000053, k = 3.597993
        22        25     1        0.109172   309495.286084    ;  uncertainty r = 0.000053, k = 3.597993
        26        27     1        0.101405   421785.735498    ;  uncertainty r = 0.000064, k = 13.590763
        26        28     1        0.101405   421785.735498    ;  uncertainty r = 0.000064, k = 13.590763
        29        30     1        0.108800   333114.992676    ;  uncertainty r = 0.000014, k = 1.379257
        29        31     1        0.139133   380646.473779    ;  uncertainty r = 0.000030, k = 1.721204
        31        32     1        0.108880   338001.773926    ;  uncertainty r = 0.000014, k = 1.254507
        31        33     1        0.139716   360881.159717    ;  uncertainty r = 0.000009, k = 2.079173
        33        34     1        0.109042   338059.794238    ;  uncertainty r = 0.000021, k = 2.477343
        33        35     1        0.133863   392320.227051    ;  uncertainty r = 0.000040, k = 4.166959
        35        36     1        0.133566   385978.443457    ;  uncertainty r = 0.000041, k = 5.314180
        36        37     1        0.109050   335000.550684    ;  uncertainty r = 0.000022, k = 2.484795
        39        40     1        0.109545   310467.151855    ;  uncertainty r = 0.000018, k = 1.787227
        39        41     1        0.109545   310467.151855    ;  uncertainty r = 0.000018, k = 1.787227
        39        42     1        0.109545   310467.151855    ;  uncertainty r = 0.000018, k = 1.787227
        43        44     1        0.109545   310467.177393    ;  uncertainty r = 0.000018, k = 1.787223
        43        45     1        0.109545   310467.177393    ;  uncertainty r = 0.000018, k = 1.787223
        43        46     1        0.109545   310467.151855    ;  uncertainty r = 0.000018, k = 1.787221

[ angles ]
;       ai        aj        ak funct           theta             cth
         1         2         3     1      118.885696      279.078214    ;  uncertainty theta = 0.001060, k = 0.094857
         1         2         4     1      120.559814      527.928981    ;  uncertainty theta = 0.002739, k = 0.058736
         1         8         7     1      123.246521      506.370745    ;  uncertainty theta = 0.004994, k = 0.225876
         1         8         9     1      118.855370      283.562945    ;  uncertainty theta = 0.002583, k = 0.041004
         1        21        29     1      122.037086      406.775699    ;  uncertainty theta = 0.003241, k = 0.048470
         1        21        36     1      120.817032      396.995146    ;  uncertainty theta = 0.003386, k = 0.082072
         2         1         8     1      119.312218      425.045235    ;  uncertainty theta = 0.003473, k = 0.144773
         2         1        21     1      121.309204      420.091131    ;  uncertainty theta = 0.001881, k = 0.176276
         2         4         5     1      121.376205      280.339811    ;  uncertainty theta = 0.001127, k = 0.032565
         2         4         6     1      119.583458      505.555281    ;  uncertainty theta = 0.002684, k = 0.150778
         3         2         4     1      119.330368      289.507601    ;  uncertainty theta = 0.001545, k = 0.066383
         4         6         7     1      120.988113      370.564749    ;  uncertainty theta = 0.002804, k = 0.132341
         4         6        10     1      118.414932      539.304551    ;  uncertainty theta = 0.003186, k = 0.119405
         5         4         6     1      120.029160      275.838512    ;  uncertainty theta = 0.003388, k = 0.140058
         6         7         8     1      121.647110      436.923693    ;  uncertainty theta = 0.004540, k = 0.113557
         6         7        15     1      120.067566      415.396868    ;  uncertainty theta = 0.008782, k = 0.219694
         6        10        11     1      114.537880      453.333553    ;  uncertainty theta = 0.006687, k = 0.093699
         7         6        10     1      123.896896      494.205441    ;  uncertainty theta = 0.004024, k = 0.262919
         7         8         9     1      117.529808      269.727035    ;  uncertainty theta = 0.003461, k = 0.147037
         7        15        12     1      110.372864      539.933530    ;  uncertainty theta = 0.001408, k = 0.155688
         7        15        16     1      108.946983      466.381260    ;  uncertainty theta = 0.003845, k = 0.382761
         7        15        19     1      110.459412      616.078039    ;  uncertainty theta = 0.004076, k = 0.312915
         8         1        21     1      120.420815      413.834444    ;  uncertainty theta = 0.001894, k = 0.218641
         8         7        15     1      118.202316      406.870506    ;  uncertainty theta = 0.004021, k = 0.173231
        10        11        12     1      109.104774      651.855785    ;  uncertainty theta = 0.004859, k = 0.084503
        10        11        39     1      107.605125      619.338362    ;  uncertainty theta = 0.001081, k = 0.064685
        10        11        43     1      107.605125      619.338362    ;  uncertainty theta = 0.001081, k = 0.064685
        11        12        13     1      107.678452      386.201185    ;  uncertainty theta = 0.003165, k = 0.032000
        11        12        14     1      107.678452      386.201185    ;  uncertainty theta = 0.003165, k = 0.032000
        11        12        15     1      109.859573      530.089357    ;  uncertainty theta = 0.006963, k = 0.198376
        11        39        40     1      107.221069      387.594393    ;  uncertainty theta = 0.001065, k = 0.069193
        11        39        41     1      107.221069      387.594393    ;  uncertainty theta = 0.001065, k = 0.069193
        11        39        42     1      107.221069      387.594393    ;  uncertainty theta = 0.001065, k = 0.069193
        11        43        44     1      107.221069      387.594393    ;  uncertainty theta = 0.001065, k = 0.069193
        11        43        45     1      107.221069      387.594393    ;  uncertainty theta = 0.001065, k = 0.069193
        11        43        46     1      107.221069      387.594393    ;  uncertainty theta = 0.001065, k = 0.069193
        12        11        39     1      109.374954      548.046988    ;  uncertainty theta = 0.004356, k = 0.115347
        12        11        43     1      109.374954      548.046988    ;  uncertainty theta = 0.004356, k = 0.115347
        12        15        16     1      107.815041      449.614520    ;  uncertainty theta = 0.007030, k = 0.162707
        12        15        19     1      109.812546      627.822301    ;  uncertainty theta = 0.007991, k = 0.271564
        13        12        14     1      106.986496      321.844668    ;  uncertainty theta = 0.004263, k = 0.066652
        13        12        15     1      106.651634      397.354709    ;  uncertainty theta = 0.003140, k = 0.080198
        14        12        15     1      106.651634      397.354709    ;  uncertainty theta = 0.003140, k = 0.080198
        15        16        17     1      110.177444      536.173446    ;  uncertainty theta = 0.011689, k = 0.712083
        15        16        38     1      125.836937      424.636769    ;  uncertainty theta = 0.006696, k = 0.210364
        15        19        18     1      111.019447      602.235777    ;  uncertainty theta = 0.016031, k = 0.385576
        15        19        20     1      118.127907      280.649385    ;  uncertainty theta = 0.015278, k = 0.121870
        16        15        19     1      103.837784      815.585302    ;  uncertainty theta = 0.012174, k = 0.852514
        16        17        18     1      110.293701      728.609291    ;  uncertainty theta = 0.010426, k = 0.320486
        16        17        22     1      119.398109      397.513773    ;  uncertainty theta = 0.006832, k = 0.281808
        17        16        38     1      125.307961      629.051912    ;  uncertainty theta = 0.008036, k = 0.165829
        17        18        19     1      113.250023      720.106327    ;  uncertainty theta = 0.006756, k = 0.305315
        17        18        26     1      125.598953      549.524885    ;  uncertainty theta = 0.008546, k = 0.324469
        17        22        23     1      107.360855      470.851946    ;  uncertainty theta = 0.002522, k = 0.203983
        17        22        24     1      107.360855      470.851946    ;  uncertainty theta = 0.002522, k = 0.203983
        17        22        25     1      107.360855      470.851946    ;  uncertainty theta = 0.002522, k = 0.203983
        18        17        22     1      118.646042      371.786540    ;  uncertainty theta = 0.007230, k = 0.373049
        18        19        20     1      119.824707      355.581520    ;  uncertainty theta = 0.006083, k = 0.153034
        18        26        27     1      114.903091      371.138312    ;  uncertainty theta = 0.001582, k = 0.210952
        18        26        28     1      114.903091      371.138312    ;  uncertainty theta = 0.001582, k = 0.210952
        19        18        26     1      128.730377      637.313550    ;  uncertainty theta = 0.008927, k = 0.256741
        21        29        30     1      119.529373      276.103013    ;  uncertainty theta = 0.001791, k = 0.058703
        21        29        31     1      119.130104      532.626150    ;  uncertainty theta = 0.001978, k = 0.050502
        21        36        35     1      124.832314      707.124219    ;  uncertainty theta = 0.001655, k = 0.122537
        21        36        37     1      119.006821      265.437535    ;  uncertainty theta = 0.002938, k = 0.066231
        23        22        24     1      107.634499      325.466948    ;  uncertainty theta = 0.003233, k = 0.098676
        23        22        25     1      107.634499      325.466948    ;  uncertainty theta = 0.003233, k = 0.098676
        24        22        25     1      107.634499      325.466948    ;  uncertainty theta = 0.003233, k = 0.098676
        27        26        28     1      112.323524      263.743259    ;  uncertainty theta = 0.015210, k = 0.362876
        29        21        36     1      117.959534      398.376863    ;  uncertainty theta = 0.003182, k = 0.215721
        29        31        32     1      121.657455      282.322352    ;  uncertainty theta = 0.001000, k = 0.053822
        29        31        33     1      117.107948      476.142373    ;  uncertainty theta = 0.001507, k = 0.042760
        30        29        31     1      120.802551      287.799999    ;  uncertainty theta = 0.001098, k = 0.057352
        31        33        34     1      120.739769      279.139758    ;  uncertainty theta = 0.001316, k = 0.021431
        31        33        35     1      122.531776      699.502030    ;  uncertainty theta = 0.001608, k = 0.061832
        32        31        33     1      121.649521      288.005892    ;  uncertainty theta = 0.000993, k = 0.094236
        33        35        36     1      116.530052      406.832200    ;  uncertainty theta = 0.002797, k = 0.106494
        34        33        35     1      116.264793      336.295416    ;  uncertainty theta = 0.001599, k = 0.036958
        35        36        37     1      116.224831      342.746090    ;  uncertainty theta = 0.001259, k = 0.076455
        39        11        43     1      110.900230      580.347282    ;  uncertainty theta = 0.002949, k = 0.067890
        40        39        41     1      106.043396      316.610518    ;  uncertainty theta = 0.000878, k = 0.018252
        40        39        42     1      106.043396      316.610518    ;  uncertainty theta = 0.000878, k = 0.018252
        41        39        42     1      106.043396      316.610518    ;  uncertainty theta = 0.000878, k = 0.018252
        44        43        45     1      106.043396      316.610518    ;  uncertainty theta = 0.000878, k = 0.018253
        44        43        46     1      106.043396      316.610518    ;  uncertainty theta = 0.000878, k = 0.018253
        45        43        46     1      106.043411      316.610518    ;  uncertainty theta = 0.000878, k = 0.018253

[ dihedrals ] ; propers for gromacs 4.5 or higher, use funct 9
;       ai        aj        ak        al funct           phase               k        pn
         1         2         4         5     9        0.000000        0.075003         1    ;  uncertainty k = 0.055914
         1         2         4         5     9      180.000000        8.402236         2    ;  uncertainty k = 0.414247
         1         2         4         5     9        0.000000        1.367633         3    ;  uncertainty k = 0.279781
         1         2         4         5     9      180.000000        1.899518         4    ;  uncertainty k = 0.236831
         1         2         4         6     9        0.000000       -0.079971         1    ;  uncertainty k = 0.403356
         1         2         4         6     9      180.000000       14.138488         2    ;  uncertainty k = 0.252304
         1         2         4         6     9        0.000000       -0.315127         3    ;  uncertainty k = 0.427938
         1         2         4         6     9      180.000000        0.932076         4    ;  uncertainty k = 0.233711
         1         8         7         6     9        0.000000       -0.294130         1    ;  uncertainty k = 0.209284
         1         8         7         6     9      180.000000       11.012520         2    ;  uncertainty k = 0.493598
         1         8         7         6     9        0.000000       -0.059688         3    ;  uncertainty k = 0.114488
         1         8         7         6     9      180.000000        1.139970         4    ;  uncertainty k = 0.350709
         1         8         7        15     9        0.000000        0.382119         1    ;  uncertainty k = 0.225242
         1         8         7        15     9      180.000000        8.912511         2    ;  uncertainty k = 0.420585
         1         8         7        15     9        0.000000        1.655902         3    ;  uncertainty k = 0.178092
         1         8         7        15     9      180.000000        1.929455         4    ;  uncertainty k = 0.379356
         1        21        29        30     9        0.000000       -0.209657         1    ;  uncertainty k = 0.394565
         1        21        29        30     9      180.000000        7.223962         2    ;  uncertainty k = 0.373148
         1        21        29        30     9        0.000000        0.862314         3    ;  uncertainty k = 0.202477
         1        21        29        30     9      180.000000        1.153990         4    ;  uncertainty k = 0.240226
         1        21        29        31     9        0.000000        0.053199         1    ;  uncertainty k = 0.296239
         1        21        29        31     9      180.000000        8.930972         2    ;  uncertainty k = 0.423030
         1        21        29        31     9        0.000000        1.350418         3    ;  uncertainty k = 0.484804
         1        21        29        31     9      180.000000        1.791070         4    ;  uncertainty k = 0.161583
         1        21        36        35     9        0.000000        0.139290         1    ;  uncertainty k = 0.262718
         1        21        36        35     9      180.000000        9.476767         2    ;  uncertainty k = 0.255251
         1        21        36        35     9        0.000000        1.060386         3    ;  uncertainty k = 0.336914
         1        21        36        35     9      180.000000        1.714812         4    ;  uncertainty k = 0.197060
         1        21        36        37     9        0.000000       -0.486185         1    ;  uncertainty k = 0.818354
         1        21        36        37     9      180.000000        6.219584         2    ;  uncertainty k = 0.805370
         1        21        36        37     9        0.000000        0.824177         3    ;  uncertainty k = 0.176717
         1        21        36        37     9      180.000000        1.109267         4    ;  uncertainty k = 0.233630
         2         1         8         7     9        0.000000        0.151038         1    ;  uncertainty k = 0.470576
         2         1         8         7     9      180.000000       10.554910         2    ;  uncertainty k = 0.359598
         2         1         8         7     9        0.000000       -0.193806         3    ;  uncertainty k = 0.361803
         2         1         8         7     9      180.000000        1.144222         4    ;  uncertainty k = 0.396306
         2         1         8         9     9        0.000000        0.106987         1    ;  uncertainty k = 0.304730
         2         1         8         9     9      180.000000        7.351130         2    ;  uncertainty k = 0.640622
         2         1         8         9     9        0.000000        1.351763         3    ;  uncertainty k = 0.203719
         2         1         8         9     9      180.000000        1.666764         4    ;  uncertainty k = 0.255043
         2         1        21        29     9        0.000000       -0.507470         1    ;  uncertainty k = 0.469997
         2         1        21        29     9      180.000000        3.761847         2    ;  uncertainty k = 0.109746
         2         1        21        29     9        0.000000        0.373249         3    ;  uncertainty k = 0.159407
         2         1        21        29     9      180.000000       -0.105928         4    ;  uncertainty k = 0.053560
         2         1        21        36     9        0.000000       -0.246810         1    ;  uncertainty k = 0.712903
         2         1        21        36     9      180.000000        3.363041         2    ;  uncertainty k = 0.095501
         2         1        21        36     9        0.000000        0.385210         3    ;  uncertainty k = 0.163849
         2         1        21        36     9      180.000000       -0.149103         4    ;  uncertainty k = 0.036452
         2         4         6         7     9        0.000000        0.211430         1    ;  uncertainty k = 0.423245
         2         4         6         7     9      180.000000        7.763002         2    ;  uncertainty k = 0.555229
         2         4         6         7     9        0.000000        0.203862         3    ;  uncertainty k = 0.544956
         2         4         6         7     9      180.000000        1.300091         4    ;  uncertainty k = 0.239010
         2         4         6        10     9        0.000000        0.361329         1    ;  uncertainty k = 0.218714
         2         4         6        10     9      180.000000       11.444655         2    ;  uncertainty k = 0.286512
         2         4         6        10     9        0.000000        1.318811         3    ;  uncertainty k = 0.218660
         2         4         6        10     9      180.000000        1.540108         4    ;  uncertainty k = 0.135774
         3         2         1         8     9        0.000000        0.137535         1    ;  uncertainty k = 0.204629
         3         2         1         8     9      180.000000        6.720981         2    ;  uncertainty k = 0.479215
         3         2         1         8     9        0.000000        1.337663         3    ;  uncertainty k = 0.257913
         3         2         1         8     9      180.000000        1.546876         4    ;  uncertainty k = 0.261948
         3         2         1        21     9        0.000000       -0.259620         1    ;  uncertainty k = 0.342820
         3         2         1        21     9      180.000000        7.158733         2    ;  uncertainty k = 0.357381
         3         2         1        21     9        0.000000        0.861618         3    ;  uncertainty k = 0.149371
         3         2         1        21     9      180.000000        1.157391         4    ;  uncertainty k = 0.215350
         3         2         4         5     9        0.000000        0.043097         1    ;  uncertainty k = 0.388506
         3         2         4         5     9      180.000000        8.020316         2    ;  uncertainty k = 0.286960
         3         2         4         5     9        0.000000       -0.395294         3    ;  uncertainty k = 0.352627
         3         2         4         5     9      180.000000        0.202059         4    ;  uncertainty k = 0.135492
         3         2         4         6     9        0.000000        0.298667         1    ;  uncertainty k = 0.254598
         3         2         4         6     9      180.000000        8.799836         2    ;  uncertainty k = 0.420559
         3         2         4         6     9        0.000000        1.331757         3    ;  uncertainty k = 0.305828
         3         2         4         6     9      180.000000        1.726710         4    ;  uncertainty k = 0.213269
         4         2         1         8     9        0.000000        0.030996         1    ;  uncertainty k = 0.256025
         4         2         1         8     9      180.000000       10.602705         2    ;  uncertainty k = 0.288391
         4         2         1         8     9        0.000000       -0.446224         3    ;  uncertainty k = 0.265543
         4         2         1         8     9      180.000000        1.009088         4    ;  uncertainty k = 0.157253
         4         2         1        21     9        0.000000       -0.006137         1    ;  uncertainty k = 0.256568
         4         2         1        21     9      180.000000        8.259906         2    ;  uncertainty k = 0.502955
         4         2         1        21     9        0.000000        1.071769         3    ;  uncertainty k = 0.399959
         4         2         1        21     9      180.000000        1.804143         4    ;  uncertainty k = 0.172719
         4         6         7         8     9        0.000000       -0.032783         1    ;  uncertainty k = 0.188300
         4         6         7         8     9      180.000000        6.927902         2    ;  uncertainty k = 0.470102
         4         6         7         8     9        0.000000        0.361196         3    ;  uncertainty k = 0.286900
         4         6         7         8     9      180.000000        1.355400         4    ;  uncertainty k = 0.250869
         4         6         7        15     9        0.000000        0.348936         1    ;  uncertainty k = 0.173792
         4         6         7        15     9      180.000000        5.007785         2    ;  uncertainty k = 0.411252
         4         6         7        15     9        0.000000        1.468368         3    ;  uncertainty k = 0.261774
         4         6         7        15     9      180.000000        1.669236         4    ;  uncertainty k = 0.209866
         4         6        10        11     9        0.000000       -0.006126         1    ;  uncertainty k = 0.860183
         4         6        10        11     9      180.000000        1.463692         2    ;  uncertainty k = 0.468672
         4         6        10        11     9        0.000000        0.942767         3    ;  uncertainty k = 0.141382
         4         6        10        11     9      180.000000        0.269400         4    ;  uncertainty k = 0.169428
         5         4         6         7     9        0.000000        0.319225         1    ;  uncertainty k = 0.558349
         5         4         6         7     9      180.000000        5.772400         2    ;  uncertainty k = 0.428880
         5         4         6         7     9        0.000000        1.337220         3    ;  uncertainty k = 0.195636
         5         4         6         7     9      180.000000        1.401976         4    ;  uncertainty k = 0.132735
         5         4         6        10     9        0.000000       -0.143362         1    ;  uncertainty k = 0.595170
         5         4         6        10     9      180.000000        8.971333         2    ;  uncertainty k = 0.422660
         5         4         6        10     9        0.000000        0.767158         3    ;  uncertainty k = 0.278987
         5         4         6        10     9      180.000000        1.249859         4    ;  uncertainty k = 0.280971
         6         7         8         9     9        0.000000        0.259477         1    ;  uncertainty k = 0.448671
         6         7         8         9     9      180.000000        7.894167         2    ;  uncertainty k = 0.719063
         6         7         8         9     9        0.000000        1.268542         3    ;  uncertainty k = 0.216024
         6         7         8         9     9      180.000000        1.655629         4    ;  uncertainty k = 0.157247
         6         7        15        12     9        0.000000       -0.553827         1    ;  uncertainty k = 1.466850
         6         7        15        12     9      180.000000        0.634513         2    ;  uncertainty k = 0.585096
         6         7        15        12     9        0.000000        0.297861         3    ;  uncertainty k = 0.330861
         6         7        15        12     9      180.000000        0.274107         4    ;  uncertainty k = 0.208342
         6         7        15        16     9        0.000000        2.102711         1    ;  uncertainty k = 2.528117
         6         7        15        16     9      180.000000        0.546699         2    ;  uncertainty k = 1.018065
         6         7        15        16     9        0.000000        0.457522         3    ;  uncertainty k = 0.289759
         6         7        15        16     9      180.000000        0.336866         4    ;  uncertainty k = 0.183129
         6         7        15        19     9        0.000000       -1.847813         1    ;  uncertainty k = 1.697254
         6         7        15        19     9      180.000000        1.430867         2    ;  uncertainty k = 0.383928
         6         7        15        19     9        0.000000        0.601224         3    ;  uncertainty k = 0.476577
         6         7        15        19     9      180.000000        0.025936         4    ;  uncertainty k = 0.174308
         6        10        11        12     9        0.000000        4.367104         1    ;  uncertainty k = 0.568224
         6        10        11        12     9      180.000000       -1.721484         2    ;  uncertainty k = 1.273231
         6        10        11        12     9        0.000000       -0.456864         3    ;  uncertainty k = 0.472174
         6        10        11        12     9      180.000000        0.328459         4    ;  uncertainty k = 0.236646
         6        10        11        39     9        0.000000       -1.366436         1    ;  uncertainty k = 0.443902
         6        10        11        39     9      180.000000        1.117989         2    ;  uncertainty k = 0.670204
         6        10        11        39     9        0.000000        0.420512         3    ;  uncertainty k = 0.232671
         6        10        11        39     9      180.000000        0.169724         4    ;  uncertainty k = 0.171412
         6        10        11        43     9        0.000000       -1.366437         1    ;  uncertainty k = 0.443902
         6        10        11        43     9      180.000000        1.117989         2    ;  uncertainty k = 0.670204
         6        10        11        43     9        0.000000        0.420512         3    ;  uncertainty k = 0.232671
         6        10        11        43     9      180.000000        0.169724         4    ;  uncertainty k = 0.171412
         7         6        10        11     9        0.000000        4.306086         1    ;  uncertainty k = 1.768452
         7         6        10        11     9      180.000000       -1.360044         2    ;  uncertainty k = 1.430514
         7         6        10        11     9        0.000000       -0.393906         3    ;  uncertainty k = 0.710259
         7         6        10        11     9      180.000000        0.655626         4    ;  uncertainty k = 0.252123
         7         8         1        21     9        0.000000        0.401528         1    ;  uncertainty k = 0.526591
         7         8         1        21     9      180.000000        8.878583         2    ;  uncertainty k = 0.386917
         7         8         1        21     9        0.000000        1.276380         3    ;  uncertainty k = 0.298346
         7         8         1        21     9      180.000000        1.655958         4    ;  uncertainty k = 0.133330
         7        15        12        11     9        0.000000        1.962873         1    ;  uncertainty k = 1.227303
         7        15        12        11     9      180.000000       -1.078194         2    ;  uncertainty k = 0.502447
         7        15        12        11     9        0.000000        0.369332         3    ;  uncertainty k = 0.176636
         7        15        12        11     9      180.000000       -0.278406         4    ;  uncertainty k = 0.249392
         7        15        12        13     9        0.000000       -0.179115         1    ;  uncertainty k = 0.140621
         7        15        12        13     9      180.000000        0.089626         2    ;  uncertainty k = 0.458905
         7        15        12        13     9        0.000000        0.456477         3    ;  uncertainty k = 0.237033
         7        15        12        13     9      180.000000       -0.095026         4    ;  uncertainty k = 0.141404
         7        15        12        14     9        0.000000       -0.179115         1    ;  uncertainty k = 0.140621
         7        15        12        14     9      180.000000        0.089626         2    ;  uncertainty k = 0.458905
         7        15        12        14     9        0.000000        0.456477         3    ;  uncertainty k = 0.237033
         7        15        12        14     9      180.000000       -0.095026         4    ;  uncertainty k = 0.141404
         7        15        16        17     9        0.000000       -2.280413         1    ;  uncertainty k = 2.717071
         7        15        16        17     9      180.000000        2.456409         2    ;  uncertainty k = 1.222701
         7        15        16        17     9        0.000000        1.453247         3    ;  uncertainty k = 0.188385
         7        15        16        17     9      180.000000        0.681716         4    ;  uncertainty k = 0.441731
         7        15        16        38     9        0.000000       -0.746002         1    ;  uncertainty k = 2.339484
         7        15        16        38     9      180.000000        3.144072         2    ;  uncertainty k = 0.500305
         7        15        16        38     9        0.000000        0.221997         3    ;  uncertainty k = 0.280085
         7        15        16        38     9      180.000000        0.150864         4    ;  uncertainty k = 0.276471
         7        15        19        18     9        0.000000        0.863486         1    ;  uncertainty k = 1.247542
         7        15        19        18     9      180.000000        0.544772         2    ;  uncertainty k = 0.542404
         7        15        19        18     9        0.000000        0.864493         3    ;  uncertainty k = 0.370882
         7        15        19        18     9      180.000000        0.387103         4    ;  uncertainty k = 0.143943
         7        15        19        20     9        0.000000        0.953248         1    ;  uncertainty k = 2.750545
         7        15        19        20     9      180.000000       -1.060847         2    ;  uncertainty k = 1.247198
         7        15        19        20     9        0.000000        0.527755         3    ;  uncertainty k = 0.498974
         7        15        19        20     9      180.000000       -0.043717         4    ;  uncertainty k = 0.110691
         8         1        21        29     9        0.000000       -0.509574         1    ;  uncertainty k = 0.554681
         8         1        21        29     9      180.000000        3.994212         2    ;  uncertainty k = 0.275821
         8         1        21        29     9        0.000000        0.330469         3    ;  uncertainty k = 0.218206
         8         1        21        29     9      180.000000       -0.028130         4    ;  uncertainty k = 0.090608
         8         1        21        36     9        0.000000       -0.447342         1    ;  uncertainty k = 0.587989
         8         1        21        36     9      180.000000        3.537814         2    ;  uncertainty k = 0.143908
         8         1        21        36     9        0.000000        0.385908         3    ;  uncertainty k = 0.251124
         8         1        21        36     9      180.000000       -0.101154         4    ;  uncertainty k = 0.076311
         8         7         6        10     9        0.000000        0.511013         1    ;  uncertainty k = 0.326397
         8         7         6        10     9      180.000000        8.132895         2    ;  uncertainty k = 0.230001
         8         7         6        10     9        0.000000        1.512052         3    ;  uncertainty k = 0.280651
         8         7         6        10     9      180.000000        1.559240         4    ;  uncertainty k = 0.196063
         8         7        15        12     9        0.000000       -0.670232         1    ;  uncertainty k = 1.143317
         8         7        15        12     9      180.000000        0.995758         2    ;  uncertainty k = 0.405868
         8         7        15        12     9        0.000000       -0.287435         3    ;  uncertainty k = 0.380723
         8         7        15        12     9      180.000000        0.164078         4    ;  uncertainty k = 0.187370
         8         7        15        16     9        0.000000        0.883988         1    ;  uncertainty k = 1.976203
         8         7        15        16     9      180.000000        0.164829         2    ;  uncertainty k = 0.594298
         8         7        15        16     9        0.000000        0.125947         3    ;  uncertainty k = 0.272429
         8         7        15        16     9      180.000000        0.319895         4    ;  uncertainty k = 0.132196
         8         7        15        19     9        0.000000       -0.399884         1    ;  uncertainty k = 0.853357
         8         7        15        19     9      180.000000        1.968707         2    ;  uncertainty k = 0.392592
         8         7        15        19     9        0.000000       -0.052514         3    ;  uncertainty k = 0.364597
         8         7        15        19     9      180.000000        0.089645         4    ;  uncertainty k = 0.253695
         9         8         1        21     9        0.000000       -0.152827         1    ;  uncertainty k = 0.239066
         9         8         1        21     9      180.000000        7.434983         2    ;  uncertainty k = 0.313068
         9         8         1        21     9        0.000000        0.887382         3    ;  uncertainty k = 0.156423
         9         8         1        21     9      180.000000        1.313113         4    ;  uncertainty k = 0.151878
         9         8         7        15     9        0.000000       -0.370239         1    ;  uncertainty k = 0.433009
         9         8         7        15     9      180.000000        6.786117         2    ;  uncertainty k = 0.310123
         9         8         7        15     9        0.000000        0.969577         3    ;  uncertainty k = 0.299803
         9         8         7        15     9      180.000000        1.272312         4    ;  uncertainty k = 0.231144
        10         6         7        15     9        0.000000        0.498340         1    ;  uncertainty k = 0.988077
        10         6         7        15     9      180.000000        5.670085         2    ;  uncertainty k = 0.712561
        10         6         7        15     9        0.000000        1.748936         3    ;  uncertainty k = 0.456836
        10         6         7        15     9      180.000000        1.062497         4    ;  uncertainty k = 0.416589
        10        11        12        13     9        0.000000       -1.286357         1    ;  uncertainty k = 0.418982
        10        11        12        13     9      180.000000       -0.843337         2    ;  uncertainty k = 0.564487
        10        11        12        13     9        0.000000        0.398057         3    ;  uncertainty k = 0.233267
        10        11        12        13     9      180.000000       -0.189590         4    ;  uncertainty k = 0.165011
        10        11        12        14     9        0.000000       -1.286357         1    ;  uncertainty k = 0.418982
        10        11        12        14     9      180.000000       -0.843337         2    ;  uncertainty k = 0.564487
        10        11        12        14     9        0.000000        0.398057         3    ;  uncertainty k = 0.233267
        10        11        12        14     9      180.000000       -0.189590         4    ;  uncertainty k = 0.165011
        10        11        12        15     9        0.000000        7.476954         1    ;  uncertainty k = 0.712372
        10        11        12        15     9      180.000000       -4.264125         2    ;  uncertainty k = 1.996416
        10        11        12        15     9        0.000000       -0.268865         3    ;  uncertainty k = 0.560592
        10        11        12        15     9      180.000000       -0.018620         4    ;  uncertainty k = 0.403705
        10        11        39        40     9        0.000000       -0.556687         1    ;  uncertainty k = 0.641512
        10        11        39        40     9      180.000000       -2.127824         2    ;  uncertainty k = 0.599046
        10        11        39        40     9        0.000000        0.863808         3    ;  uncertainty k = 0.110663
        10        11        39        40     9      180.000000       -0.195070         4    ;  uncertainty k = 0.150407
        10        11        39        41     9        0.000000       -0.556687         1    ;  uncertainty k = 0.641512
        10        11        39        41     9      180.000000       -2.127824         2    ;  uncertainty k = 0.599046
        10        11        39        41     9        0.000000        0.863808         3    ;  uncertainty k = 0.110663
        10        11        39        41     9      180.000000       -0.195070         4    ;  uncertainty k = 0.150407
        10        11        39        42     9        0.000000       -0.556687         1    ;  uncertainty k = 0.641512
        10        11        39        42     9      180.000000       -2.127824         2    ;  uncertainty k = 0.599046
        10        11        39        42     9        0.000000        0.863808         3    ;  uncertainty k = 0.110663
        10        11        39        42     9      180.000000       -0.195070         4    ;  uncertainty k = 0.150407
        10        11        43        44     9        0.000000       -0.556686         1    ;  uncertainty k = 0.641512
        10        11        43        44     9      180.000000       -2.127823         2    ;  uncertainty k = 0.599046
        10        11        43        44     9        0.000000        0.863808         3    ;  uncertainty k = 0.110663
        10        11        43        44     9      180.000000       -0.195070         4    ;  uncertainty k = 0.150407
        10        11        43        45     9        0.000000       -0.556686         1    ;  uncertainty k = 0.641512
        10        11        43        45     9      180.000000       -2.127823         2    ;  uncertainty k = 0.599046
        10        11        43        45     9        0.000000        0.863808         3    ;  uncertainty k = 0.110663
        10        11        43        45     9      180.000000       -0.195070         4    ;  uncertainty k = 0.150407
        10        11        43        46     9        0.000000       -0.556686         1    ;  uncertainty k = 0.641512
        10        11        43        46     9      180.000000       -2.127823         2    ;  uncertainty k = 0.599046
        10        11        43        46     9        0.000000        0.863808         3    ;  uncertainty k = 0.110663
        10        11        43        46     9      180.000000       -0.195070         4    ;  uncertainty k = 0.150407
        11        12        15        16     9        0.000000       -1.228978         1    ;  uncertainty k = 1.347491
        11        12        15        16     9      180.000000       -0.515847         2    ;  uncertainty k = 0.500825
        11        12        15        16     9        0.000000        0.433214         3    ;  uncertainty k = 0.247206
        11        12        15        16     9      180.000000       -0.080465         4    ;  uncertainty k = 0.226810
        11        12        15        19     9        0.000000       -2.978696         1    ;  uncertainty k = 1.009148
        11        12        15        19     9      180.000000       -1.349812         2    ;  uncertainty k = 1.012802
        11        12        15        19     9        0.000000        1.198772         3    ;  uncertainty k = 0.505782
        11        12        15        19     9      180.000000        0.002053         4    ;  uncertainty k = 0.225805
        12        11        39        40     9        0.000000       -0.810618         1    ;  uncertainty k = 0.476463
        12        11        39        40     9      180.000000       -0.740441         2    ;  uncertainty k = 0.208397
        12        11        39        40     9        0.000000        0.585176         3    ;  uncertainty k = 0.093112
        12        11        39        40     9      180.000000       -0.179618         4    ;  uncertainty k = 0.029902
        12        11        39        41     9        0.000000       -0.810618         1    ;  uncertainty k = 0.476463
        12        11        39        41     9      180.000000       -0.740441         2    ;  uncertainty k = 0.208397
        12        11        39        41     9        0.000000        0.585176         3    ;  uncertainty k = 0.093112
        12        11        39        41     9      180.000000       -0.179618         4    ;  uncertainty k = 0.029902
        12        11        39        42     9        0.000000       -0.810618         1    ;  uncertainty k = 0.476463
        12        11        39        42     9      180.000000       -0.740441         2    ;  uncertainty k = 0.208397
        12        11        39        42     9        0.000000        0.585176         3    ;  uncertainty k = 0.093112
        12        11        39        42     9      180.000000       -0.179618         4    ;  uncertainty k = 0.029902
        12        11        43        44     9        0.000000       -0.810617         1    ;  uncertainty k = 0.476463
        12        11        43        44     9      180.000000       -0.740442         2    ;  uncertainty k = 0.208397
        12        11        43        44     9        0.000000        0.585176         3    ;  uncertainty k = 0.093112
        12        11        43        44     9      180.000000       -0.179618         4    ;  uncertainty k = 0.029902
        12        11        43        45     9        0.000000       -0.810617         1    ;  uncertainty k = 0.476463
        12        11        43        45     9      180.000000       -0.740442         2    ;  uncertainty k = 0.208397
        12        11        43        45     9        0.000000        0.585176         3    ;  uncertainty k = 0.093112
        12        11        43        45     9      180.000000       -0.179618         4    ;  uncertainty k = 0.029902
        12        11        43        46     9        0.000000       -0.810617         1    ;  uncertainty k = 0.476463
        12        11        43        46     9      180.000000       -0.740442         2    ;  uncertainty k = 0.208397
        12        11        43        46     9        0.000000        0.585176         3    ;  uncertainty k = 0.093112
        12        11        43        46     9      180.000000       -0.179618         4    ;  uncertainty k = 0.029902
        12        15        16        17     9        0.000000       -3.062352         1    ;  uncertainty k = 1.276839
        12        15        16        17     9      180.000000        2.894127         2    ;  uncertainty k = 0.258587
        12        15        16        17     9        0.000000        0.860445         3    ;  uncertainty k = 0.091746
        12        15        16        17     9      180.000000        0.587117         4    ;  uncertainty k = 0.338988
        12        15        16        38     9        0.000000       -0.574293         1    ;  uncertainty k = 2.046093
        12        15        16        38     9      180.000000        3.928919         2    ;  uncertainty k = 1.075275
        12        15        16        38     9        0.000000        0.161227         3    ;  uncertainty k = 0.381109
        12        15        16        38     9      180.000000        0.057219         4    ;  uncertainty k = 0.338212
        12        15        19        18     9        0.000000       -0.720184         1    ;  uncertainty k = 0.363423
        12        15        19        18     9      180.000000        1.466373         2    ;  uncertainty k = 0.671882
        12        15        19        18     9        0.000000        0.362475         3    ;  uncertainty k = 0.242092
        12        15        19        18     9      180.000000        0.276221         4    ;  uncertainty k = 0.143829
        12        15        19        20     9        0.000000        1.014477         1    ;  uncertainty k = 3.207548
        12        15        19        20     9      180.000000       -0.447186         2    ;  uncertainty k = 0.880594
        12        15        19        20     9        0.000000        0.406773         3    ;  uncertainty k = 0.479851
        12        15        19        20     9      180.000000        0.075628         4    ;  uncertainty k = 0.078933
        13        12        11        39     9        0.000000       -0.868529         1    ;  uncertainty k = 0.359709
        13        12        11        39     9      180.000000        0.339049         2    ;  uncertainty k = 0.271426
        13        12        11        39     9        0.000000        0.030221         3    ;  uncertainty k = 0.169820
        13        12        11        39     9      180.000000       -0.198172         4    ;  uncertainty k = 0.102798
        13        12        11        43     9        0.000000       -0.868529         1    ;  uncertainty k = 0.359708
        13        12        11        43     9      180.000000        0.339049         2    ;  uncertainty k = 0.271426
        13        12        11        43     9        0.000000        0.030221         3    ;  uncertainty k = 0.169820
        13        12        11        43     9      180.000000       -0.198172         4    ;  uncertainty k = 0.102797
        13        12        15        16     9        0.000000        0.636693         1    ;  uncertainty k = 0.443881
        13        12        15        16     9      180.000000       -1.082830         2    ;  uncertainty k = 0.432291
        13        12        15        16     9        0.000000        0.083911         3    ;  uncertainty k = 0.203429
        13        12        15        16     9      180.000000       -0.053905         4    ;  uncertainty k = 0.095175
        13        12        15        19     9        0.000000       -1.014378         1    ;  uncertainty k = 0.666771
        13        12        15        19     9      180.000000       -0.206347         2    ;  uncertainty k = 0.431023
        13        12        15        19     9        0.000000        0.529827         3    ;  uncertainty k = 0.228576
        13        12        15        19     9      180.000000       -0.286824         4    ;  uncertainty k = 0.129461
        14        12        11        39     9        0.000000       -0.868529         1    ;  uncertainty k = 0.359709
        14        12        11        39     9      180.000000        0.339049         2    ;  uncertainty k = 0.271426
        14        12        11        39     9        0.000000        0.030221         3    ;  uncertainty k = 0.169820
        14        12        11        39     9      180.000000       -0.198172         4    ;  uncertainty k = 0.102798
        14        12        11        43     9        0.000000       -0.868529         1    ;  uncertainty k = 0.359708
        14        12        11        43     9      180.000000        0.339049         2    ;  uncertainty k = 0.271426
        14        12        11        43     9        0.000000        0.030221         3    ;  uncertainty k = 0.169820
        14        12        11        43     9      180.000000       -0.198172         4    ;  uncertainty k = 0.102797
        14        12        15        16     9        0.000000        0.636693         1    ;  uncertainty k = 0.443881
        14        12        15        16     9      180.000000       -1.082830         2    ;  uncertainty k = 0.432291
        14        12        15        16     9        0.000000        0.083911         3    ;  uncertainty k = 0.203429
        14        12        15        16     9      180.000000       -0.053905         4    ;  uncertainty k = 0.095175
        14        12        15        19     9        0.000000       -1.014378         1    ;  uncertainty k = 0.666771
        14        12        15        19     9      180.000000       -0.206347         2    ;  uncertainty k = 0.431023
        14        12        15        19     9        0.000000        0.529827         3    ;  uncertainty k = 0.228576
        14        12        15        19     9      180.000000       -0.286824         4    ;  uncertainty k = 0.129461
        15        12        11        39     9        0.000000       -0.394043         1    ;  uncertainty k = 0.952251
        15        12        11        39     9      180.000000       -0.298782         2    ;  uncertainty k = 0.210060
        15        12        11        39     9        0.000000        0.102279         3    ;  uncertainty k = 0.252570
        15        12        11        39     9      180.000000       -0.158350         4    ;  uncertainty k = 0.062640
        15        12        11        43     9        0.000000       -0.394043         1    ;  uncertainty k = 0.952250
        15        12        11        43     9      180.000000       -0.298783         2    ;  uncertainty k = 0.210060
        15        12        11        43     9        0.000000        0.102279         3    ;  uncertainty k = 0.252570
        15        12        11        43     9      180.000000       -0.158350         4    ;  uncertainty k = 0.062640
        15        16        17        18     9        0.000000        3.190561         1    ;  uncertainty k = 2.129282
        15        16        17        18     9      180.000000        4.165518         2    ;  uncertainty k = 2.103257
        15        16        17        18     9        0.000000       -0.163634         3    ;  uncertainty k = 0.825879
        15        16        17        18     9      180.000000        0.629686         4    ;  uncertainty k = 0.355315
        15        16        17        22     9        0.000000        4.948398         1    ;  uncertainty k = 2.742746
        15        16        17        22     9      180.000000        3.665595         2    ;  uncertainty k = 2.655463
        15        16        17        22     9        0.000000        1.132038         3    ;  uncertainty k = 0.860259
        15        16        17        22     9      180.000000        0.328976         4    ;  uncertainty k = 0.593114
        15        19        18        17     9        0.000000        1.152348         1    ;  uncertainty k = 2.624975
        15        19        18        17     9      180.000000       15.352878         2    ;  uncertainty k = 0.482590
        15        19        18        17     9        0.000000       -0.706329         3    ;  uncertainty k = 1.011989
        15        19        18        17     9      180.000000       -0.606106         4    ;  uncertainty k = 0.206718
        15        19        18        26     9        0.000000        3.692759         1    ;  uncertainty k = 0.866356
        15        19        18        26     9      180.000000       11.333780         2    ;  uncertainty k = 0.611404
        15        19        18        26     9        0.000000        0.314850         3    ;  uncertainty k = 0.239643
        15        19        18        26     9      180.000000       -0.482788         4    ;  uncertainty k = 0.513934
        16        15        19        18     9        0.000000        1.075900         1    ;  uncertainty k = 0.686752
        16        15        19        18     9      180.000000        2.337056         2    ;  uncertainty k = 0.668401
        16        15        19        18     9        0.000000        0.174345         3    ;  uncertainty k = 0.624029
        16        15        19        18     9      180.000000        0.491041         4    ;  uncertainty k = 0.337525
        16        15        19        20     9        0.000000        1.870131         1    ;  uncertainty k = 2.124002
        16        15        19        20     9      180.000000       -0.788361         2    ;  uncertainty k = 0.765205
        16        15        19        20     9        0.000000        0.063928         3    ;  uncertainty k = 0.474210
        16        15        19        20     9      180.000000        0.018853         4    ;  uncertainty k = 0.243518
        16        17        18        19     9        0.000000       -0.598871         1    ;  uncertainty k = 1.517512
        16        17        18        19     9      180.000000        9.023777         2    ;  uncertainty k = 0.890262
        16        17        18        19     9        0.000000       -1.321226         3    ;  uncertainty k = 1.261849
        16        17        18        19     9      180.000000       -0.043685         4    ;  uncertainty k = 0.510427
        16        17        18        26     9        0.000000       -0.742539         1    ;  uncertainty k = 0.884320
        16        17        18        26     9      180.000000        6.821150         2    ;  uncertainty k = 1.300514
        16        17        18        26     9        0.000000        0.216631         3    ;  uncertainty k = 0.558836
        16        17        18        26     9      180.000000       -0.098970         4    ;  uncertainty k = 0.493923
        16        17        22        23     9        0.000000        0.297431         1    ;  uncertainty k = 0.338022
        16        17        22        23     9      180.000000        0.087168         2    ;  uncertainty k = 0.381934
        16        17        22        23     9        0.000000        0.347193         3    ;  uncertainty k = 0.232215
        16        17        22        23     9      180.000000        0.291096         4    ;  uncertainty k = 0.074538
        16        17        22        24     9        0.000000        0.297431         1    ;  uncertainty k = 0.338022
        16        17        22        24     9      180.000000        0.087168         2    ;  uncertainty k = 0.381934
        16        17        22        24     9        0.000000        0.347193         3    ;  uncertainty k = 0.232215
        16        17        22        24     9      180.000000        0.291096         4    ;  uncertainty k = 0.074538
        16        17        22        25     9        0.000000        0.297431         1    ;  uncertainty k = 0.338022
        16        17        22        25     9      180.000000        0.087168         2    ;  uncertainty k = 0.381934
        16        17        22        25     9        0.000000        0.347193         3    ;  uncertainty k = 0.232215
        16        17        22        25     9      180.000000        0.291096         4    ;  uncertainty k = 0.074538
        17        16        15        19     9        0.000000       -0.734672         1    ;  uncertainty k = 2.407402
        17        16        15        19     9      180.000000        6.965369         2    ;  uncertainty k = 1.234532
        17        16        15        19     9        0.000000        0.624658         3    ;  uncertainty k = 0.577006
        17        16        15        19     9      180.000000        0.290059         4    ;  uncertainty k = 0.846479
        17        18        19        20     9        0.000000        4.051322         1    ;  uncertainty k = 3.391115
        17        18        19        20     9      180.000000       10.697180         2    ;  uncertainty k = 0.526601
        17        18        19        20     9        0.000000        1.093668         3    ;  uncertainty k = 0.752546
        17        18        19        20     9      180.000000       -0.389374         4    ;  uncertainty k = 0.265720
        17        18        26        27     9        0.000000        8.080941         1    ;  uncertainty k = 2.061712
        17        18        26        27     9      180.000000        9.353073         2    ;  uncertainty k = 0.455751
        17        18        26        27     9        0.000000        0.960301         3    ;  uncertainty k = 0.478476
        17        18        26        27     9      180.000000       -0.922267         4    ;  uncertainty k = 0.215681
        17        18        26        28     9        0.000000        8.080941         1    ;  uncertainty k = 2.061712
        17        18        26        28     9      180.000000        9.353073         2    ;  uncertainty k = 0.455751
        17        18        26        28     9        0.000000        0.960301         3    ;  uncertainty k = 0.478476
        17        18        26        28     9      180.000000       -0.922267         4    ;  uncertainty k = 0.215681
        18        17        16        38     9        0.000000       -0.225774         1    ;  uncertainty k = 3.237560
        18        17        16        38     9      180.000000        7.660703         2    ;  uncertainty k = 0.931236
        18        17        16        38     9        0.000000        0.373526         3    ;  uncertainty k = 0.816132
        18        17        16        38     9      180.000000        0.053274         4    ;  uncertainty k = 0.298389
        18        17        22        23     9        0.000000       -0.260671         1    ;  uncertainty k = 0.510831
        18        17        22        23     9      180.000000       -1.123799         2    ;  uncertainty k = 0.505443
        18        17        22        23     9        0.000000        0.381297         3    ;  uncertainty k = 0.163929
        18        17        22        23     9      180.000000        0.194836         4    ;  uncertainty k = 0.041789
        18        17        22        24     9        0.000000       -0.260671         1    ;  uncertainty k = 0.510831
        18        17        22        24     9      180.000000       -1.123799         2    ;  uncertainty k = 0.505443
        18        17        22        24     9        0.000000        0.381297         3    ;  uncertainty k = 0.163929
        18        17        22        24     9      180.000000        0.194836         4    ;  uncertainty k = 0.041789
        18        17        22        25     9        0.000000       -0.260671         1    ;  uncertainty k = 0.510831
        18        17        22        25     9      180.000000       -1.123799         2    ;  uncertainty k = 0.505443
        18        17        22        25     9        0.000000        0.381297         3    ;  uncertainty k = 0.163929
        18        17        22        25     9      180.000000        0.194836         4    ;  uncertainty k = 0.041789
        19        15        16        38     9        0.000000        0.024534         1    ;  uncertainty k = 2.213974
        19        15        16        38     9      180.000000        4.149250         2    ;  uncertainty k = 1.312392
        19        15        16        38     9        0.000000        0.407423         3    ;  uncertainty k = 0.206510
        19        15        16        38     9      180.000000        0.443239         4    ;  uncertainty k = 0.158688
        19        18        17        22     9        0.000000       -0.380136         1    ;  uncertainty k = 2.913081
        19        18        17        22     9      180.000000        8.267784         2    ;  uncertainty k = 0.403615
        19        18        17        22     9        0.000000        0.435757         3    ;  uncertainty k = 0.320054
        19        18        17        22     9      180.000000       -0.156996         4    ;  uncertainty k = 0.291188
        19        18        26        27     9        0.000000        6.366443         1    ;  uncertainty k = 1.644722
        19        18        26        27     9      180.000000       10.049531         2    ;  uncertainty k = 0.349760
        19        18        26        27     9        0.000000        1.357511         3    ;  uncertainty k = 0.507490
        19        18        26        27     9      180.000000       -0.656591         4    ;  uncertainty k = 0.287459
        19        18        26        28     9        0.000000        6.366443         1    ;  uncertainty k = 1.644722
        19        18        26        28     9      180.000000       10.049531         2    ;  uncertainty k = 0.349760
        19        18        26        28     9        0.000000        1.357511         3    ;  uncertainty k = 0.507490
        19        18        26        28     9      180.000000       -0.656591         4    ;  uncertainty k = 0.287459
        20        19        18        26     9        0.000000        1.886192         1    ;  uncertainty k = 2.633103
        20        19        18        26     9      180.000000        7.784175         2    ;  uncertainty k = 1.209625
        20        19        18        26     9        0.000000        0.956054         3    ;  uncertainty k = 0.197633
        20        19        18        26     9      180.000000       -0.247909         4    ;  uncertainty k = 0.316191
        21        29        31        32     9        0.000000        0.109468         1    ;  uncertainty k = 0.112015
        21        29        31        32     9      180.000000        8.326641         2    ;  uncertainty k = 0.513072
        21        29        31        32     9        0.000000        1.499360         3    ;  uncertainty k = 0.365536
        21        29        31        32     9      180.000000        1.867500         4    ;  uncertainty k = 0.084429
        21        29        31        33     9        0.000000       -0.019434         1    ;  uncertainty k = 0.095207
        21        29        31        33     9      180.000000       13.936058         2    ;  uncertainty k = 0.273087
        21        29        31        33     9        0.000000       -1.044142         3    ;  uncertainty k = 0.378669
        21        29        31        33     9      180.000000        0.798154         4    ;  uncertainty k = 0.222779
        21        36        35        33     9        0.000000       -0.340304         1    ;  uncertainty k = 0.513394
        21        36        35        33     9      180.000000       14.741291         2    ;  uncertainty k = 0.345214
        21        36        35        33     9        0.000000        0.882107         3    ;  uncertainty k = 0.718718
        21        36        35        33     9      180.000000        1.447008         4    ;  uncertainty k = 0.144872
        22        17        16        38     9        0.000000       -0.743118         1    ;  uncertainty k = 3.324160
        22        17        16        38     9      180.000000        8.127734         2    ;  uncertainty k = 0.445128
        22        17        16        38     9        0.000000        0.693460         3    ;  uncertainty k = 0.571372
        22        17        16        38     9      180.000000        0.151177         4    ;  uncertainty k = 0.263311
        22        17        18        26     9        0.000000       -0.067505         1    ;  uncertainty k = 0.784520
        22        17        18        26     9      180.000000        6.890792         2    ;  uncertainty k = 0.817474
        22        17        18        26     9        0.000000        0.975121         3    ;  uncertainty k = 0.584566
        22        17        18        26     9      180.000000       -0.011356         4    ;  uncertainty k = 0.268200
        29        21        36        35     9        0.000000       -0.243981         1    ;  uncertainty k = 0.325246
        29        21        36        35     9      180.000000       12.273612         2    ;  uncertainty k = 0.463637
        29        21        36        35     9        0.000000       -0.382132         3    ;  uncertainty k = 0.406404
        29        21        36        35     9      180.000000        1.058215         4    ;  uncertainty k = 0.220790
        29        21        36        37     9        0.000000       -0.145292         1    ;  uncertainty k = 0.510556
        29        21        36        37     9      180.000000        5.415976         2    ;  uncertainty k = 0.626321
        29        21        36        37     9        0.000000        1.050629         3    ;  uncertainty k = 0.252179
        29        21        36        37     9      180.000000        1.388897         4    ;  uncertainty k = 0.196078
        29        31        33        34     9        0.000000       -0.154425         1    ;  uncertainty k = 0.348569
        29        31        33        34     9      180.000000        6.321527         2    ;  uncertainty k = 0.190529
        29        31        33        34     9        0.000000        1.223611         3    ;  uncertainty k = 0.247840
        29        31        33        34     9      180.000000        1.521794         4    ;  uncertainty k = 0.210446
        29        31        33        35     9        0.000000        0.028348         1    ;  uncertainty k = 0.229558
        29        31        33        35     9      180.000000       15.291714         2    ;  uncertainty k = 0.213490
        29        31        33        35     9        0.000000       -1.416390         3    ;  uncertainty k = 0.692679
        29        31        33        35     9      180.000000        0.827312         4    ;  uncertainty k = 0.196592
        30        29        21        36     9        0.000000       -0.040477         1    ;  uncertainty k = 0.231077
        30        29        21        36     9      180.000000        6.625937         2    ;  uncertainty k = 0.646065
        30        29        21        36     9        0.000000        1.231661         3    ;  uncertainty k = 0.227008
        30        29        21        36     9      180.000000        1.469511         4    ;  uncertainty k = 0.222378
        30        29        31        32     9        0.000000       -0.039488         1    ;  uncertainty k = 0.197275
        30        29        31        32     9      180.000000        8.173041         2    ;  uncertainty k = 0.359486
        30        29        31        32     9        0.000000       -0.472397         3    ;  uncertainty k = 0.316508
        30        29        31        32     9      180.000000        0.116717         4    ;  uncertainty k = 0.173788
        30        29        31        33     9        0.000000       -0.123958         1    ;  uncertainty k = 0.401821
        30        29        31        33     9      180.000000        8.052115         2    ;  uncertainty k = 0.377495
        30        29        31        33     9        0.000000        1.302687         3    ;  uncertainty k = 0.236936
        30        29        31        33     9      180.000000        1.652441         4    ;  uncertainty k = 0.141563
        31        29        21        36     9        0.000000       -0.009075         1    ;  uncertainty k = 0.108709
        31        29        21        36     9      180.000000       11.059382         2    ;  uncertainty k = 0.294611
        31        29        21        36     9        0.000000       -0.631874         3    ;  uncertainty k = 0.355995
        31        29        21        36     9      180.000000        0.861057         4    ;  uncertainty k = 0.323836
        31        33        35        36     9        0.000000       -0.223333         1    ;  uncertainty k = 0.642484
        31        33        35        36     9      180.000000       15.681187         2    ;  uncertainty k = 0.512718
        31        33        35        36     9        0.000000        0.718783         3    ;  uncertainty k = 0.631027
        31        33        35        36     9      180.000000        1.302539         4    ;  uncertainty k = 0.098204
        32        31        33        34     9        0.000000       -0.272877         1    ;  uncertainty k = 0.270328
        32        31        33        34     9      180.000000        6.674021         2    ;  uncertainty k = 0.285186
        32        31        33        34     9        0.000000       -0.094418         3    ;  uncertainty k = 0.105119
        32        31        33        34     9      180.000000        0.242431         4    ;  uncertainty k = 0.077811
        32        31        33        35     9        0.000000       -0.033385         1    ;  uncertainty k = 0.312852
        32        31        33        35     9      180.000000        9.297236         2    ;  uncertainty k = 0.586533
        32        31        33        35     9        0.000000        0.960940         3    ;  uncertainty k = 0.286602
        32        31        33        35     9      180.000000        1.627076         4    ;  uncertainty k = 0.106970
        33        35        36        37     9        0.000000        0.377216         1    ;  uncertainty k = 0.292913
        33        35        36        37     9      180.000000       15.592174         2    ;  uncertainty k = 0.414488
        33        35        36        37     9        0.000000        2.255625         3    ;  uncertainty k = 0.445363
        33        35        36        37     9      180.000000        1.631522         4    ;  uncertainty k = 0.329274
        34        33        35        36     9        0.000000        0.278837         1    ;  uncertainty k = 0.157311
        34        33        35        36     9      180.000000       14.844895         2    ;  uncertainty k = 0.411260
        34        33        35        36     9        0.000000        2.108366         3    ;  uncertainty k = 0.599863
        34        33        35        36     9      180.000000        1.545256         4    ;  uncertainty k = 0.295370
        39        11        43        44     9        0.000000       -1.168307         1    ;  uncertainty k = 0.299692
        39        11        43        44     9      180.000000        0.150758         2    ;  uncertainty k = 0.296599
        39        11        43        44     9        0.000000        0.668939         3    ;  uncertainty k = 0.064920
        39        11        43        44     9      180.000000       -0.104413         4    ;  uncertainty k = 0.091599
        39        11        43        45     9        0.000000       -1.168307         1    ;  uncertainty k = 0.299692
        39        11        43        45     9      180.000000        0.150758         2    ;  uncertainty k = 0.296599
        39        11        43        45     9        0.000000        0.668939         3    ;  uncertainty k = 0.064920
        39        11        43        45     9      180.000000       -0.104413         4    ;  uncertainty k = 0.091599
        39        11        43        46     9        0.000000       -1.168307         1    ;  uncertainty k = 0.299692
        39        11        43        46     9      180.000000        0.150758         2    ;  uncertainty k = 0.296599
        39        11        43        46     9        0.000000        0.668939         3    ;  uncertainty k = 0.064920
        39        11        43        46     9      180.000000       -0.104413         4    ;  uncertainty k = 0.091599
        40        39        11        43     9        0.000000       -1.168308         1    ;  uncertainty k = 0.299692
        40        39        11        43     9      180.000000        0.150758         2    ;  uncertainty k = 0.296599
        40        39        11        43     9        0.000000        0.668939         3    ;  uncertainty k = 0.064920
        40        39        11        43     9      180.000000       -0.104414         4    ;  uncertainty k = 0.091599
        41        39        11        43     9        0.000000       -1.168308         1    ;  uncertainty k = 0.299692
        41        39        11        43     9      180.000000        0.150758         2    ;  uncertainty k = 0.296599
        41        39        11        43     9        0.000000        0.668939         3    ;  uncertainty k = 0.064920
        41        39        11        43     9      180.000000       -0.104414         4    ;  uncertainty k = 0.091599
        42        39        11        43     9        0.000000       -1.168308         1    ;  uncertainty k = 0.299692
        42        39        11        43     9      180.000000        0.150758         2    ;  uncertainty k = 0.296599
        42        39        11        43     9        0.000000        0.668939         3    ;  uncertainty k = 0.064920
        42        39        11        43     9      180.000000       -0.104414         4    ;  uncertainty k = 0.091599

[ dihedrals ] ; impropers
;       ai        aj        ak        al funct           phase               k        pn
         1         2         8        21     4      180.000000       13.894020         2    ;  uncertainty k = 0.119474
         1         8        21         2     4      180.000000       13.894020         2    ;  uncertainty k = 0.119474
         1        21         2         8     4      180.000000       13.894020         2    ;  uncertainty k = 0.119474
         2         1         3         4     4      180.000000        4.726624         2    ;  uncertainty k = 0.239025
         2         3         4         1     4      180.000000        4.726624         2    ;  uncertainty k = 0.239025
         2         4         1         3     4      180.000000        4.726624         2    ;  uncertainty k = 0.239025
         4         2         5         6     4      180.000000        1.956942         2    ;  uncertainty k = 0.191439
         4         5         6         2     4      180.000000        1.956942         2    ;  uncertainty k = 0.191439
         4         6         2         5     4      180.000000        1.956942         2    ;  uncertainty k = 0.191439
         6         4         7        10     4      180.000000       22.038012         2    ;  uncertainty k = 0.126561
         6         7        10         4     4      180.000000       22.038012         2    ;  uncertainty k = 0.126561
         6        10         4         7     4      180.000000       22.038012         2    ;  uncertainty k = 0.126561
         7         6         8        15     4      180.000000       11.777618         2    ;  uncertainty k = 0.246468
         7         8        15         6     4      180.000000       11.777618         2    ;  uncertainty k = 0.246468
         7        15         6         8     4      180.000000       11.777618         2    ;  uncertainty k = 0.246468
         8         1         7         9     4      180.000000        4.942293         2    ;  uncertainty k = 0.394222
         8         7         9         1     4      180.000000        4.942293         2    ;  uncertainty k = 0.394222
         8         9         1         7     4      180.000000        4.942293         2    ;  uncertainty k = 0.394222
        16        15        17        38     4      180.000000       50.512062         2    ;  uncertainty k = 0.072585
        16        17        38        15     4      180.000000       50.512062         2    ;  uncertainty k = 0.072585
        16        38        15        17     4      180.000000       50.512062         2    ;  uncertainty k = 0.072585
        17        16        18        22     4      180.000000        2.066646         2    ;  uncertainty k = 0.825300
        17        18        22        16     4      180.000000        2.066646         2    ;  uncertainty k = 0.825300
        17        22        16        18     4      180.000000        2.066646         2    ;  uncertainty k = 0.825300
        18        17        19        26     4      180.000000       30.892449         2    ;  uncertainty k = 0.146917
        18        19        26        17     4      180.000000       30.892449         2    ;  uncertainty k = 0.146917
        18        26        17        19     4      180.000000       30.892449         2    ;  uncertainty k = 0.146917
        21         1        29        36     4      180.000000       12.934586         2    ;  uncertainty k = 0.103616
        21        29        36         1     4      180.000000       12.934586         2    ;  uncertainty k = 0.103616
        21        36         1        29     4      180.000000       12.934586         2    ;  uncertainty k = 0.103616
        26        18        27        28     4      180.000000        0.184047         2    ;  uncertainty k = 0.411542
        26        27        28        18     4      180.000000        0.184047         2    ;  uncertainty k = 0.411542
        26        28        18        27     4      180.000000        0.184047         2    ;  uncertainty k = 0.411542
        29        21        30        31     4      180.000000        6.137806         2    ;  uncertainty k = 0.134216
        29        30        31        21     4      180.000000        6.137806         2    ;  uncertainty k = 0.134216
        29        31        21        30     4      180.000000        6.137806         2    ;  uncertainty k = 0.134216
        31        29        32        33     4      180.000000        2.965131         2    ;  uncertainty k = 0.184559
        31        32        33        29     4      180.000000        2.965131         2    ;  uncertainty k = 0.184559
        31        33        29        32     4      180.000000        2.965131         2    ;  uncertainty k = 0.184559
        33        31        34        35     4      180.000000       13.295867         2    ;  uncertainty k = 0.022980
        33        34        35        31     4      180.000000       13.295867         2    ;  uncertainty k = 0.022980
        33        35        31        34     4      180.000000       13.295867         2    ;  uncertainty k = 0.022980
        36        21        35        37     4      180.000000       13.611141         2    ;  uncertainty k = 0.042289
        36        35        37        21     4      180.000000       13.611141         2    ;  uncertainty k = 0.042289
        36        37        21        35     4      180.000000       13.611141         2    ;  uncertainty k = 0.042289

[ pairs ]
;       ai        aj funct
         1         5     1
         1         6     1
         1        15     1
         1        30     1
         1        31     1
         1        35     1
         1        37     1
         2         7     1
         2         9     1
         2        10     1
         2        29     1
         2        36     1
         3         5     1
         3         6     1
         3         8     1
         3        21     1
         4         8     1
         4        11     1
         4        15     1
         4        21     1
         5         7     1
         5        10     1
         6         9     1
         6        12     1
         6        16     1
         6        19     1
         6        39     1
         6        43     1
         7        11     1
         7        13     1
         7        14     1
         7        17     1
         7        18     1
         7        20     1
         7        21     1
         7        38     1
         8        10     1
         8        12     1
         8        16     1
         8        19     1
         8        29     1
         8        36     1
         9        15     1
         9        21     1
        10        13     1
        10        14     1
        10        15     1
        10        40     1
        10        41     1
        10        42     1
        10        44     1
        10        45     1
        10        46     1
        11        16     1
        11        19     1
        12        17     1
        12        18     1
        12        20     1
        12        38     1
        12        40     1
        12        41     1
        12        42     1
        12        44     1
        12        45     1
        12        46     1
        13        16     1
        13        19     1
        13        39     1
        13        43     1
        14        16     1
        14        19     1
        14        39     1
        14        43     1
        15        22     1
        15        26     1
        15        39     1
        15        43     1
        16        20     1
        16        23     1
        16        24     1
        16        25     1
        16        26     1
        17        20     1
        17        27     1
        17        28     1
        18        23     1
        18        24     1
        18        25     1
        18        38     1
        19        22     1
        19        27     1
        19        28     1
        19        38     1
        20        26     1
        21        32     1
        21        33     1
        22        26     1
        22        38     1
        29        34     1
        29        35     1
        29        37     1
        30        32     1
        30        33     1
        30        36     1
        31        36     1
        32        34     1
        32        35     1
        33        37     1
        34        36     1
        39        44     1
        39        45     1
        39        46     1
        40        43     1
        41        43     1
        42        43     1
