; ITP file created by ByteFF-joint-25, 2026-03-14 15:25:26.301953

[ atomtypes ]
;name           bonded.type        at.num        mass        charge   ptype           sigma         epsilon
 c0bf                                   6      0.0000       0.00000       A     3.31499e-01     4.13153e-01    ;  uncertainty sigma = 0.000014, epsilon = 0.000747
 c1bf                                   6      0.0000       0.00000       A     3.31515e-01     4.13417e-01    ;  uncertainty sigma = 0.000007, epsilon = 0.000566
 h2bf                                   1      0.0000       0.00000       A     2.62562e-01     6.71925e-02    ;  uncertainty sigma = 0.000010, epsilon = 0.000548
 c3bf                                   6      0.0000       0.00000       A     3.31523e-01     4.13777e-01    ;  uncertainty sigma = 0.000003, epsilon = 0.000993
 h4bf                                   1      0.0000       0.00000       A     2.62561e-01     6.68067e-02    ;  uncertainty sigma = 0.000012, epsilon = 0.000527
 c5bf                                   6      0.0000       0.00000       A     3.31562e-01     4.13129e-01    ;  uncertainty sigma = 0.000021, epsilon = 0.000953
 c6bf                                   6      0.0000       0.00000       A     3.31601e-01     4.13096e-01    ;  uncertainty sigma = 0.000052, epsilon = 0.001836
 c7bf                                   6      0.0000       0.00000       A     3.31540e-01     4.13377e-01    ;  uncertainty sigma = 0.000014, epsilon = 0.001330
 h8bf                                   1      0.0000       0.00000       A     2.62558e-01     6.74451e-02    ;  uncertainty sigma = 0.000015, epsilon = 0.000720
 o9bf                                   8      0.0000       0.00000       A     3.15675e-01     3.03348e-01    ;  uncertainty sigma = 0.000037, epsilon = 0.000709
 c10bf                                  6      0.0000       0.00000       A     3.39754e-01     4.50298e-01    ;  uncertainty sigma = 0.000022, epsilon = 0.001818
 c11bf                                  6      0.0000       0.00000       A     3.39729e-01     4.51261e-01    ;  uncertainty sigma = 0.000015, epsilon = 0.001388
 h12bf                                  1      0.0000       0.00000       A     2.60113e-01     8.69261e-02    ;  uncertainty sigma = 0.000018, epsilon = 0.001362
 h13bf                                  1      0.0000       0.00000       A     2.60113e-01     8.69261e-02    ;  uncertainty sigma = 0.000018, epsilon = 0.001362
 c14bf                                  6      0.0000       0.00000       A     3.39922e-01     4.52078e-01    ;  uncertainty sigma = 0.000044, epsilon = 0.005050
 c15bf                                  6      0.0000       0.00000       A     3.31534e-01     4.13061e-01    ;  uncertainty sigma = 0.000023, epsilon = 0.000770
 n16bf                                  7      0.0000       0.00000       A     3.18159e-01     6.82058e-01    ;  uncertainty sigma = 0.000074, epsilon = 0.006526
 c17bf                                  6      0.0000       0.00000       A     3.31516e-01     4.13029e-01    ;  uncertainty sigma = 0.000046, epsilon = 0.002102
 n18bf                                  7      0.0000       0.00000       A     3.27895e-01     6.51183e-01    ;  uncertainty sigma = 0.000198, epsilon = 0.011723
 h19bf                                  1      0.0000       0.00000       A     1.10796e-01     4.19443e-02    ;  uncertainty sigma = 0.000445, epsilon = 0.001840
 c20bf                                  6      0.0000       0.00000       A     3.31532e-01     4.13436e-01    ;  uncertainty sigma = 0.000014, epsilon = 0.000470
 c21bf                                  6      0.0000       0.00000       A     3.39747e-01     4.51374e-01    ;  uncertainty sigma = 0.000011, epsilon = 0.001160
 h22bf                                  1      0.0000       0.00000       A     2.42212e-01     8.67416e-02    ;  uncertainty sigma = 0.000033, epsilon = 0.000677
 h23bf                                  1      0.0000       0.00000       A     2.42212e-01     8.67416e-02    ;  uncertainty sigma = 0.000033, epsilon = 0.000677
 h24bf                                  1      0.0000       0.00000       A     2.42212e-01     8.67416e-02    ;  uncertainty sigma = 0.000033, epsilon = 0.000677
 n25bf                                  7      0.0000       0.00000       A     3.36518e-01     4.71691e-01    ;  uncertainty sigma = 0.000108, epsilon = 0.006012
 h26bf                                  1      0.0000       0.00000       A     1.10696e-01     4.11175e-02    ;  uncertainty sigma = 0.000127, epsilon = 0.001410
 h27bf                                  1      0.0000       0.00000       A     1.10696e-01     4.11175e-02    ;  uncertainty sigma = 0.000127, epsilon = 0.001410
 c28bf                                  6      0.0000       0.00000       A     3.31514e-01     4.13411e-01    ;  uncertainty sigma = 0.000006, epsilon = 0.000722
 h29bf                                  1      0.0000       0.00000       A     2.62568e-01     6.69189e-02    ;  uncertainty sigma = 0.000017, epsilon = 0.000513
 c30bf                                  6      0.0000       0.00000       A     3.31524e-01     4.13386e-01    ;  uncertainty sigma = 0.000006, epsilon = 0.000606
 h31bf                                  1      0.0000       0.00000       A     2.62554e-01     6.70917e-02    ;  uncertainty sigma = 0.000009, epsilon = 0.000674
 c32bf                                  6      0.0000       0.00000       A     3.31518e-01     4.13378e-01    ;  uncertainty sigma = 0.000006, epsilon = 0.000699
 h33bf                                  1      0.0000       0.00000       A     2.62559e-01     6.71207e-02    ;  uncertainty sigma = 0.000013, epsilon = 0.000551
 c34bf                                  6      0.0000       0.00000       A     3.31520e-01     4.13167e-01    ;  uncertainty sigma = 0.000005, epsilon = 0.000482
 h35bf                                  1      0.0000       0.00000       A     2.53639e-01     6.70364e-02    ;  uncertainty sigma = 0.000013, epsilon = 0.000423
 n36bf                                  7      0.0000       0.00000       A     3.38411e-01     3.93524e-01    ;  uncertainty sigma = 0.000014, epsilon = 0.000718
 o37bf                                  8      0.0000       0.00000       A     3.04746e-01     6.12575e-01    ;  uncertainty sigma = 0.000054, epsilon = 0.002454
 c38bf                                  6      0.0000       0.00000       A     3.39769e-01     4.50351e-01    ;  uncertainty sigma = 0.000003, epsilon = 0.001331
 h39bf                                  1      0.0000       0.00000       A     2.60031e-01     8.68008e-02    ;  uncertainty sigma = 0.000006, epsilon = 0.000320
 h40bf                                  1      0.0000       0.00000       A     2.60031e-01     8.68008e-02    ;  uncertainty sigma = 0.000006, epsilon = 0.000320
 h41bf                                  1      0.0000       0.00000       A     2.60031e-01     8.68008e-02    ;  uncertainty sigma = 0.000006, epsilon = 0.000320
 c42bf                                  6      0.0000       0.00000       A     3.39769e-01     4.50351e-01    ;  uncertainty sigma = 0.000003, epsilon = 0.001331
 h43bf                                  1      0.0000       0.00000       A     2.60031e-01     8.68008e-02    ;  uncertainty sigma = 0.000006, epsilon = 0.000319
 h44bf                                  1      0.0000       0.00000       A     2.60031e-01     8.68010e-02    ;  uncertainty sigma = 0.000006, epsilon = 0.000319
 h45bf                                  1      0.0000       0.00000       A     2.60031e-01     8.68010e-02    ;  uncertainty sigma = 0.000006, epsilon = 0.000320

[ moleculetype ]
;name             nrexcl
 MOL                   3

[ atoms ]
;       nr            type      resi   res      atom      cgnr      charge          mass ; qtot
         1            c0bf         1   UNL        c0         1    -0.14408       12.0110 ; qtot   -0.144
         2            c1bf         1   UNL        c1         2    -0.05625       12.0110 ; qtot   -0.200
         3            h2bf         1   UNL        h2         3     0.14777        1.0080 ; qtot   -0.053
         4            c3bf         1   UNL        c3         4    -0.15543       12.0110 ; qtot   -0.208
         5            h4bf         1   UNL        h4         5     0.15807        1.0080 ; qtot   -0.050
         6            c5bf         1   UNL        c5         6     0.18983       12.0110 ; qtot    0.140
         7            c6bf         1   UNL        c6         7    -0.20540       12.0110 ; qtot   -0.065
         8            c7bf         1   UNL        c7         8    -0.04763       12.0110 ; qtot   -0.113
         9            h8bf         1   UNL        h8         9     0.15833        1.0080 ; qtot    0.045
        10            o9bf         1   UNL        o9        10    -0.32527       15.9990 ; qtot   -0.280
        11           c10bf         1   UNL       c10        11     0.16563       12.0110 ; qtot   -0.114
        12           c11bf         1   UNL       c11        12    -0.09875       12.0110 ; qtot   -0.213
        13           h12bf         1   UNL       h12        13     0.09101        1.0080 ; qtot   -0.122
        14           h13bf         1   UNL       h13        14     0.09101        1.0080 ; qtot   -0.031
        15           c14bf         1   UNL       c14        15     0.03966       12.0110 ; qtot    0.008
        16           c15bf         1   UNL       c15        16     0.70447       12.0110 ; qtot    0.713
        17           n16bf         1   UNL       n16        17    -0.41729       14.0070 ; qtot    0.296
        18           c17bf         1   UNL       c17        18     0.47248       12.0110 ; qtot    0.768
        19           n18bf         1   UNL       n18        19    -0.37461       14.0070 ; qtot    0.394
        20           h19bf         1   UNL       h19        20     0.35504        1.0080 ; qtot    0.749
        21           c20bf         1   UNL       c20        21     0.46165       12.0110 ; qtot    1.210
        22           c21bf         1   UNL       c21        22     0.07530       12.0110 ; qtot    1.286
        23           h22bf         1   UNL       h22        23     0.09109        1.0080 ; qtot    1.377
        24           h23bf         1   UNL       h23        24     0.09109        1.0080 ; qtot    1.468
        25           h24bf         1   UNL       h24        25     0.09109        1.0080 ; qtot    1.559
        26           n25bf         1   UNL       n25        26    -0.48596       14.0070 ; qtot    1.073
        27           h26bf         1   UNL       h26        27     0.33929        1.0080 ; qtot    1.412
        28           h27bf         1   UNL       h27        28     0.33929        1.0080 ; qtot    1.751
        29           c28bf         1   UNL       c28        29    -0.24001       12.0110 ; qtot    1.511
        30           h29bf         1   UNL       h29        30     0.14534        1.0080 ; qtot    1.657
        31           c30bf         1   UNL       c30        31    -0.09084       12.0110 ; qtot    1.566
        32           h31bf         1   UNL       h31        32     0.13981        1.0080 ; qtot    1.706
        33           c32bf         1   UNL       c32        33    -0.24682       12.0110 ; qtot    1.459
        34           h33bf         1   UNL       h33        34     0.14534        1.0080 ; qtot    1.604
        35           c34bf         1   UNL       c34        35     0.40197       12.0110 ; qtot    2.006
        36           h35bf         1   UNL       h35        36     0.02107        1.0080 ; qtot    2.027
        37           n36bf         1   UNL       n36        37    -0.67480       14.0070 ; qtot    1.352
        38           o37bf         1   UNL       o37        38    -0.45182       15.9990 ; qtot    0.901
        39           c38bf         1   UNL       c38        39    -0.10337       12.0110 ; qtot    0.797
        40           h39bf         1   UNL       h39        40     0.05101        1.0080 ; qtot    0.848
        41           h40bf         1   UNL       h40        41     0.05101        1.0080 ; qtot    0.899
        42           h41bf         1   UNL       h41        42     0.05101        1.0080 ; qtot    0.950
        43           c42bf         1   UNL       c42        43    -0.10337       12.0110 ; qtot    0.847
        44           h43bf         1   UNL       h43        44     0.05101        1.0080 ; qtot    0.898
        45           h44bf         1   UNL       h44        45     0.05101        1.0080 ; qtot    0.949
        46           h45bf         1   UNL       h45        46     0.05102        1.0080 ; qtot    1.000

[ bonds ]
;       ai        aj funct               r               k
         1         2     1        0.140195   342643.909668    ;  uncertainty r = 0.000090, k = 3.842805
         1         8     1        0.139275   336780.487207    ;  uncertainty r = 0.000041, k = 2.918951
         1        21     1        0.147618   255723.659082    ;  uncertainty r = 0.000100, k = 9.772913
         2         3     1        0.108649   333112.770947    ;  uncertainty r = 0.000024, k = 1.411987
         2         4     1        0.138646   373970.179590    ;  uncertainty r = 0.000070, k = 3.132337
         4         5     1        0.108792   336497.229590    ;  uncertainty r = 0.000016, k = 1.326809
         4         6     1        0.140112   361907.955811    ;  uncertainty r = 0.000041, k = 3.403617
         6         7     1        0.140016   328978.083105    ;  uncertainty r = 0.000157, k = 7.341290
         6        10     1        0.136368   303578.797510    ;  uncertainty r = 0.000194, k = 10.538334
         7         8     1        0.139469   345795.469873    ;  uncertainty r = 0.000168, k = 6.372546
         7        15     1        0.150660   205630.525000    ;  uncertainty r = 0.000107, k = 20.244857
         8         9     1        0.108694   334414.474023    ;  uncertainty r = 0.000085, k = 4.927313
        10        11     1        0.145422   203859.641382    ;  uncertainty r = 0.000221, k = 9.275544
        11        12     1        0.152936   192803.911694    ;  uncertainty r = 0.000262, k = 11.274614
        11        39     1        0.152325   205847.654272    ;  uncertainty r = 0.000037, k = 5.592259
        11        43     1        0.152325   205847.654272    ;  uncertainty r = 0.000037, k = 5.592261
        12        13     1        0.109477   309561.503809    ;  uncertainty r = 0.000048, k = 2.448475
        12        14     1        0.109477   309561.503809    ;  uncertainty r = 0.000048, k = 2.448475
        12        15     1        0.153041   191194.052319    ;  uncertainty r = 0.000126, k = 21.513802
        15        16     1        0.153598   171646.122900    ;  uncertainty r = 0.000173, k = 14.753148
        15        19     1        0.149698   232215.881641    ;  uncertainty r = 0.000407, k = 51.570428
        16        17     1        0.142413   302839.344971    ;  uncertainty r = 0.000236, k = 75.996174
        16        38     1        0.120112   608584.455469    ;  uncertainty r = 0.000161, k = 10.569144
        17        18     1        0.135836   286250.770703    ;  uncertainty r = 0.000260, k = 52.766102
        17        22     1        0.146741   261825.572607    ;  uncertainty r = 0.000154, k = 17.700649
        18        19     1        0.133610   531287.609180    ;  uncertainty r = 0.000191, k = 37.526813
        18        26     1        0.133101   320485.564160    ;  uncertainty r = 0.000146, k = 40.823703
        19        20     1        0.101578   423262.955127    ;  uncertainty r = 0.000083, k = 11.557068
        21        29     1        0.140566   329556.881689    ;  uncertainty r = 0.000068, k = 7.912314
        21        37     1        0.134557   363707.223926    ;  uncertainty r = 0.000048, k = 5.103000
        22        23     1        0.109172   309495.286084    ;  uncertainty r = 0.000053, k = 3.597993
        22        24     1        0.109172   309495.286084    ;  uncertainty r = 0.000053, k = 3.597993
        22        25     1        0.109172   309495.286084    ;  uncertainty r = 0.000053, k = 3.597993
        26        27     1        0.101405   421785.735498    ;  uncertainty r = 0.000064, k = 13.590763
        26        28     1        0.101405   421785.735498    ;  uncertainty r = 0.000064, k = 13.590763
        29        30     1        0.108848   340333.107715    ;  uncertainty r = 0.000025, k = 1.082156
        29        31     1        0.139169   377428.670312    ;  uncertainty r = 0.000016, k = 2.799229
        31        32     1        0.108786   332837.863965    ;  uncertainty r = 0.000015, k = 0.924466
        31        33     1        0.139426   385830.328223    ;  uncertainty r = 0.000049, k = 3.057596
        33        34     1        0.108864   338623.040723    ;  uncertainty r = 0.000014, k = 1.503038
        33        35     1        0.139725   366446.487500    ;  uncertainty r = 0.000029, k = 3.461778
        35        36     1        0.109062   336595.266553    ;  uncertainty r = 0.000016, k = 1.079458
        35        37     1        0.133597   392895.424902    ;  uncertainty r = 0.000020, k = 4.736302
        39        40     1        0.109545   310467.151855    ;  uncertainty r = 0.000018, k = 1.787227
        39        41     1        0.109545   310467.151855    ;  uncertainty r = 0.000018, k = 1.787227
        39        42     1        0.109545   310467.151855    ;  uncertainty r = 0.000018, k = 1.787227
        43        44     1        0.109545   310467.177393    ;  uncertainty r = 0.000018, k = 1.787223
        43        45     1        0.109545   310467.177393    ;  uncertainty r = 0.000018, k = 1.787223
        43        46     1        0.109545   310467.151855    ;  uncertainty r = 0.000018, k = 1.787221

[ angles ]
;       ai        aj        ak funct           theta             cth
         1         2         3     1      118.120384      267.078422    ;  uncertainty theta = 0.002456, k = 0.119256
         1         2         4     1      120.758957      528.492075    ;  uncertainty theta = 0.003163, k = 0.118886
         1         8         7     1      123.399193      508.196138    ;  uncertainty theta = 0.004232, k = 0.251397
         1         8         9     1      118.135147      275.294636    ;  uncertainty theta = 0.002432, k = 0.092537
         1        21        29     1      120.230370      394.349502    ;  uncertainty theta = 0.004144, k = 0.176231
         1        21        37     1      116.717651      462.966278    ;  uncertainty theta = 0.003907, k = 0.126590
         2         1         8     1      120.288895      432.986190    ;  uncertainty theta = 0.003414, k = 0.120306
         2         1        21     1      119.348694      411.707841    ;  uncertainty theta = 0.002561, k = 0.179480
         2         4         5     1      121.381569      279.292374    ;  uncertainty theta = 0.000918, k = 0.047020
         2         4         6     1      119.683228      506.469638    ;  uncertainty theta = 0.003282, k = 0.164263
         3         2         4     1      119.574631      289.149379    ;  uncertainty theta = 0.002200, k = 0.076637
         4         6         7     1      120.981300      369.963094    ;  uncertainty theta = 0.002513, k = 0.143926
         4         6        10     1      118.434082      540.024761    ;  uncertainty theta = 0.003240, k = 0.120248
         5         4         6     1      120.037315      275.889810    ;  uncertainty theta = 0.003497, k = 0.140748
         6         7         8     1      121.689697      435.275018    ;  uncertainty theta = 0.004009, k = 0.081583
         6         7        15     1      120.090599      413.873739    ;  uncertainty theta = 0.008719, k = 0.206730
         6        10        11     1      114.537880      453.333553    ;  uncertainty theta = 0.006687, k = 0.093699
         7         6        10     1      123.929344      494.419282    ;  uncertainty theta = 0.003723, k = 0.268695
         7         8         9     1      117.816055      265.838595    ;  uncertainty theta = 0.003297, k = 0.134975
         7        15        12     1      110.348633      539.804312    ;  uncertainty theta = 0.001395, k = 0.158732
         7        15        16     1      108.878075      465.896406    ;  uncertainty theta = 0.003886, k = 0.377679
         7        15        19     1      110.426491      616.034243    ;  uncertainty theta = 0.004219, k = 0.317977
         8         1        21     1      118.475830      405.150997    ;  uncertainty theta = 0.001352, k = 0.244585
         8         7        15     1      118.089516      406.550717    ;  uncertainty theta = 0.004158, k = 0.171254
        10        11        12     1      109.104774      651.855785    ;  uncertainty theta = 0.004859, k = 0.084503
        10        11        39     1      107.605125      619.338362    ;  uncertainty theta = 0.001081, k = 0.064685
        10        11        43     1      107.605125      619.338362    ;  uncertainty theta = 0.001081, k = 0.064685
        11        12        13     1      107.678452      386.201185    ;  uncertainty theta = 0.003165, k = 0.032000
        11        12        14     1      107.678452      386.201185    ;  uncertainty theta = 0.003165, k = 0.032000
        11        12        15     1      109.859573      530.089357    ;  uncertainty theta = 0.006963, k = 0.198376
        11        39        40     1      107.221069      387.594393    ;  uncertainty theta = 0.001065, k = 0.069193
        11        39        41     1      107.221069      387.594393    ;  uncertainty theta = 0.001065, k = 0.069193
        11        39        42     1      107.221069      387.594393    ;  uncertainty theta = 0.001065, k = 0.069193
        11        43        44     1      107.221069      387.594393    ;  uncertainty theta = 0.001065, k = 0.069193
        11        43        45     1      107.221069      387.594393    ;  uncertainty theta = 0.001065, k = 0.069193
        11        43        46     1      107.221069      387.594393    ;  uncertainty theta = 0.001065, k = 0.069193
        12        11        39     1      109.374954      548.046988    ;  uncertainty theta = 0.004356, k = 0.115347
        12        11        43     1      109.374954      548.046988    ;  uncertainty theta = 0.004356, k = 0.115347
        12        15        16     1      107.815041      449.614520    ;  uncertainty theta = 0.007030, k = 0.162707
        12        15        19     1      109.812546      627.822301    ;  uncertainty theta = 0.007991, k = 0.271564
        13        12        14     1      106.986496      321.844668    ;  uncertainty theta = 0.004263, k = 0.066652
        13        12        15     1      106.651634      397.354709    ;  uncertainty theta = 0.003140, k = 0.080198
        14        12        15     1      106.651634      397.354709    ;  uncertainty theta = 0.003140, k = 0.080198
        15        16        17     1      110.177444      536.173446    ;  uncertainty theta = 0.011689, k = 0.712083
        15        16        38     1      125.836937      424.636769    ;  uncertainty theta = 0.006696, k = 0.210364
        15        19        18     1      111.019447      602.235777    ;  uncertainty theta = 0.016031, k = 0.385576
        15        19        20     1      118.127907      280.649385    ;  uncertainty theta = 0.015278, k = 0.121870
        16        15        19     1      103.837784      815.585302    ;  uncertainty theta = 0.012174, k = 0.852514
        16        17        18     1      110.293701      728.609291    ;  uncertainty theta = 0.010426, k = 0.320486
        16        17        22     1      119.398109      397.513773    ;  uncertainty theta = 0.006832, k = 0.281808
        17        16        38     1      125.307961      629.051912    ;  uncertainty theta = 0.008036, k = 0.165829
        17        18        19     1      113.250023      720.106327    ;  uncertainty theta = 0.006756, k = 0.305315
        17        18        26     1      125.598953      549.524885    ;  uncertainty theta = 0.008546, k = 0.324469
        17        22        23     1      107.360855      470.851946    ;  uncertainty theta = 0.002522, k = 0.203983
        17        22        24     1      107.360855      470.851946    ;  uncertainty theta = 0.002522, k = 0.203983
        17        22        25     1      107.360855      470.851946    ;  uncertainty theta = 0.002522, k = 0.203983
        18        17        22     1      118.646042      371.786540    ;  uncertainty theta = 0.007230, k = 0.373049
        18        19        20     1      119.824707      355.581520    ;  uncertainty theta = 0.006083, k = 0.153034
        18        26        27     1      114.903091      371.138312    ;  uncertainty theta = 0.001582, k = 0.210952
        18        26        28     1      114.903091      371.138312    ;  uncertainty theta = 0.001582, k = 0.210952
        19        18        26     1      128.730377      637.313550    ;  uncertainty theta = 0.008927, k = 0.256741
        21        29        30     1      120.438232      276.969519    ;  uncertainty theta = 0.002185, k = 0.061050
        21        29        31     1      118.430359      479.497949    ;  uncertainty theta = 0.002416, k = 0.054890
        21        37        35     1      117.020386      424.197339    ;  uncertainty theta = 0.005233, k = 0.156126
        23        22        24     1      107.634499      325.466948    ;  uncertainty theta = 0.003233, k = 0.098676
        23        22        25     1      107.634499      325.466948    ;  uncertainty theta = 0.003233, k = 0.098676
        24        22        25     1      107.634499      325.466948    ;  uncertainty theta = 0.003233, k = 0.098676
        27        26        28     1      112.323524      263.743259    ;  uncertainty theta = 0.015210, k = 0.362876
        29        21        37     1      123.106674      587.139898    ;  uncertainty theta = 0.001588, k = 0.095988
        29        31        32     1      120.550331      279.492873    ;  uncertainty theta = 0.001886, k = 0.030871
        29        31        33     1      118.064835      537.791860    ;  uncertainty theta = 0.001267, k = 0.130944
        30        29        31     1      121.511734      294.806679    ;  uncertainty theta = 0.001818, k = 0.050159
        31        33        34     1      122.294334      288.165562    ;  uncertainty theta = 0.001166, k = 0.036887
        31        33        35     1      115.597435      478.462962    ;  uncertainty theta = 0.001927, k = 0.054430
        32        31        33     1      121.200577      286.028713    ;  uncertainty theta = 0.001455, k = 0.038527
        33        35        36     1      120.889381      279.807873    ;  uncertainty theta = 0.001167, k = 0.028868
        33        35        37     1      123.415565      688.584660    ;  uncertainty theta = 0.002274, k = 0.103520
        34        33        35     1      121.749161      290.381162    ;  uncertainty theta = 0.001309, k = 0.044912
        36        35        37     1      115.956131      328.181032    ;  uncertainty theta = 0.000481, k = 0.132127
        39        11        43     1      110.900230      580.347282    ;  uncertainty theta = 0.002949, k = 0.067890
        40        39        41     1      106.043396      316.610518    ;  uncertainty theta = 0.000878, k = 0.018252
        40        39        42     1      106.043396      316.610518    ;  uncertainty theta = 0.000878, k = 0.018252
        41        39        42     1      106.043396      316.610518    ;  uncertainty theta = 0.000878, k = 0.018252
        44        43        45     1      106.043396      316.610518    ;  uncertainty theta = 0.000878, k = 0.018253
        44        43        46     1      106.043396      316.610518    ;  uncertainty theta = 0.000878, k = 0.018253
        45        43        46     1      106.043411      316.610518    ;  uncertainty theta = 0.000878, k = 0.018253

[ dihedrals ] ; propers for gromacs 4.5 or higher, use funct 9
;       ai        aj        ak        al funct           phase               k        pn
         1         2         4         5     9        0.000000        0.056171         1    ;  uncertainty k = 0.077766
         1         2         4         5     9      180.000000        8.421529         2    ;  uncertainty k = 0.545726
         1         2         4         5     9        0.000000        1.423842         3    ;  uncertainty k = 0.276065
         1         2         4         5     9      180.000000        1.914962         4    ;  uncertainty k = 0.246650
         1         2         4         6     9        0.000000       -0.042520         1    ;  uncertainty k = 0.300228
         1         2         4         6     9      180.000000       13.763696         2    ;  uncertainty k = 0.274872
         1         2         4         6     9        0.000000       -0.283463         3    ;  uncertainty k = 0.333556
         1         2         4         6     9      180.000000        0.958555         4    ;  uncertainty k = 0.240916
         1         8         7         6     9        0.000000       -0.316479         1    ;  uncertainty k = 0.134576
         1         8         7         6     9      180.000000       10.618918         2    ;  uncertainty k = 0.440133
         1         8         7         6     9        0.000000       -0.081557         3    ;  uncertainty k = 0.094054
         1         8         7         6     9      180.000000        1.174246         4    ;  uncertainty k = 0.341126
         1         8         7        15     9        0.000000        0.399505         1    ;  uncertainty k = 0.304931
         1         8         7        15     9      180.000000        8.836589         2    ;  uncertainty k = 0.382589
         1         8         7        15     9        0.000000        1.641144         3    ;  uncertainty k = 0.212596
         1         8         7        15     9      180.000000        1.886161         4    ;  uncertainty k = 0.370206
         1        21        29        30     9        0.000000       -0.521313         1    ;  uncertainty k = 0.773157
         1        21        29        30     9      180.000000        6.331155         2    ;  uncertainty k = 0.443393
         1        21        29        30     9        0.000000        0.631277         3    ;  uncertainty k = 0.233790
         1        21        29        30     9      180.000000        0.957498         4    ;  uncertainty k = 0.285859
         1        21        29        31     9        0.000000       -0.103718         1    ;  uncertainty k = 0.395302
         1        21        29        31     9      180.000000        6.835461         2    ;  uncertainty k = 0.508317
         1        21        29        31     9        0.000000        0.847167         3    ;  uncertainty k = 0.378992
         1        21        29        31     9      180.000000        1.477884         4    ;  uncertainty k = 0.189333
         1        21        37        35     9        0.000000       -0.132115         1    ;  uncertainty k = 0.780661
         1        21        37        35     9      180.000000       14.653614         2    ;  uncertainty k = 0.295225
         1        21        37        35     9        0.000000        2.449254         3    ;  uncertainty k = 0.318032
         1        21        37        35     9      180.000000        1.543905         4    ;  uncertainty k = 0.195439
         2         1         8         7     9        0.000000        0.134768         1    ;  uncertainty k = 0.333884
         2         1         8         7     9      180.000000       10.448021         2    ;  uncertainty k = 0.462324
         2         1         8         7     9        0.000000       -0.206410         3    ;  uncertainty k = 0.298510
         2         1         8         7     9      180.000000        1.146240         4    ;  uncertainty k = 0.385613
         2         1         8         9     9        0.000000        0.156087         1    ;  uncertainty k = 0.191964
         2         1         8         9     9      180.000000        7.535056         2    ;  uncertainty k = 0.534707
         2         1         8         9     9        0.000000        1.282990         3    ;  uncertainty k = 0.122634
         2         1         8         9     9      180.000000        1.679644         4    ;  uncertainty k = 0.223996
         2         1        21        29     9        0.000000       -0.457619         1    ;  uncertainty k = 0.567552
         2         1        21        29     9      180.000000        3.950099         2    ;  uncertainty k = 0.135825
         2         1        21        29     9        0.000000        0.501952         3    ;  uncertainty k = 0.195742
         2         1        21        29     9      180.000000       -0.114396         4    ;  uncertainty k = 0.031397
         2         1        21        37     9        0.000000        0.621686         1    ;  uncertainty k = 0.591885
         2         1        21        37     9      180.000000        5.069445         2    ;  uncertainty k = 0.120990
         2         1        21        37     9        0.000000        0.593498         3    ;  uncertainty k = 0.152729
         2         1        21        37     9      180.000000        0.110383         4    ;  uncertainty k = 0.037668
         2         4         6         7     9        0.000000        0.193543         1    ;  uncertainty k = 0.402885
         2         4         6         7     9      180.000000        7.590639         2    ;  uncertainty k = 0.518212
         2         4         6         7     9        0.000000        0.256938         3    ;  uncertainty k = 0.511970
         2         4         6         7     9      180.000000        1.318133         4    ;  uncertainty k = 0.243226
         2         4         6        10     9        0.000000        0.383025         1    ;  uncertainty k = 0.214569
         2         4         6        10     9      180.000000       11.361154         2    ;  uncertainty k = 0.302103
         2         4         6        10     9        0.000000        1.337924         3    ;  uncertainty k = 0.244244
         2         4         6        10     9      180.000000        1.534633         4    ;  uncertainty k = 0.151175
         3         2         1         8     9        0.000000        0.189215         1    ;  uncertainty k = 0.229046
         3         2         1         8     9      180.000000        6.874958         2    ;  uncertainty k = 0.459998
         3         2         1         8     9        0.000000        1.253640         3    ;  uncertainty k = 0.211351
         3         2         1         8     9      180.000000        1.549959         4    ;  uncertainty k = 0.270057
         3         2         1        21     9        0.000000       -0.313607         1    ;  uncertainty k = 0.469503
         3         2         1        21     9      180.000000        7.267614         2    ;  uncertainty k = 0.352116
         3         2         1        21     9        0.000000        0.632145         3    ;  uncertainty k = 0.161202
         3         2         1        21     9      180.000000        1.137049         4    ;  uncertainty k = 0.091397
         3         2         4         5     9        0.000000       -0.070819         1    ;  uncertainty k = 0.354169
         3         2         4         5     9      180.000000        7.984447         2    ;  uncertainty k = 0.306803
         3         2         4         5     9        0.000000       -0.361475         3    ;  uncertainty k = 0.323821
         3         2         4         5     9      180.000000        0.240413         4    ;  uncertainty k = 0.129385
         3         2         4         6     9        0.000000        0.242760         1    ;  uncertainty k = 0.270209
         3         2         4         6     9      180.000000        8.689195         2    ;  uncertainty k = 0.370846
         3         2         4         6     9        0.000000        1.277692         3    ;  uncertainty k = 0.291932
         3         2         4         6     9      180.000000        1.726071         4    ;  uncertainty k = 0.215418
         4         2         1         8     9        0.000000        0.026531         1    ;  uncertainty k = 0.233686
         4         2         1         8     9      180.000000       10.374540         2    ;  uncertainty k = 0.164290
         4         2         1         8     9        0.000000       -0.464433         3    ;  uncertainty k = 0.212671
         4         2         1         8     9      180.000000        1.037141         4    ;  uncertainty k = 0.162112
         4         2         1        21     9        0.000000        0.208730         1    ;  uncertainty k = 0.407217
         4         2         1        21     9      180.000000        8.423210         2    ;  uncertainty k = 0.389107
         4         2         1        21     9        0.000000        1.081945         3    ;  uncertainty k = 0.245960
         4         2         1        21     9      180.000000        1.802497         4    ;  uncertainty k = 0.123312
         4         6         7         8     9        0.000000        0.005198         1    ;  uncertainty k = 0.221038
         4         6         7         8     9      180.000000        6.900953         2    ;  uncertainty k = 0.439938
         4         6         7         8     9        0.000000        0.371100         3    ;  uncertainty k = 0.279153
         4         6         7         8     9      180.000000        1.356016         4    ;  uncertainty k = 0.245194
         4         6         7        15     9        0.000000        0.351086         1    ;  uncertainty k = 0.155405
         4         6         7        15     9      180.000000        5.020031         2    ;  uncertainty k = 0.385809
         4         6         7        15     9        0.000000        1.474278         3    ;  uncertainty k = 0.265132
         4         6         7        15     9      180.000000        1.671995         4    ;  uncertainty k = 0.208671
         4         6        10        11     9        0.000000        0.085023         1    ;  uncertainty k = 0.902035
         4         6        10        11     9      180.000000        1.704371         2    ;  uncertainty k = 0.430435
         4         6        10        11     9        0.000000        0.984308         3    ;  uncertainty k = 0.161474
         4         6        10        11     9      180.000000        0.271710         4    ;  uncertainty k = 0.164227
         5         4         6         7     9        0.000000        0.318087         1    ;  uncertainty k = 0.559675
         5         4         6         7     9      180.000000        5.771098         2    ;  uncertainty k = 0.421243
         5         4         6         7     9        0.000000        1.336416         3    ;  uncertainty k = 0.193726
         5         4         6         7     9      180.000000        1.399370         4    ;  uncertainty k = 0.138609
         5         4         6        10     9        0.000000       -0.161304         1    ;  uncertainty k = 0.570841
         5         4         6        10     9      180.000000        9.024649         2    ;  uncertainty k = 0.412089
         5         4         6        10     9        0.000000        0.774724         3    ;  uncertainty k = 0.273551
         5         4         6        10     9      180.000000        1.237000         4    ;  uncertainty k = 0.290002
         6         7         8         9     9        0.000000        0.259035         1    ;  uncertainty k = 0.451203
         6         7         8         9     9      180.000000        7.932693         2    ;  uncertainty k = 0.710923
         6         7         8         9     9        0.000000        1.259104         3    ;  uncertainty k = 0.217348
         6         7         8         9     9      180.000000        1.663148         4    ;  uncertainty k = 0.154748
         6         7        15        12     9        0.000000       -0.540459         1    ;  uncertainty k = 1.510402
         6         7        15        12     9      180.000000        0.654548         2    ;  uncertainty k = 0.564458
         6         7        15        12     9        0.000000        0.303633         3    ;  uncertainty k = 0.341643
         6         7        15        12     9      180.000000        0.276519         4    ;  uncertainty k = 0.206489
         6         7        15        16     9        0.000000        2.064012         1    ;  uncertainty k = 2.512232
         6         7        15        16     9      180.000000        0.575820         2    ;  uncertainty k = 1.024411
         6         7        15        16     9        0.000000        0.468786         3    ;  uncertainty k = 0.298151
         6         7        15        16     9      180.000000        0.336285         4    ;  uncertainty k = 0.182667
         6         7        15        19     9        0.000000       -1.863446         1    ;  uncertainty k = 1.694028
         6         7        15        19     9      180.000000        1.469403         2    ;  uncertainty k = 0.394138
         6         7        15        19     9        0.000000        0.603734         3    ;  uncertainty k = 0.479319
         6         7        15        19     9      180.000000        0.028466         4    ;  uncertainty k = 0.167374
         6        10        11        12     9        0.000000        4.367104         1    ;  uncertainty k = 0.568224
         6        10        11        12     9      180.000000       -1.721484         2    ;  uncertainty k = 1.273231
         6        10        11        12     9        0.000000       -0.456864         3    ;  uncertainty k = 0.472174
         6        10        11        12     9      180.000000        0.328459         4    ;  uncertainty k = 0.236646
         6        10        11        39     9        0.000000       -1.366436         1    ;  uncertainty k = 0.443902
         6        10        11        39     9      180.000000        1.117989         2    ;  uncertainty k = 0.670204
         6        10        11        39     9        0.000000        0.420512         3    ;  uncertainty k = 0.232671
         6        10        11        39     9      180.000000        0.169724         4    ;  uncertainty k = 0.171412
         6        10        11        43     9        0.000000       -1.366437         1    ;  uncertainty k = 0.443902
         6        10        11        43     9      180.000000        1.117989         2    ;  uncertainty k = 0.670204
         6        10        11        43     9        0.000000        0.420512         3    ;  uncertainty k = 0.232671
         6        10        11        43     9      180.000000        0.169724         4    ;  uncertainty k = 0.171412
         7         6        10        11     9        0.000000        4.271569         1    ;  uncertainty k = 1.796574
         7         6        10        11     9      180.000000       -1.222642         2    ;  uncertainty k = 1.437427
         7         6        10        11     9        0.000000       -0.358544         3    ;  uncertainty k = 0.693317
         7         6        10        11     9      180.000000        0.661460         4    ;  uncertainty k = 0.249933
         7         8         1        21     9        0.000000        0.468415         1    ;  uncertainty k = 0.410107
         7         8         1        21     9      180.000000        8.856216         2    ;  uncertainty k = 0.280819
         7         8         1        21     9        0.000000        1.316463         3    ;  uncertainty k = 0.290855
         7         8         1        21     9      180.000000        1.713561         4    ;  uncertainty k = 0.149938
         7        15        12        11     9        0.000000        1.843212         1    ;  uncertainty k = 0.983930
         7        15        12        11     9      180.000000       -1.092547         2    ;  uncertainty k = 0.514334
         7        15        12        11     9        0.000000        0.377751         3    ;  uncertainty k = 0.168219
         7        15        12        11     9      180.000000       -0.266848         4    ;  uncertainty k = 0.241064
         7        15        12        13     9        0.000000       -0.184280         1    ;  uncertainty k = 0.151452
         7        15        12        13     9      180.000000        0.082637         2    ;  uncertainty k = 0.465044
         7        15        12        13     9        0.000000        0.450906         3    ;  uncertainty k = 0.241632
         7        15        12        13     9      180.000000       -0.098014         4    ;  uncertainty k = 0.140109
         7        15        12        14     9        0.000000       -0.184280         1    ;  uncertainty k = 0.151452
         7        15        12        14     9      180.000000        0.082637         2    ;  uncertainty k = 0.465044
         7        15        12        14     9        0.000000        0.450906         3    ;  uncertainty k = 0.241632
         7        15        12        14     9      180.000000       -0.098014         4    ;  uncertainty k = 0.140109
         7        15        16        17     9        0.000000       -2.197219         1    ;  uncertainty k = 2.689102
         7        15        16        17     9      180.000000        2.454434         2    ;  uncertainty k = 1.195725
         7        15        16        17     9        0.000000        1.462437         3    ;  uncertainty k = 0.193860
         7        15        16        17     9      180.000000        0.684469         4    ;  uncertainty k = 0.442428
         7        15        16        38     9        0.000000       -0.677496         1    ;  uncertainty k = 2.332528
         7        15        16        38     9      180.000000        3.147874         2    ;  uncertainty k = 0.438383
         7        15        16        38     9        0.000000        0.225918         3    ;  uncertainty k = 0.274621
         7        15        16        38     9      180.000000        0.154165         4    ;  uncertainty k = 0.276440
         7        15        19        18     9        0.000000        0.841479         1    ;  uncertainty k = 1.233164
         7        15        19        18     9      180.000000        0.532772         2    ;  uncertainty k = 0.534353
         7        15        19        18     9        0.000000        0.876198         3    ;  uncertainty k = 0.357543
         7        15        19        18     9      180.000000        0.393556         4    ;  uncertainty k = 0.145454
         7        15        19        20     9        0.000000        0.930053         1    ;  uncertainty k = 2.817268
         7        15        19        20     9      180.000000       -1.068282         2    ;  uncertainty k = 1.239878
         7        15        19        20     9        0.000000        0.529773         3    ;  uncertainty k = 0.500340
         7        15        19        20     9      180.000000       -0.044545         4    ;  uncertainty k = 0.108915
         8         1        21        29     9        0.000000       -0.467170         1    ;  uncertainty k = 0.451402
         8         1        21        29     9      180.000000        4.095115         2    ;  uncertainty k = 0.274225
         8         1        21        29     9        0.000000        0.525969         3    ;  uncertainty k = 0.232672
         8         1        21        29     9      180.000000       -0.068780         4    ;  uncertainty k = 0.056626
         8         1        21        37     9        0.000000        0.823659         1    ;  uncertainty k = 0.530327
         8         1        21        37     9      180.000000        5.178201         2    ;  uncertainty k = 0.204246
         8         1        21        37     9        0.000000        0.508622         3    ;  uncertainty k = 0.210237
         8         1        21        37     9      180.000000        0.101515         4    ;  uncertainty k = 0.048892
         8         7         6        10     9        0.000000        0.561351         1    ;  uncertainty k = 0.416236
         8         7         6        10     9      180.000000        8.020078         2    ;  uncertainty k = 0.292283
         8         7         6        10     9        0.000000        1.541968         3    ;  uncertainty k = 0.273349
         8         7         6        10     9      180.000000        1.554114         4    ;  uncertainty k = 0.200086
         8         7        15        12     9        0.000000       -0.690723         1    ;  uncertainty k = 1.075750
         8         7        15        12     9      180.000000        1.023931         2    ;  uncertainty k = 0.387298
         8         7        15        12     9        0.000000       -0.287165         3    ;  uncertainty k = 0.352079
         8         7        15        12     9      180.000000        0.167688         4    ;  uncertainty k = 0.190571
         8         7        15        16     9        0.000000        0.873753         1    ;  uncertainty k = 2.002931
         8         7        15        16     9      180.000000        0.181540         2    ;  uncertainty k = 0.557454
         8         7        15        16     9        0.000000        0.127073         3    ;  uncertainty k = 0.316506
         8         7        15        16     9      180.000000        0.309759         4    ;  uncertainty k = 0.130773
         8         7        15        19     9        0.000000       -0.452177         1    ;  uncertainty k = 0.740503
         8         7        15        19     9      180.000000        1.971570         2    ;  uncertainty k = 0.411465
         8         7        15        19     9        0.000000       -0.055374         3    ;  uncertainty k = 0.368810
         8         7        15        19     9      180.000000        0.094253         4    ;  uncertainty k = 0.272490
         9         8         1        21     9        0.000000       -0.207983         1    ;  uncertainty k = 0.035117
         9         8         1        21     9      180.000000        7.631485         2    ;  uncertainty k = 0.358847
         9         8         1        21     9        0.000000        0.807740         3    ;  uncertainty k = 0.235016
         9         8         1        21     9      180.000000        1.312165         4    ;  uncertainty k = 0.085729
         9         8         7        15     9        0.000000       -0.352386         1    ;  uncertainty k = 0.367174
         9         8         7        15     9      180.000000        6.811528         2    ;  uncertainty k = 0.329245
         9         8         7        15     9        0.000000        0.963589         3    ;  uncertainty k = 0.312646
         9         8         7        15     9      180.000000        1.269508         4    ;  uncertainty k = 0.250940
        10         6         7        15     9        0.000000        0.510240         1    ;  uncertainty k = 0.983925
        10         6         7        15     9      180.000000        5.653693         2    ;  uncertainty k = 0.698346
        10         6         7        15     9        0.000000        1.758858         3    ;  uncertainty k = 0.463828
        10         6         7        15     9      180.000000        1.066269         4    ;  uncertainty k = 0.420579
        10        11        12        13     9        0.000000       -1.286357         1    ;  uncertainty k = 0.418982
        10        11        12        13     9      180.000000       -0.843337         2    ;  uncertainty k = 0.564487
        10        11        12        13     9        0.000000        0.398057         3    ;  uncertainty k = 0.233267
        10        11        12        13     9      180.000000       -0.189590         4    ;  uncertainty k = 0.165011
        10        11        12        14     9        0.000000       -1.286357         1    ;  uncertainty k = 0.418982
        10        11        12        14     9      180.000000       -0.843337         2    ;  uncertainty k = 0.564487
        10        11        12        14     9        0.000000        0.398057         3    ;  uncertainty k = 0.233267
        10        11        12        14     9      180.000000       -0.189590         4    ;  uncertainty k = 0.165011
        10        11        12        15     9        0.000000        7.476954         1    ;  uncertainty k = 0.712372
        10        11        12        15     9      180.000000       -4.264125         2    ;  uncertainty k = 1.996416
        10        11        12        15     9        0.000000       -0.268865         3    ;  uncertainty k = 0.560592
        10        11        12        15     9      180.000000       -0.018620         4    ;  uncertainty k = 0.403705
        10        11        39        40     9        0.000000       -0.556687         1    ;  uncertainty k = 0.641512
        10        11        39        40     9      180.000000       -2.127824         2    ;  uncertainty k = 0.599046
        10        11        39        40     9        0.000000        0.863808         3    ;  uncertainty k = 0.110663
        10        11        39        40     9      180.000000       -0.195070         4    ;  uncertainty k = 0.150407
        10        11        39        41     9        0.000000       -0.556687         1    ;  uncertainty k = 0.641512
        10        11        39        41     9      180.000000       -2.127824         2    ;  uncertainty k = 0.599046
        10        11        39        41     9        0.000000        0.863808         3    ;  uncertainty k = 0.110663
        10        11        39        41     9      180.000000       -0.195070         4    ;  uncertainty k = 0.150407
        10        11        39        42     9        0.000000       -0.556687         1    ;  uncertainty k = 0.641512
        10        11        39        42     9      180.000000       -2.127824         2    ;  uncertainty k = 0.599046
        10        11        39        42     9        0.000000        0.863808         3    ;  uncertainty k = 0.110663
        10        11        39        42     9      180.000000       -0.195070         4    ;  uncertainty k = 0.150407
        10        11        43        44     9        0.000000       -0.556686         1    ;  uncertainty k = 0.641512
        10        11        43        44     9      180.000000       -2.127823         2    ;  uncertainty k = 0.599046
        10        11        43        44     9        0.000000        0.863808         3    ;  uncertainty k = 0.110663
        10        11        43        44     9      180.000000       -0.195070         4    ;  uncertainty k = 0.150407
        10        11        43        45     9        0.000000       -0.556686         1    ;  uncertainty k = 0.641512
        10        11        43        45     9      180.000000       -2.127823         2    ;  uncertainty k = 0.599046
        10        11        43        45     9        0.000000        0.863808         3    ;  uncertainty k = 0.110663
        10        11        43        45     9      180.000000       -0.195070         4    ;  uncertainty k = 0.150407
        10        11        43        46     9        0.000000       -0.556686         1    ;  uncertainty k = 0.641512
        10        11        43        46     9      180.000000       -2.127823         2    ;  uncertainty k = 0.599046
        10        11        43        46     9        0.000000        0.863808         3    ;  uncertainty k = 0.110663
        10        11        43        46     9      180.000000       -0.195070         4    ;  uncertainty k = 0.150407
        11        12        15        16     9        0.000000       -1.228978         1    ;  uncertainty k = 1.347491
        11        12        15        16     9      180.000000       -0.515847         2    ;  uncertainty k = 0.500825
        11        12        15        16     9        0.000000        0.433214         3    ;  uncertainty k = 0.247206
        11        12        15        16     9      180.000000       -0.080465         4    ;  uncertainty k = 0.226810
        11        12        15        19     9        0.000000       -2.978696         1    ;  uncertainty k = 1.009148
        11        12        15        19     9      180.000000       -1.349812         2    ;  uncertainty k = 1.012802
        11        12        15        19     9        0.000000        1.198772         3    ;  uncertainty k = 0.505782
        11        12        15        19     9      180.000000        0.002053         4    ;  uncertainty k = 0.225805
        12        11        39        40     9        0.000000       -0.810618         1    ;  uncertainty k = 0.476463
        12        11        39        40     9      180.000000       -0.740441         2    ;  uncertainty k = 0.208397
        12        11        39        40     9        0.000000        0.585176         3    ;  uncertainty k = 0.093112
        12        11        39        40     9      180.000000       -0.179618         4    ;  uncertainty k = 0.029902
        12        11        39        41     9        0.000000       -0.810618         1    ;  uncertainty k = 0.476463
        12        11        39        41     9      180.000000       -0.740441         2    ;  uncertainty k = 0.208397
        12        11        39        41     9        0.000000        0.585176         3    ;  uncertainty k = 0.093112
        12        11        39        41     9      180.000000       -0.179618         4    ;  uncertainty k = 0.029902
        12        11        39        42     9        0.000000       -0.810618         1    ;  uncertainty k = 0.476463
        12        11        39        42     9      180.000000       -0.740441         2    ;  uncertainty k = 0.208397
        12        11        39        42     9        0.000000        0.585176         3    ;  uncertainty k = 0.093112
        12        11        39        42     9      180.000000       -0.179618         4    ;  uncertainty k = 0.029902
        12        11        43        44     9        0.000000       -0.810617         1    ;  uncertainty k = 0.476463
        12        11        43        44     9      180.000000       -0.740442         2    ;  uncertainty k = 0.208397
        12        11        43        44     9        0.000000        0.585176         3    ;  uncertainty k = 0.093112
        12        11        43        44     9      180.000000       -0.179618         4    ;  uncertainty k = 0.029902
        12        11        43        45     9        0.000000       -0.810617         1    ;  uncertainty k = 0.476463
        12        11        43        45     9      180.000000       -0.740442         2    ;  uncertainty k = 0.208397
        12        11        43        45     9        0.000000        0.585176         3    ;  uncertainty k = 0.093112
        12        11        43        45     9      180.000000       -0.179618         4    ;  uncertainty k = 0.029902
        12        11        43        46     9        0.000000       -0.810617         1    ;  uncertainty k = 0.476463
        12        11        43        46     9      180.000000       -0.740442         2    ;  uncertainty k = 0.208397
        12        11        43        46     9        0.000000        0.585176         3    ;  uncertainty k = 0.093112
        12        11        43        46     9      180.000000       -0.179618         4    ;  uncertainty k = 0.029902
        12        15        16        17     9        0.000000       -3.062352         1    ;  uncertainty k = 1.276839
        12        15        16        17     9      180.000000        2.894127         2    ;  uncertainty k = 0.258587
        12        15        16        17     9        0.000000        0.860445         3    ;  uncertainty k = 0.091746
        12        15        16        17     9      180.000000        0.587117         4    ;  uncertainty k = 0.338988
        12        15        16        38     9        0.000000       -0.574293         1    ;  uncertainty k = 2.046093
        12        15        16        38     9      180.000000        3.928919         2    ;  uncertainty k = 1.075275
        12        15        16        38     9        0.000000        0.161227         3    ;  uncertainty k = 0.381109
        12        15        16        38     9      180.000000        0.057219         4    ;  uncertainty k = 0.338212
        12        15        19        18     9        0.000000       -0.720184         1    ;  uncertainty k = 0.363423
        12        15        19        18     9      180.000000        1.466373         2    ;  uncertainty k = 0.671882
        12        15        19        18     9        0.000000        0.362475         3    ;  uncertainty k = 0.242092
        12        15        19        18     9      180.000000        0.276221         4    ;  uncertainty k = 0.143829
        12        15        19        20     9        0.000000        1.014477         1    ;  uncertainty k = 3.207548
        12        15        19        20     9      180.000000       -0.447186         2    ;  uncertainty k = 0.880594
        12        15        19        20     9        0.000000        0.406773         3    ;  uncertainty k = 0.479851
        12        15        19        20     9      180.000000        0.075628         4    ;  uncertainty k = 0.078933
        13        12        11        39     9        0.000000       -0.868529         1    ;  uncertainty k = 0.359709
        13        12        11        39     9      180.000000        0.339049         2    ;  uncertainty k = 0.271426
        13        12        11        39     9        0.000000        0.030221         3    ;  uncertainty k = 0.169820
        13        12        11        39     9      180.000000       -0.198172         4    ;  uncertainty k = 0.102798
        13        12        11        43     9        0.000000       -0.868529         1    ;  uncertainty k = 0.359708
        13        12        11        43     9      180.000000        0.339049         2    ;  uncertainty k = 0.271426
        13        12        11        43     9        0.000000        0.030221         3    ;  uncertainty k = 0.169820
        13        12        11        43     9      180.000000       -0.198172         4    ;  uncertainty k = 0.102797
        13        12        15        16     9        0.000000        0.636693         1    ;  uncertainty k = 0.443881
        13        12        15        16     9      180.000000       -1.082830         2    ;  uncertainty k = 0.432291
        13        12        15        16     9        0.000000        0.083911         3    ;  uncertainty k = 0.203429
        13        12        15        16     9      180.000000       -0.053905         4    ;  uncertainty k = 0.095175
        13        12        15        19     9        0.000000       -1.014378         1    ;  uncertainty k = 0.666771
        13        12        15        19     9      180.000000       -0.206347         2    ;  uncertainty k = 0.431023
        13        12        15        19     9        0.000000        0.529827         3    ;  uncertainty k = 0.228576
        13        12        15        19     9      180.000000       -0.286824         4    ;  uncertainty k = 0.129461
        14        12        11        39     9        0.000000       -0.868529         1    ;  uncertainty k = 0.359709
        14        12        11        39     9      180.000000        0.339049         2    ;  uncertainty k = 0.271426
        14        12        11        39     9        0.000000        0.030221         3    ;  uncertainty k = 0.169820
        14        12        11        39     9      180.000000       -0.198172         4    ;  uncertainty k = 0.102798
        14        12        11        43     9        0.000000       -0.868529         1    ;  uncertainty k = 0.359708
        14        12        11        43     9      180.000000        0.339049         2    ;  uncertainty k = 0.271426
        14        12        11        43     9        0.000000        0.030221         3    ;  uncertainty k = 0.169820
        14        12        11        43     9      180.000000       -0.198172         4    ;  uncertainty k = 0.102797
        14        12        15        16     9        0.000000        0.636693         1    ;  uncertainty k = 0.443881
        14        12        15        16     9      180.000000       -1.082830         2    ;  uncertainty k = 0.432291
        14        12        15        16     9        0.000000        0.083911         3    ;  uncertainty k = 0.203429
        14        12        15        16     9      180.000000       -0.053905         4    ;  uncertainty k = 0.095175
        14        12        15        19     9        0.000000       -1.014378         1    ;  uncertainty k = 0.666771
        14        12        15        19     9      180.000000       -0.206347         2    ;  uncertainty k = 0.431023
        14        12        15        19     9        0.000000        0.529827         3    ;  uncertainty k = 0.228576
        14        12        15        19     9      180.000000       -0.286824         4    ;  uncertainty k = 0.129461
        15        12        11        39     9        0.000000       -0.394043         1    ;  uncertainty k = 0.952251
        15        12        11        39     9      180.000000       -0.298782         2    ;  uncertainty k = 0.210060
        15        12        11        39     9        0.000000        0.102279         3    ;  uncertainty k = 0.252570
        15        12        11        39     9      180.000000       -0.158350         4    ;  uncertainty k = 0.062640
        15        12        11        43     9        0.000000       -0.394043         1    ;  uncertainty k = 0.952250
        15        12        11        43     9      180.000000       -0.298783         2    ;  uncertainty k = 0.210060
        15        12        11        43     9        0.000000        0.102279         3    ;  uncertainty k = 0.252570
        15        12        11        43     9      180.000000       -0.158350         4    ;  uncertainty k = 0.062640
        15        16        17        18     9        0.000000        3.190561         1    ;  uncertainty k = 2.129282
        15        16        17        18     9      180.000000        4.165518         2    ;  uncertainty k = 2.103257
        15        16        17        18     9        0.000000       -0.163634         3    ;  uncertainty k = 0.825879
        15        16        17        18     9      180.000000        0.629686         4    ;  uncertainty k = 0.355315
        15        16        17        22     9        0.000000        4.948398         1    ;  uncertainty k = 2.742746
        15        16        17        22     9      180.000000        3.665595         2    ;  uncertainty k = 2.655463
        15        16        17        22     9        0.000000        1.132038         3    ;  uncertainty k = 0.860259
        15        16        17        22     9      180.000000        0.328976         4    ;  uncertainty k = 0.593114
        15        19        18        17     9        0.000000        1.152348         1    ;  uncertainty k = 2.624975
        15        19        18        17     9      180.000000       15.352878         2    ;  uncertainty k = 0.482590
        15        19        18        17     9        0.000000       -0.706329         3    ;  uncertainty k = 1.011989
        15        19        18        17     9      180.000000       -0.606106         4    ;  uncertainty k = 0.206718
        15        19        18        26     9        0.000000        3.692759         1    ;  uncertainty k = 0.866356
        15        19        18        26     9      180.000000       11.333780         2    ;  uncertainty k = 0.611404
        15        19        18        26     9        0.000000        0.314850         3    ;  uncertainty k = 0.239643
        15        19        18        26     9      180.000000       -0.482788         4    ;  uncertainty k = 0.513934
        16        15        19        18     9        0.000000        1.075900         1    ;  uncertainty k = 0.686752
        16        15        19        18     9      180.000000        2.337056         2    ;  uncertainty k = 0.668401
        16        15        19        18     9        0.000000        0.174345         3    ;  uncertainty k = 0.624029
        16        15        19        18     9      180.000000        0.491041         4    ;  uncertainty k = 0.337525
        16        15        19        20     9        0.000000        1.870131         1    ;  uncertainty k = 2.124002
        16        15        19        20     9      180.000000       -0.788361         2    ;  uncertainty k = 0.765205
        16        15        19        20     9        0.000000        0.063928         3    ;  uncertainty k = 0.474210
        16        15        19        20     9      180.000000        0.018853         4    ;  uncertainty k = 0.243518
        16        17        18        19     9        0.000000       -0.598871         1    ;  uncertainty k = 1.517512
        16        17        18        19     9      180.000000        9.023777         2    ;  uncertainty k = 0.890262
        16        17        18        19     9        0.000000       -1.321226         3    ;  uncertainty k = 1.261849
        16        17        18        19     9      180.000000       -0.043685         4    ;  uncertainty k = 0.510427
        16        17        18        26     9        0.000000       -0.742539         1    ;  uncertainty k = 0.884320
        16        17        18        26     9      180.000000        6.821150         2    ;  uncertainty k = 1.300514
        16        17        18        26     9        0.000000        0.216631         3    ;  uncertainty k = 0.558836
        16        17        18        26     9      180.000000       -0.098970         4    ;  uncertainty k = 0.493923
        16        17        22        23     9        0.000000        0.297431         1    ;  uncertainty k = 0.338022
        16        17        22        23     9      180.000000        0.087168         2    ;  uncertainty k = 0.381934
        16        17        22        23     9        0.000000        0.347193         3    ;  uncertainty k = 0.232215
        16        17        22        23     9      180.000000        0.291096         4    ;  uncertainty k = 0.074538
        16        17        22        24     9        0.000000        0.297431         1    ;  uncertainty k = 0.338022
        16        17        22        24     9      180.000000        0.087168         2    ;  uncertainty k = 0.381934
        16        17        22        24     9        0.000000        0.347193         3    ;  uncertainty k = 0.232215
        16        17        22        24     9      180.000000        0.291096         4    ;  uncertainty k = 0.074538
        16        17        22        25     9        0.000000        0.297431         1    ;  uncertainty k = 0.338022
        16        17        22        25     9      180.000000        0.087168         2    ;  uncertainty k = 0.381934
        16        17        22        25     9        0.000000        0.347193         3    ;  uncertainty k = 0.232215
        16        17        22        25     9      180.000000        0.291096         4    ;  uncertainty k = 0.074538
        17        16        15        19     9        0.000000       -0.734672         1    ;  uncertainty k = 2.407402
        17        16        15        19     9      180.000000        6.965369         2    ;  uncertainty k = 1.234532
        17        16        15        19     9        0.000000        0.624658         3    ;  uncertainty k = 0.577006
        17        16        15        19     9      180.000000        0.290059         4    ;  uncertainty k = 0.846479
        17        18        19        20     9        0.000000        4.051322         1    ;  uncertainty k = 3.391115
        17        18        19        20     9      180.000000       10.697180         2    ;  uncertainty k = 0.526601
        17        18        19        20     9        0.000000        1.093668         3    ;  uncertainty k = 0.752546
        17        18        19        20     9      180.000000       -0.389374         4    ;  uncertainty k = 0.265720
        17        18        26        27     9        0.000000        8.080941         1    ;  uncertainty k = 2.061712
        17        18        26        27     9      180.000000        9.353073         2    ;  uncertainty k = 0.455751
        17        18        26        27     9        0.000000        0.960301         3    ;  uncertainty k = 0.478476
        17        18        26        27     9      180.000000       -0.922267         4    ;  uncertainty k = 0.215681
        17        18        26        28     9        0.000000        8.080941         1    ;  uncertainty k = 2.061712
        17        18        26        28     9      180.000000        9.353073         2    ;  uncertainty k = 0.455751
        17        18        26        28     9        0.000000        0.960301         3    ;  uncertainty k = 0.478476
        17        18        26        28     9      180.000000       -0.922267         4    ;  uncertainty k = 0.215681
        18        17        16        38     9        0.000000       -0.225774         1    ;  uncertainty k = 3.237560
        18        17        16        38     9      180.000000        7.660703         2    ;  uncertainty k = 0.931236
        18        17        16        38     9        0.000000        0.373526         3    ;  uncertainty k = 0.816132
        18        17        16        38     9      180.000000        0.053274         4    ;  uncertainty k = 0.298389
        18        17        22        23     9        0.000000       -0.260671         1    ;  uncertainty k = 0.510831
        18        17        22        23     9      180.000000       -1.123799         2    ;  uncertainty k = 0.505443
        18        17        22        23     9        0.000000        0.381297         3    ;  uncertainty k = 0.163929
        18        17        22        23     9      180.000000        0.194836         4    ;  uncertainty k = 0.041789
        18        17        22        24     9        0.000000       -0.260671         1    ;  uncertainty k = 0.510831
        18        17        22        24     9      180.000000       -1.123799         2    ;  uncertainty k = 0.505443
        18        17        22        24     9        0.000000        0.381297         3    ;  uncertainty k = 0.163929
        18        17        22        24     9      180.000000        0.194836         4    ;  uncertainty k = 0.041789
        18        17        22        25     9        0.000000       -0.260671         1    ;  uncertainty k = 0.510831
        18        17        22        25     9      180.000000       -1.123799         2    ;  uncertainty k = 0.505443
        18        17        22        25     9        0.000000        0.381297         3    ;  uncertainty k = 0.163929
        18        17        22        25     9      180.000000        0.194836         4    ;  uncertainty k = 0.041789
        19        15        16        38     9        0.000000        0.024534         1    ;  uncertainty k = 2.213974
        19        15        16        38     9      180.000000        4.149250         2    ;  uncertainty k = 1.312392
        19        15        16        38     9        0.000000        0.407423         3    ;  uncertainty k = 0.206510
        19        15        16        38     9      180.000000        0.443239         4    ;  uncertainty k = 0.158688
        19        18        17        22     9        0.000000       -0.380136         1    ;  uncertainty k = 2.913081
        19        18        17        22     9      180.000000        8.267784         2    ;  uncertainty k = 0.403615
        19        18        17        22     9        0.000000        0.435757         3    ;  uncertainty k = 0.320054
        19        18        17        22     9      180.000000       -0.156996         4    ;  uncertainty k = 0.291188
        19        18        26        27     9        0.000000        6.366443         1    ;  uncertainty k = 1.644722
        19        18        26        27     9      180.000000       10.049531         2    ;  uncertainty k = 0.349760
        19        18        26        27     9        0.000000        1.357511         3    ;  uncertainty k = 0.507490
        19        18        26        27     9      180.000000       -0.656591         4    ;  uncertainty k = 0.287459
        19        18        26        28     9        0.000000        6.366443         1    ;  uncertainty k = 1.644722
        19        18        26        28     9      180.000000       10.049531         2    ;  uncertainty k = 0.349760
        19        18        26        28     9        0.000000        1.357511         3    ;  uncertainty k = 0.507490
        19        18        26        28     9      180.000000       -0.656591         4    ;  uncertainty k = 0.287459
        20        19        18        26     9        0.000000        1.886192         1    ;  uncertainty k = 2.633103
        20        19        18        26     9      180.000000        7.784175         2    ;  uncertainty k = 1.209625
        20        19        18        26     9        0.000000        0.956054         3    ;  uncertainty k = 0.197633
        20        19        18        26     9      180.000000       -0.247909         4    ;  uncertainty k = 0.316191
        21        29        31        32     9        0.000000       -0.090258         1    ;  uncertainty k = 0.151633
        21        29        31        32     9      180.000000        7.764058         2    ;  uncertainty k = 0.286010
        21        29        31        32     9        0.000000        1.297675         3    ;  uncertainty k = 0.319581
        21        29        31        32     9      180.000000        1.659582         4    ;  uncertainty k = 0.138649
        21        29        31        33     9        0.000000        0.100868         1    ;  uncertainty k = 0.231280
        21        29        31        33     9      180.000000       14.556793         2    ;  uncertainty k = 0.291136
        21        29        31        33     9        0.000000       -1.352569         3    ;  uncertainty k = 0.486615
        21        29        31        33     9      180.000000        0.588384         4    ;  uncertainty k = 0.273264
        21        37        35        33     9        0.000000       -0.228692         1    ;  uncertainty k = 0.145887
        21        37        35        33     9      180.000000       15.056381         2    ;  uncertainty k = 0.247069
        21        37        35        33     9        0.000000        0.585066         3    ;  uncertainty k = 0.552574
        21        37        35        33     9      180.000000        1.397211         4    ;  uncertainty k = 0.156718
        21        37        35        36     9        0.000000        0.121161         1    ;  uncertainty k = 0.586209
        21        37        35        36     9      180.000000       15.133540         2    ;  uncertainty k = 0.447714
        21        37        35        36     9        0.000000        2.140206         3    ;  uncertainty k = 0.666353
        21        37        35        36     9      180.000000        1.648409         4    ;  uncertainty k = 0.267839
        22        17        16        38     9        0.000000       -0.743118         1    ;  uncertainty k = 3.324160
        22        17        16        38     9      180.000000        8.127734         2    ;  uncertainty k = 0.445128
        22        17        16        38     9        0.000000        0.693460         3    ;  uncertainty k = 0.571372
        22        17        16        38     9      180.000000        0.151177         4    ;  uncertainty k = 0.263311
        22        17        18        26     9        0.000000       -0.067505         1    ;  uncertainty k = 0.784520
        22        17        18        26     9      180.000000        6.890792         2    ;  uncertainty k = 0.817474
        22        17        18        26     9        0.000000        0.975121         3    ;  uncertainty k = 0.584566
        22        17        18        26     9      180.000000       -0.011356         4    ;  uncertainty k = 0.268200
        29        21        37        35     9        0.000000       -0.118304         1    ;  uncertainty k = 0.943249
        29        21        37        35     9      180.000000       12.792574         2    ;  uncertainty k = 0.435717
        29        21        37        35     9        0.000000        1.402215         3    ;  uncertainty k = 0.726071
        29        21        37        35     9      180.000000        1.101614         4    ;  uncertainty k = 0.245629
        29        31        33        34     9        0.000000        0.147119         1    ;  uncertainty k = 0.270047
        29        31        33        34     9      180.000000        7.985712         2    ;  uncertainty k = 0.389491
        29        31        33        34     9        0.000000        1.522822         3    ;  uncertainty k = 0.343762
        29        31        33        34     9      180.000000        1.806780         4    ;  uncertainty k = 0.091213
        29        31        33        35     9        0.000000       -0.120287         1    ;  uncertainty k = 0.140653
        29        31        33        35     9      180.000000       14.617537         2    ;  uncertainty k = 0.231258
        29        31        33        35     9        0.000000       -1.524465         3    ;  uncertainty k = 0.582476
        29        31        33        35     9      180.000000        0.486488         4    ;  uncertainty k = 0.232864
        30        29        21        37     9        0.000000        0.114014         1    ;  uncertainty k = 0.396974
        30        29        21        37     9      180.000000        7.434213         2    ;  uncertainty k = 0.510175
        30        29        21        37     9        0.000000        1.142474         3    ;  uncertainty k = 0.219362
        30        29        21        37     9      180.000000        1.569087         4    ;  uncertainty k = 0.162989
        30        29        31        32     9        0.000000       -0.045090         1    ;  uncertainty k = 0.194597
        30        29        31        32     9      180.000000        8.217647         2    ;  uncertainty k = 0.398581
        30        29        31        32     9        0.000000       -0.539149         3    ;  uncertainty k = 0.373081
        30        29        31        32     9      180.000000        0.148443         4    ;  uncertainty k = 0.175341
        30        29        31        33     9        0.000000        0.159883         1    ;  uncertainty k = 0.285284
        30        29        31        33     9      180.000000        8.753657         2    ;  uncertainty k = 0.315248
        30        29        31        33     9        0.000000        1.499845         3    ;  uncertainty k = 0.339030
        30        29        31        33     9      180.000000        1.960807         4    ;  uncertainty k = 0.201009
        31        29        21        37     9        0.000000       -0.055344         1    ;  uncertainty k = 0.322322
        31        29        21        37     9      180.000000       11.370021         2    ;  uncertainty k = 0.307087
        31        29        21        37     9        0.000000       -0.444140         3    ;  uncertainty k = 0.536341
        31        29        21        37     9      180.000000        1.116712         4    ;  uncertainty k = 0.194658
        31        33        35        36     9        0.000000       -0.216543         1    ;  uncertainty k = 0.232461
        31        33        35        36     9      180.000000        6.327509         2    ;  uncertainty k = 0.293407
        31        33        35        36     9        0.000000        1.165855         3    ;  uncertainty k = 0.246914
        31        33        35        36     9      180.000000        1.471554         4    ;  uncertainty k = 0.168607
        31        33        35        37     9        0.000000        0.035272         1    ;  uncertainty k = 0.235156
        31        33        35        37     9      180.000000       15.298546         2    ;  uncertainty k = 0.282609
        31        33        35        37     9        0.000000       -1.366433         3    ;  uncertainty k = 0.612580
        31        33        35        37     9      180.000000        0.855146         4    ;  uncertainty k = 0.176806
        32        31        33        34     9        0.000000       -0.021588         1    ;  uncertainty k = 0.130349
        32        31        33        34     9      180.000000        7.755323         2    ;  uncertainty k = 0.511957
        32        31        33        34     9        0.000000       -0.396768         3    ;  uncertainty k = 0.351950
        32        31        33        34     9      180.000000        0.101941         4    ;  uncertainty k = 0.142275
        32        31        33        35     9        0.000000       -0.181412         1    ;  uncertainty k = 0.444990
        32        31        33        35     9      180.000000        7.684286         2    ;  uncertainty k = 0.333978
        32        31        33        35     9        0.000000        1.200835         3    ;  uncertainty k = 0.270536
        32        31        33        35     9      180.000000        1.512349         4    ;  uncertainty k = 0.104676
        34        33        35        36     9        0.000000       -0.302728         1    ;  uncertainty k = 0.246914
        34        33        35        36     9      180.000000        6.591090         2    ;  uncertainty k = 0.197265
        34        33        35        36     9        0.000000       -0.105294         3    ;  uncertainty k = 0.100455
        34        33        35        36     9      180.000000        0.272385         4    ;  uncertainty k = 0.075159
        34        33        35        37     9        0.000000       -0.059315         1    ;  uncertainty k = 0.230330
        34        33        35        37     9      180.000000        8.979391         2    ;  uncertainty k = 0.516608
        34        33        35        37     9        0.000000        0.990131         3    ;  uncertainty k = 0.264615
        34        33        35        37     9      180.000000        1.632211         4    ;  uncertainty k = 0.133999
        39        11        43        44     9        0.000000       -1.168307         1    ;  uncertainty k = 0.299692
        39        11        43        44     9      180.000000        0.150758         2    ;  uncertainty k = 0.296599
        39        11        43        44     9        0.000000        0.668939         3    ;  uncertainty k = 0.064920
        39        11        43        44     9      180.000000       -0.104413         4    ;  uncertainty k = 0.091599
        39        11        43        45     9        0.000000       -1.168307         1    ;  uncertainty k = 0.299692
        39        11        43        45     9      180.000000        0.150758         2    ;  uncertainty k = 0.296599
        39        11        43        45     9        0.000000        0.668939         3    ;  uncertainty k = 0.064920
        39        11        43        45     9      180.000000       -0.104413         4    ;  uncertainty k = 0.091599
        39        11        43        46     9        0.000000       -1.168307         1    ;  uncertainty k = 0.299692
        39        11        43        46     9      180.000000        0.150758         2    ;  uncertainty k = 0.296599
        39        11        43        46     9        0.000000        0.668939         3    ;  uncertainty k = 0.064920
        39        11        43        46     9      180.000000       -0.104413         4    ;  uncertainty k = 0.091599
        40        39        11        43     9        0.000000       -1.168308         1    ;  uncertainty k = 0.299692
        40        39        11        43     9      180.000000        0.150758         2    ;  uncertainty k = 0.296599
        40        39        11        43     9        0.000000        0.668939         3    ;  uncertainty k = 0.064920
        40        39        11        43     9      180.000000       -0.104414         4    ;  uncertainty k = 0.091599
        41        39        11        43     9        0.000000       -1.168308         1    ;  uncertainty k = 0.299692
        41        39        11        43     9      180.000000        0.150758         2    ;  uncertainty k = 0.296599
        41        39        11        43     9        0.000000        0.668939         3    ;  uncertainty k = 0.064920
        41        39        11        43     9      180.000000       -0.104414         4    ;  uncertainty k = 0.091599
        42        39        11        43     9        0.000000       -1.168308         1    ;  uncertainty k = 0.299692
        42        39        11        43     9      180.000000        0.150758         2    ;  uncertainty k = 0.296599
        42        39        11        43     9        0.000000        0.668939         3    ;  uncertainty k = 0.064920
        42        39        11        43     9      180.000000       -0.104414         4    ;  uncertainty k = 0.091599

[ dihedrals ] ; impropers
;       ai        aj        ak        al funct           phase               k        pn
         1         2         8        21     4      180.000000        9.887185         2    ;  uncertainty k = 0.088654
         1         8        21         2     4      180.000000        9.887185         2    ;  uncertainty k = 0.088654
         1        21         2         8     4      180.000000        9.887185         2    ;  uncertainty k = 0.088654
         2         1         3         4     4      180.000000        4.980715         2    ;  uncertainty k = 0.132949
         2         3         4         1     4      180.000000        4.980715         2    ;  uncertainty k = 0.132949
         2         4         1         3     4      180.000000        4.980715         2    ;  uncertainty k = 0.132949
         4         2         5         6     4      180.000000        1.832584         2    ;  uncertainty k = 0.362715
         4         5         6         2     4      180.000000        1.832584         2    ;  uncertainty k = 0.362715
         4         6         2         5     4      180.000000        1.832584         2    ;  uncertainty k = 0.362715
         6         4         7        10     4      180.000000       22.331699         2    ;  uncertainty k = 0.138638
         6         7        10         4     4      180.000000       22.331699         2    ;  uncertainty k = 0.138638
         6        10         4         7     4      180.000000       22.331699         2    ;  uncertainty k = 0.138638
         7         6         8        15     4      180.000000       11.545219         2    ;  uncertainty k = 0.251537
         7         8        15         6     4      180.000000       11.545219         2    ;  uncertainty k = 0.251537
         7        15         6         8     4      180.000000       11.545219         2    ;  uncertainty k = 0.251537
         8         1         7         9     4      180.000000        5.268915         2    ;  uncertainty k = 0.364441
         8         7         9         1     4      180.000000        5.268915         2    ;  uncertainty k = 0.364441
         8         9         1         7     4      180.000000        5.268915         2    ;  uncertainty k = 0.364441
        16        15        17        38     4      180.000000       50.512062         2    ;  uncertainty k = 0.072585
        16        17        38        15     4      180.000000       50.512062         2    ;  uncertainty k = 0.072585
        16        38        15        17     4      180.000000       50.512062         2    ;  uncertainty k = 0.072585
        17        16        18        22     4      180.000000        2.066646         2    ;  uncertainty k = 0.825300
        17        18        22        16     4      180.000000        2.066646         2    ;  uncertainty k = 0.825300
        17        22        16        18     4      180.000000        2.066646         2    ;  uncertainty k = 0.825300
        18        17        19        26     4      180.000000       30.892449         2    ;  uncertainty k = 0.146917
        18        19        26        17     4      180.000000       30.892449         2    ;  uncertainty k = 0.146917
        18        26        17        19     4      180.000000       30.892449         2    ;  uncertainty k = 0.146917
        21         1        29        37     4      180.000000       24.483525         2    ;  uncertainty k = 0.030277
        21        29        37         1     4      180.000000       24.483525         2    ;  uncertainty k = 0.030277
        21        37         1        29     4      180.000000       24.483525         2    ;  uncertainty k = 0.030277
        26        18        27        28     4      180.000000        0.184047         2    ;  uncertainty k = 0.411542
        26        27        28        18     4      180.000000        0.184047         2    ;  uncertainty k = 0.411542
        26        28        18        27     4      180.000000        0.184047         2    ;  uncertainty k = 0.411542
        29        21        30        31     4      180.000000        2.836933         2    ;  uncertainty k = 0.289321
        29        30        31        21     4      180.000000        2.836933         2    ;  uncertainty k = 0.289321
        29        31        21        30     4      180.000000        2.836933         2    ;  uncertainty k = 0.289321
        31        29        32        33     4      180.000000        6.637750         2    ;  uncertainty k = 0.105476
        31        32        33        29     4      180.000000        6.637750         2    ;  uncertainty k = 0.105476
        31        33        29        32     4      180.000000        6.637750         2    ;  uncertainty k = 0.105476
        33        31        34        35     4      180.000000        2.681348         2    ;  uncertainty k = 0.302474
        33        34        35        31     4      180.000000        2.681348         2    ;  uncertainty k = 0.302474
        33        35        31        34     4      180.000000        2.681348         2    ;  uncertainty k = 0.302474
        35        33        36        37     4      180.000000       13.775972         2    ;  uncertainty k = 0.084025
        35        36        37        33     4      180.000000       13.775972         2    ;  uncertainty k = 0.084025
        35        37        33        36     4      180.000000       13.775972         2    ;  uncertainty k = 0.084025

[ pairs ]
;       ai        aj funct
         1         5     1
         1         6     1
         1        15     1
         1        30     1
         1        31     1
         1        35     1
         2         7     1
         2         9     1
         2        10     1
         2        29     1
         2        37     1
         3         5     1
         3         6     1
         3         8     1
         3        21     1
         4         8     1
         4        11     1
         4        15     1
         4        21     1
         5         7     1
         5        10     1
         6         9     1
         6        12     1
         6        16     1
         6        19     1
         6        39     1
         6        43     1
         7        11     1
         7        13     1
         7        14     1
         7        17     1
         7        18     1
         7        20     1
         7        21     1
         7        38     1
         8        10     1
         8        12     1
         8        16     1
         8        19     1
         8        29     1
         8        37     1
         9        15     1
         9        21     1
        10        13     1
        10        14     1
        10        15     1
        10        40     1
        10        41     1
        10        42     1
        10        44     1
        10        45     1
        10        46     1
        11        16     1
        11        19     1
        12        17     1
        12        18     1
        12        20     1
        12        38     1
        12        40     1
        12        41     1
        12        42     1
        12        44     1
        12        45     1
        12        46     1
        13        16     1
        13        19     1
        13        39     1
        13        43     1
        14        16     1
        14        19     1
        14        39     1
        14        43     1
        15        22     1
        15        26     1
        15        39     1
        15        43     1
        16        20     1
        16        23     1
        16        24     1
        16        25     1
        16        26     1
        17        20     1
        17        27     1
        17        28     1
        18        23     1
        18        24     1
        18        25     1
        18        38     1
        19        22     1
        19        27     1
        19        28     1
        19        38     1
        20        26     1
        21        32     1
        21        33     1
        21        36     1
        22        26     1
        22        38     1
        29        34     1
        29        35     1
        30        32     1
        30        33     1
        30        37     1
        31        36     1
        31        37     1
        32        34     1
        32        35     1
        34        36     1
        34        37     1
        39        44     1
        39        45     1
        39        46     1
        40        43     1
        41        43     1
        42        43     1
