; ITP file created by ByteFF-joint-25, 2026-03-14 15:24:09.197192

[ atomtypes ]
;name           bonded.type        at.num        mass        charge   ptype           sigma         epsilon
 c0bf                                   6      0.0000       0.00000       A     3.31502e-01     4.13346e-01    ;  uncertainty sigma = 0.000010, epsilon = 0.000696
 c1bf                                   6      0.0000       0.00000       A     3.31510e-01     4.13385e-01    ;  uncertainty sigma = 0.000007, epsilon = 0.000565
 h2bf                                   1      0.0000       0.00000       A     2.62563e-01     6.71382e-02    ;  uncertainty sigma = 0.000008, epsilon = 0.000500
 c3bf                                   6      0.0000       0.00000       A     3.31523e-01     4.13778e-01    ;  uncertainty sigma = 0.000003, epsilon = 0.000961
 h4bf                                   1      0.0000       0.00000       A     2.62561e-01     6.68067e-02    ;  uncertainty sigma = 0.000012, epsilon = 0.000527
 c5bf                                   6      0.0000       0.00000       A     3.31562e-01     4.13129e-01    ;  uncertainty sigma = 0.000021, epsilon = 0.000953
 c6bf                                   6      0.0000       0.00000       A     3.31604e-01     4.12991e-01    ;  uncertainty sigma = 0.000053, epsilon = 0.001665
 c7bf                                   6      0.0000       0.00000       A     3.31543e-01     4.13398e-01    ;  uncertainty sigma = 0.000018, epsilon = 0.001289
 h8bf                                   1      0.0000       0.00000       A     2.62555e-01     6.73758e-02    ;  uncertainty sigma = 0.000015, epsilon = 0.000633
 o9bf                                   8      0.0000       0.00000       A     3.15675e-01     3.03348e-01    ;  uncertainty sigma = 0.000037, epsilon = 0.000709
 c10bf                                  6      0.0000       0.00000       A     3.39754e-01     4.50298e-01    ;  uncertainty sigma = 0.000022, epsilon = 0.001818
 c11bf                                  6      0.0000       0.00000       A     3.39729e-01     4.51261e-01    ;  uncertainty sigma = 0.000015, epsilon = 0.001388
 h12bf                                  1      0.0000       0.00000       A     2.60113e-01     8.69261e-02    ;  uncertainty sigma = 0.000018, epsilon = 0.001362
 h13bf                                  1      0.0000       0.00000       A     2.60113e-01     8.69261e-02    ;  uncertainty sigma = 0.000018, epsilon = 0.001362
 c14bf                                  6      0.0000       0.00000       A     3.39922e-01     4.52078e-01    ;  uncertainty sigma = 0.000044, epsilon = 0.005050
 c15bf                                  6      0.0000       0.00000       A     3.31534e-01     4.13061e-01    ;  uncertainty sigma = 0.000023, epsilon = 0.000770
 n16bf                                  7      0.0000       0.00000       A     3.18159e-01     6.82058e-01    ;  uncertainty sigma = 0.000074, epsilon = 0.006526
 c17bf                                  6      0.0000       0.00000       A     3.31516e-01     4.13029e-01    ;  uncertainty sigma = 0.000046, epsilon = 0.002102
 n18bf                                  7      0.0000       0.00000       A     3.27895e-01     6.51183e-01    ;  uncertainty sigma = 0.000198, epsilon = 0.011723
 h19bf                                  1      0.0000       0.00000       A     1.10796e-01     4.19443e-02    ;  uncertainty sigma = 0.000445, epsilon = 0.001840
 c20bf                                  6      0.0000       0.00000       A     3.31483e-01     4.13149e-01    ;  uncertainty sigma = 0.000009, epsilon = 0.000915
 c21bf                                  6      0.0000       0.00000       A     3.39747e-01     4.51374e-01    ;  uncertainty sigma = 0.000011, epsilon = 0.001160
 h22bf                                  1      0.0000       0.00000       A     2.42212e-01     8.67416e-02    ;  uncertainty sigma = 0.000033, epsilon = 0.000677
 h23bf                                  1      0.0000       0.00000       A     2.42212e-01     8.67416e-02    ;  uncertainty sigma = 0.000033, epsilon = 0.000677
 h24bf                                  1      0.0000       0.00000       A     2.42212e-01     8.67416e-02    ;  uncertainty sigma = 0.000033, epsilon = 0.000677
 n25bf                                  7      0.0000       0.00000       A     3.36518e-01     4.71691e-01    ;  uncertainty sigma = 0.000108, epsilon = 0.006012
 h26bf                                  1      0.0000       0.00000       A     1.10696e-01     4.11175e-02    ;  uncertainty sigma = 0.000127, epsilon = 0.001410
 h27bf                                  1      0.0000       0.00000       A     1.10696e-01     4.11175e-02    ;  uncertainty sigma = 0.000127, epsilon = 0.001410
 c28bf                                  6      0.0000       0.00000       A     3.31529e-01     4.13068e-01    ;  uncertainty sigma = 0.000013, epsilon = 0.000882
 h29bf                                  1      0.0000       0.00000       A     2.62554e-01     6.70781e-02    ;  uncertainty sigma = 0.000021, epsilon = 0.000919
 c30bf                                  6      0.0000       0.00000       A     3.31492e-01     4.13645e-01    ;  uncertainty sigma = 0.000016, epsilon = 0.001111
 c31bf                                  6      0.0000       0.00000       A     3.39808e-01     4.50287e-01    ;  uncertainty sigma = 0.000008, epsilon = 0.001092
 f32bf                                  9      0.0000       0.00000       A     3.03435e-01     3.47895e-01    ;  uncertainty sigma = 0.000010, epsilon = 0.001258
 f33bf                                  9      0.0000       0.00000       A     3.03435e-01     3.47895e-01    ;  uncertainty sigma = 0.000010, epsilon = 0.001258
 f34bf                                  9      0.0000       0.00000       A     3.03435e-01     3.47895e-01    ;  uncertainty sigma = 0.000010, epsilon = 0.001258
 c35bf                                  6      0.0000       0.00000       A     3.31515e-01     4.13090e-01    ;  uncertainty sigma = 0.000005, epsilon = 0.000976
 h36bf                                  1      0.0000       0.00000       A     2.53665e-01     6.70159e-02    ;  uncertainty sigma = 0.000019, epsilon = 0.000730
 n37bf                                  7      0.0000       0.00000       A     3.38413e-01     3.93525e-01    ;  uncertainty sigma = 0.000010, epsilon = 0.001115
 c38bf                                  6      0.0000       0.00000       A     3.31517e-01     4.13331e-01    ;  uncertainty sigma = 0.000005, epsilon = 0.000655
 h39bf                                  1      0.0000       0.00000       A     2.53644e-01     6.67556e-02    ;  uncertainty sigma = 0.000027, epsilon = 0.000598
 o40bf                                  8      0.0000       0.00000       A     3.04746e-01     6.12575e-01    ;  uncertainty sigma = 0.000054, epsilon = 0.002454
 c41bf                                  6      0.0000       0.00000       A     3.39769e-01     4.50351e-01    ;  uncertainty sigma = 0.000003, epsilon = 0.001331
 h42bf                                  1      0.0000       0.00000       A     2.60031e-01     8.68008e-02    ;  uncertainty sigma = 0.000006, epsilon = 0.000320
 h43bf                                  1      0.0000       0.00000       A     2.60031e-01     8.68008e-02    ;  uncertainty sigma = 0.000006, epsilon = 0.000320
 h44bf                                  1      0.0000       0.00000       A     2.60031e-01     8.68008e-02    ;  uncertainty sigma = 0.000006, epsilon = 0.000320
 c45bf                                  6      0.0000       0.00000       A     3.39769e-01     4.50351e-01    ;  uncertainty sigma = 0.000003, epsilon = 0.001331
 h46bf                                  1      0.0000       0.00000       A     2.60031e-01     8.68009e-02    ;  uncertainty sigma = 0.000006, epsilon = 0.000319
 h47bf                                  1      0.0000       0.00000       A     2.60031e-01     8.68009e-02    ;  uncertainty sigma = 0.000006, epsilon = 0.000319
 h48bf                                  1      0.0000       0.00000       A     2.60031e-01     8.68009e-02    ;  uncertainty sigma = 0.000006, epsilon = 0.000319

[ moleculetype ]
;name             nrexcl
 MOL                   3

[ atoms ]
;       nr            type      resi   res      atom      cgnr      charge          mass ; qtot
         1            c0bf         1   UNL        c0         1    -0.03496       12.0110 ; qtot   -0.035
         2            c1bf         1   UNL        c1         2    -0.06410       12.0110 ; qtot   -0.099
         3            h2bf         1   UNL        h2         3     0.13961        1.0080 ; qtot    0.041
         4            c3bf         1   UNL        c3         4    -0.14797       12.0110 ; qtot   -0.107
         5            h4bf         1   UNL        h4         5     0.15718        1.0080 ; qtot    0.050
         6            c5bf         1   UNL        c5         6     0.18249       12.0110 ; qtot    0.232
         7            c6bf         1   UNL        c6         7    -0.20488       12.0110 ; qtot    0.027
         8            c7bf         1   UNL        c7         8    -0.06176       12.0110 ; qtot   -0.034
         9            h8bf         1   UNL        h8         9     0.15023        1.0080 ; qtot    0.116
        10            o9bf         1   UNL        o9        10    -0.32527       15.9990 ; qtot   -0.209
        11           c10bf         1   UNL       c10        11     0.16563       12.0110 ; qtot   -0.044
        12           c11bf         1   UNL       c11        12    -0.09875       12.0110 ; qtot   -0.143
        13           h12bf         1   UNL       h12        13     0.09101        1.0080 ; qtot   -0.052
        14           h13bf         1   UNL       h13        14     0.09101        1.0080 ; qtot    0.039
        15           c14bf         1   UNL       c14        15     0.04015       12.0110 ; qtot    0.080
        16           c15bf         1   UNL       c15        16     0.70447       12.0110 ; qtot    0.784
        17           n16bf         1   UNL       n16        17    -0.41729       14.0070 ; qtot    0.367
        18           c17bf         1   UNL       c17        18     0.47248       12.0110 ; qtot    0.839
        19           n18bf         1   UNL       n18        19    -0.37461       14.0070 ; qtot    0.465
        20           h19bf         1   UNL       h19        20     0.35504        1.0080 ; qtot    0.820
        21           c20bf         1   UNL       c20        21    -0.15216       12.0110 ; qtot    0.668
        22           c21bf         1   UNL       c21        22     0.07530       12.0110 ; qtot    0.743
        23           h22bf         1   UNL       h22        23     0.09109        1.0080 ; qtot    0.834
        24           h23bf         1   UNL       h23        24     0.09109        1.0080 ; qtot    0.925
        25           h24bf         1   UNL       h24        25     0.09109        1.0080 ; qtot    1.016
        26           n25bf         1   UNL       n25        26    -0.48596       14.0070 ; qtot    0.530
        27           h26bf         1   UNL       h26        27     0.33929        1.0080 ; qtot    0.869
        28           h27bf         1   UNL       h27        28     0.33929        1.0080 ; qtot    1.209
        29           c28bf         1   UNL       c28        29    -0.03090       12.0110 ; qtot    1.178
        30           h29bf         1   UNL       h29        30     0.15979        1.0080 ; qtot    1.338
        31           c30bf         1   UNL       c30        31    -0.30918       12.0110 ; qtot    1.028
        32           c31bf         1   UNL       c31        32     0.71876       12.0110 ; qtot    1.747
        33           f32bf         1   UNL       f32        33    -0.22666       18.9980 ; qtot    1.521
        34           f33bf         1   UNL       f33        34    -0.22666       18.9980 ; qtot    1.294
        35           f34bf         1   UNL       f34        35    -0.22666       18.9980 ; qtot    1.067
        36           c35bf         1   UNL       c35        36     0.45241       12.0110 ; qtot    1.520
        37           h36bf         1   UNL       h36        37     0.03850        1.0080 ; qtot    1.558
        38           n37bf         1   UNL       n37        38    -0.65878       14.0070 ; qtot    0.899
        39           c38bf         1   UNL       c38        39     0.42891       12.0110 ; qtot    1.328
        40           h39bf         1   UNL       h39        40     0.02421        1.0080 ; qtot    1.352
        41           o40bf         1   UNL       o40        41    -0.45182       15.9990 ; qtot    0.901
        42           c41bf         1   UNL       c41        42    -0.10337       12.0110 ; qtot    0.797
        43           h42bf         1   UNL       h42        43     0.05101        1.0080 ; qtot    0.848
        44           h43bf         1   UNL       h43        44     0.05101        1.0080 ; qtot    0.899
        45           h44bf         1   UNL       h44        45     0.05101        1.0080 ; qtot    0.950
        46           c45bf         1   UNL       c45        46    -0.10337       12.0110 ; qtot    0.847
        47           h46bf         1   UNL       h46        47     0.05101        1.0080 ; qtot    0.898
        48           h47bf         1   UNL       h47        48     0.05101        1.0080 ; qtot    0.949
        49           h48bf         1   UNL       h48        49     0.05103        1.0080 ; qtot    1.000

[ bonds ]
;       ai        aj funct               r               k
         1         2     1        0.140395   346669.119922    ;  uncertainty r = 0.000041, k = 4.946533
         1         8     1        0.139625   339356.772949    ;  uncertainty r = 0.000095, k = 6.717835
         1        21     1        0.147535   271722.147363    ;  uncertainty r = 0.000097, k = 4.871977
         2         3     1        0.108758   334419.121777    ;  uncertainty r = 0.000028, k = 1.545779
         2         4     1        0.138691   376500.396387    ;  uncertainty r = 0.000073, k = 3.074405
         4         5     1        0.108788   336617.637061    ;  uncertainty r = 0.000017, k = 1.411956
         4         6     1        0.140086   362230.540576    ;  uncertainty r = 0.000052, k = 3.404713
         6         7     1        0.139987   328983.803418    ;  uncertainty r = 0.000163, k = 7.293710
         6        10     1        0.136368   303578.797510    ;  uncertainty r = 0.000194, k = 10.538323
         7         8     1        0.139598   346291.119629    ;  uncertainty r = 0.000122, k = 6.656862
         7        15     1        0.150678   205784.156250    ;  uncertainty r = 0.000110, k = 20.274102
         8         9     1        0.108768   335648.988965    ;  uncertainty r = 0.000063, k = 4.223167
        10        11     1        0.145422   203859.641382    ;  uncertainty r = 0.000221, k = 9.275535
        11        12     1        0.152936   192803.911694    ;  uncertainty r = 0.000262, k = 11.274630
        11        42     1        0.152325   205847.654272    ;  uncertainty r = 0.000037, k = 5.592264
        11        46     1        0.152325   205847.654272    ;  uncertainty r = 0.000037, k = 5.592249
        12        13     1        0.109477   309561.503809    ;  uncertainty r = 0.000048, k = 2.448476
        12        14     1        0.109477   309561.503809    ;  uncertainty r = 0.000048, k = 2.448476
        12        15     1        0.153041   191194.052319    ;  uncertainty r = 0.000126, k = 21.513824
        15        16     1        0.153598   171646.122900    ;  uncertainty r = 0.000173, k = 14.753170
        15        19     1        0.149698   232215.881641    ;  uncertainty r = 0.000407, k = 51.570456
        16        17     1        0.142413   302839.344971    ;  uncertainty r = 0.000236, k = 75.996174
        16        41     1        0.120112   608584.455469    ;  uncertainty r = 0.000161, k = 10.569144
        17        18     1        0.135836   286250.770703    ;  uncertainty r = 0.000260, k = 52.766102
        17        22     1        0.146741   261825.572607    ;  uncertainty r = 0.000154, k = 17.700649
        18        19     1        0.133610   531287.609180    ;  uncertainty r = 0.000191, k = 37.526813
        18        26     1        0.133101   320485.564160    ;  uncertainty r = 0.000146, k = 40.823703
        19        20     1        0.101578   423262.955127    ;  uncertainty r = 0.000083, k = 11.557068
        21        29     1        0.139630   354213.394922    ;  uncertainty r = 0.000059, k = 5.884085
        21        39     1        0.140347   328755.603809    ;  uncertainty r = 0.000045, k = 5.417151
        22        23     1        0.109172   309495.286084    ;  uncertainty r = 0.000053, k = 3.597993
        22        24     1        0.109172   309495.286084    ;  uncertainty r = 0.000053, k = 3.597993
        22        25     1        0.109172   309495.286084    ;  uncertainty r = 0.000053, k = 3.597993
        26        27     1        0.101405   421785.735498    ;  uncertainty r = 0.000064, k = 13.590763
        26        28     1        0.101405   421785.735498    ;  uncertainty r = 0.000064, k = 13.590763
        29        30     1        0.108656   331507.355029    ;  uncertainty r = 0.000037, k = 2.012574
        29        31     1        0.138463   356485.635840    ;  uncertainty r = 0.000078, k = 2.222613
        31        32     1        0.150079   217265.947070    ;  uncertainty r = 0.000108, k = 5.773561
        31        36     1        0.139674   358756.804199    ;  uncertainty r = 0.000099, k = 9.879050
        32        33     1        0.135296   287177.001660    ;  uncertainty r = 0.000033, k = 3.792404
        32        34     1        0.135296   287177.001660    ;  uncertainty r = 0.000033, k = 3.792404
        32        35     1        0.135296   287177.001660    ;  uncertainty r = 0.000033, k = 3.792404
        36        37     1        0.108889   335480.929248    ;  uncertainty r = 0.000019, k = 3.055698
        36        38     1        0.133574   393576.703906    ;  uncertainty r = 0.000066, k = 3.122419
        38        39     1        0.133458   388438.637500    ;  uncertainty r = 0.000054, k = 4.922683
        39        40     1        0.109038   335218.688672    ;  uncertainty r = 0.000023, k = 2.535682
        42        43     1        0.109545   310467.177393    ;  uncertainty r = 0.000018, k = 1.787238
        42        44     1        0.109545   310467.177393    ;  uncertainty r = 0.000018, k = 1.787238
        42        45     1        0.109545   310467.177393    ;  uncertainty r = 0.000018, k = 1.787238
        46        47     1        0.109545   310467.202930    ;  uncertainty r = 0.000018, k = 1.787228
        46        48     1        0.109545   310467.202930    ;  uncertainty r = 0.000018, k = 1.787228
        46        49     1        0.109545   310467.177393    ;  uncertainty r = 0.000018, k = 1.787223

[ angles ]
;       ai        aj        ak funct           theta             cth
         1         2         3     1      118.893616      278.817608    ;  uncertainty theta = 0.000947, k = 0.098722
         1         2         4     1      120.561302      527.978140    ;  uncertainty theta = 0.002734, k = 0.057592
         1         8         7     1      123.246628      506.563391    ;  uncertainty theta = 0.005120, k = 0.228391
         1         8         9     1      118.865074      283.366533    ;  uncertainty theta = 0.002520, k = 0.038971
         1        21        29     1      121.392601      405.165425    ;  uncertainty theta = 0.003504, k = 0.174682
         1        21        39     1      120.899818      397.382576    ;  uncertainty theta = 0.003116, k = 0.107346
         2         1         8     1      119.314438      425.059472    ;  uncertainty theta = 0.003602, k = 0.149417
         2         1        21     1      120.885788      415.365808    ;  uncertainty theta = 0.002001, k = 0.167227
         2         4         5     1      121.376205      280.339811    ;  uncertainty theta = 0.001127, k = 0.032565
         2         4         6     1      119.583458      505.555281    ;  uncertainty theta = 0.002684, k = 0.150778
         3         2         4     1      119.330368      289.507601    ;  uncertainty theta = 0.001545, k = 0.066383
         4         6         7     1      120.988113      370.564749    ;  uncertainty theta = 0.002804, k = 0.132341
         4         6        10     1      118.414932      539.304551    ;  uncertainty theta = 0.003186, k = 0.119405
         5         4         6     1      120.029160      275.838544    ;  uncertainty theta = 0.003388, k = 0.140058
         6         7         8     1      121.647110      436.923693    ;  uncertainty theta = 0.004540, k = 0.113557
         6         7        15     1      120.067566      415.396868    ;  uncertainty theta = 0.008782, k = 0.219695
         6        10        11     1      114.537880      453.333553    ;  uncertainty theta = 0.006687, k = 0.093699
         7         6        10     1      123.896896      494.205441    ;  uncertainty theta = 0.004024, k = 0.262919
         7         8         9     1      117.529808      269.727035    ;  uncertainty theta = 0.003461, k = 0.147037
         7        15        12     1      110.372864      539.933530    ;  uncertainty theta = 0.001408, k = 0.155688
         7        15        16     1      108.946983      466.381260    ;  uncertainty theta = 0.003845, k = 0.382761
         7        15        19     1      110.459412      616.078039    ;  uncertainty theta = 0.004076, k = 0.312915
         8         1        21     1      120.027176      411.189565    ;  uncertainty theta = 0.002533, k = 0.181839
         8         7        15     1      118.202316      406.870474    ;  uncertainty theta = 0.004021, k = 0.173231
        10        11        12     1      109.104774      651.855785    ;  uncertainty theta = 0.004859, k = 0.084503
        10        11        42     1      107.605125      619.338426    ;  uncertainty theta = 0.001081, k = 0.064685
        10        11        46     1      107.605125      619.338362    ;  uncertainty theta = 0.001081, k = 0.064685
        11        12        13     1      107.678444      386.201185    ;  uncertainty theta = 0.003165, k = 0.032000
        11        12        14     1      107.678444      386.201185    ;  uncertainty theta = 0.003165, k = 0.032000
        11        12        15     1      109.859573      530.089357    ;  uncertainty theta = 0.006963, k = 0.198376
        11        42        43     1      107.221069      387.594393    ;  uncertainty theta = 0.001065, k = 0.069193
        11        42        44     1      107.221069      387.594393    ;  uncertainty theta = 0.001065, k = 0.069193
        11        42        45     1      107.221069      387.594393    ;  uncertainty theta = 0.001065, k = 0.069193
        11        46        47     1      107.221069      387.594393    ;  uncertainty theta = 0.001065, k = 0.069193
        11        46        48     1      107.221069      387.594393    ;  uncertainty theta = 0.001065, k = 0.069193
        11        46        49     1      107.221069      387.594393    ;  uncertainty theta = 0.001065, k = 0.069193
        12        11        42     1      109.374954      548.046988    ;  uncertainty theta = 0.004356, k = 0.115347
        12        11        46     1      109.374954      548.046988    ;  uncertainty theta = 0.004356, k = 0.115347
        12        15        16     1      107.815041      449.614456    ;  uncertainty theta = 0.007030, k = 0.162707
        12        15        19     1      109.812546      627.822301    ;  uncertainty theta = 0.007991, k = 0.271564
        13        12        14     1      106.986496      321.844700    ;  uncertainty theta = 0.004263, k = 0.066652
        13        12        15     1      106.651634      397.354709    ;  uncertainty theta = 0.003140, k = 0.080198
        14        12        15     1      106.651634      397.354709    ;  uncertainty theta = 0.003140, k = 0.080198
        15        16        17     1      110.177444      536.173382    ;  uncertainty theta = 0.011689, k = 0.712083
        15        16        41     1      125.836937      424.636737    ;  uncertainty theta = 0.006696, k = 0.210364
        15        19        18     1      111.019447      602.235841    ;  uncertainty theta = 0.016031, k = 0.385576
        15        19        20     1      118.127907      280.649416    ;  uncertainty theta = 0.015278, k = 0.121870
        16        15        19     1      103.837784      815.585366    ;  uncertainty theta = 0.012174, k = 0.852513
        16        17        18     1      110.293701      728.609291    ;  uncertainty theta = 0.010426, k = 0.320486
        16        17        22     1      119.398109      397.513773    ;  uncertainty theta = 0.006832, k = 0.281808
        17        16        41     1      125.307961      629.051912    ;  uncertainty theta = 0.008036, k = 0.165829
        17        18        19     1      113.250023      720.106327    ;  uncertainty theta = 0.006756, k = 0.305315
        17        18        26     1      125.598953      549.524885    ;  uncertainty theta = 0.008546, k = 0.324469
        17        22        23     1      107.360855      470.851946    ;  uncertainty theta = 0.002522, k = 0.203983
        17        22        24     1      107.360855      470.851946    ;  uncertainty theta = 0.002522, k = 0.203983
        17        22        25     1      107.360855      470.851946    ;  uncertainty theta = 0.002522, k = 0.203983
        18        17        22     1      118.646042      371.786540    ;  uncertainty theta = 0.007230, k = 0.373049
        18        19        20     1      119.824707      355.581520    ;  uncertainty theta = 0.006083, k = 0.153034
        18        26        27     1      114.903091      371.138312    ;  uncertainty theta = 0.001582, k = 0.210952
        18        26        28     1      114.903091      371.138312    ;  uncertainty theta = 0.001582, k = 0.210952
        19        18        26     1      128.730377      637.313550    ;  uncertainty theta = 0.008927, k = 0.256741
        21        29        30     1      119.646652      271.911703    ;  uncertainty theta = 0.002319, k = 0.065994
        21        29        31     1      119.860329      530.938657    ;  uncertainty theta = 0.002704, k = 0.070431
        21        39        38     1      124.517517      715.907005    ;  uncertainty theta = 0.002000, k = 0.075847
        21        39        40     1      118.927818      265.030713    ;  uncertainty theta = 0.002825, k = 0.084253
        23        22        24     1      107.634499      325.466948    ;  uncertainty theta = 0.003233, k = 0.098676
        23        22        25     1      107.634499      325.466948    ;  uncertainty theta = 0.003233, k = 0.098676
        24        22        25     1      107.634499      325.466948    ;  uncertainty theta = 0.003233, k = 0.098676
        27        26        28     1      112.323524      263.743259    ;  uncertainty theta = 0.015210, k = 0.362876
        29        21        39     1      118.106277      393.624854    ;  uncertainty theta = 0.003205, k = 0.110531
        29        31        32     1      116.961426      355.246473    ;  uncertainty theta = 0.006135, k = 0.141830
        29        31        36     1      120.981972      417.346020    ;  uncertainty theta = 0.004144, k = 0.263115
        30        29        31     1      118.211937      274.405242    ;  uncertainty theta = 0.003340, k = 0.121506
        31        32        33     1      112.657005      660.665130    ;  uncertainty theta = 0.002729, k = 0.084294
        31        32        34     1      112.657005      660.665130    ;  uncertainty theta = 0.002729, k = 0.084294
        31        32        35     1      112.657005      660.665130    ;  uncertainty theta = 0.002729, k = 0.084294
        31        36        37     1      118.051880      261.272752    ;  uncertainty theta = 0.003453, k = 0.092528
        31        36        38     1      123.472694      710.005890    ;  uncertainty theta = 0.002301, k = 0.123412
        32        31        36     1      119.920616      361.970841    ;  uncertainty theta = 0.005385, k = 0.112200
        33        32        34     1      107.786766      784.224582    ;  uncertainty theta = 0.001785, k = 0.033814
        33        32        35     1      107.786766      784.224582    ;  uncertainty theta = 0.001785, k = 0.033814
        34        32        35     1      107.786766      784.224582    ;  uncertainty theta = 0.001785, k = 0.033814
        36        38        39     1      117.043106      394.603819    ;  uncertainty theta = 0.003598, k = 0.186851
        37        36        38     1      117.398476      334.674001    ;  uncertainty theta = 0.002504, k = 0.102568
        38        39        40     1      116.251328      342.110950    ;  uncertainty theta = 0.001611, k = 0.069531
        42        11        46     1      110.900230      580.347218    ;  uncertainty theta = 0.002949, k = 0.067890
        43        42        44     1      106.043396      316.610518    ;  uncertainty theta = 0.000878, k = 0.018253
        43        42        45     1      106.043396      316.610518    ;  uncertainty theta = 0.000878, k = 0.018253
        44        42        45     1      106.043396      316.610518    ;  uncertainty theta = 0.000878, k = 0.018253
        47        46        48     1      106.043396      316.610518    ;  uncertainty theta = 0.000878, k = 0.018252
        47        46        49     1      106.043396      316.610518    ;  uncertainty theta = 0.000878, k = 0.018252
        48        46        49     1      106.043396      316.610518    ;  uncertainty theta = 0.000878, k = 0.018252

[ dihedrals ] ; propers for gromacs 4.5 or higher, use funct 9
;       ai        aj        ak        al funct           phase               k        pn
         1         2         4         5     9        0.000000        0.072566         1    ;  uncertainty k = 0.050249
         1         2         4         5     9      180.000000        8.388241         2    ;  uncertainty k = 0.411323
         1         2         4         5     9        0.000000        1.372142         3    ;  uncertainty k = 0.281103
         1         2         4         5     9      180.000000        1.900455         4    ;  uncertainty k = 0.233720
         1         2         4         6     9        0.000000       -0.079134         1    ;  uncertainty k = 0.399653
         1         2         4         6     9      180.000000       14.131049         2    ;  uncertainty k = 0.252331
         1         2         4         6     9        0.000000       -0.316275         3    ;  uncertainty k = 0.428865
         1         2         4         6     9      180.000000        0.932614         4    ;  uncertainty k = 0.236789
         1         8         7         6     9        0.000000       -0.292390         1    ;  uncertainty k = 0.208832
         1         8         7         6     9      180.000000       11.004860         2    ;  uncertainty k = 0.491268
         1         8         7         6     9        0.000000       -0.058657         3    ;  uncertainty k = 0.115215
         1         8         7         6     9      180.000000        1.141226         4    ;  uncertainty k = 0.351971
         1         8         7        15     9        0.000000        0.378048         1    ;  uncertainty k = 0.227701
         1         8         7        15     9      180.000000        8.900037         2    ;  uncertainty k = 0.417874
         1         8         7        15     9        0.000000        1.657052         3    ;  uncertainty k = 0.175922
         1         8         7        15     9      180.000000        1.928943         4    ;  uncertainty k = 0.380149
         1        21        29        30     9        0.000000       -0.098489         1    ;  uncertainty k = 0.358992
         1        21        29        30     9      180.000000        7.274950         2    ;  uncertainty k = 0.232168
         1        21        29        30     9        0.000000        0.893728         3    ;  uncertainty k = 0.211888
         1        21        29        30     9      180.000000        1.240828         4    ;  uncertainty k = 0.152677
         1        21        29        31     9        0.000000        0.275599         1    ;  uncertainty k = 0.224031
         1        21        29        31     9      180.000000        8.716871         2    ;  uncertainty k = 0.538860
         1        21        29        31     9        0.000000        1.315521         3    ;  uncertainty k = 0.349300
         1        21        29        31     9      180.000000        1.675164         4    ;  uncertainty k = 0.189435
         1        21        39        38     9        0.000000        0.165982         1    ;  uncertainty k = 0.238675
         1        21        39        38     9      180.000000        9.602306         2    ;  uncertainty k = 0.293778
         1        21        39        38     9        0.000000        1.043083         3    ;  uncertainty k = 0.254603
         1        21        39        38     9      180.000000        1.708613         4    ;  uncertainty k = 0.220828
         1        21        39        40     9        0.000000       -0.482422         1    ;  uncertainty k = 0.829173
         1        21        39        40     9      180.000000        6.308192         2    ;  uncertainty k = 0.829416
         1        21        39        40     9        0.000000        0.822193         3    ;  uncertainty k = 0.201171
         1        21        39        40     9      180.000000        1.107029         4    ;  uncertainty k = 0.215446
         2         1         8         7     9        0.000000        0.154563         1    ;  uncertainty k = 0.475129
         2         1         8         7     9      180.000000       10.559118         2    ;  uncertainty k = 0.365235
         2         1         8         7     9        0.000000       -0.197018         3    ;  uncertainty k = 0.365428
         2         1         8         7     9      180.000000        1.140587         4    ;  uncertainty k = 0.399559
         2         1         8         9     9        0.000000        0.109083         1    ;  uncertainty k = 0.306440
         2         1         8         9     9      180.000000        7.357224         2    ;  uncertainty k = 0.638483
         2         1         8         9     9        0.000000        1.351816         3    ;  uncertainty k = 0.205490
         2         1         8         9     9      180.000000        1.665187         4    ;  uncertainty k = 0.255577
         2         1        21        29     9        0.000000       -0.424581         1    ;  uncertainty k = 0.477357
         2         1        21        29     9      180.000000        3.902662         2    ;  uncertainty k = 0.200232
         2         1        21        29     9        0.000000        0.362483         3    ;  uncertainty k = 0.108215
         2         1        21        29     9      180.000000       -0.053285         4    ;  uncertainty k = 0.017986
         2         1        21        39     9        0.000000       -0.338871         1    ;  uncertainty k = 0.776600
         2         1        21        39     9      180.000000        3.434493         2    ;  uncertainty k = 0.098009
         2         1        21        39     9        0.000000        0.388039         3    ;  uncertainty k = 0.141702
         2         1        21        39     9      180.000000       -0.144908         4    ;  uncertainty k = 0.030387
         2         4         6         7     9        0.000000        0.211431         1    ;  uncertainty k = 0.423245
         2         4         6         7     9      180.000000        7.763002         2    ;  uncertainty k = 0.555229
         2         4         6         7     9        0.000000        0.203863         3    ;  uncertainty k = 0.544956
         2         4         6         7     9      180.000000        1.300091         4    ;  uncertainty k = 0.239010
         2         4         6        10     9        0.000000        0.361329         1    ;  uncertainty k = 0.218715
         2         4         6        10     9      180.000000       11.444655         2    ;  uncertainty k = 0.286512
         2         4         6        10     9        0.000000        1.318811         3    ;  uncertainty k = 0.218660
         2         4         6        10     9      180.000000        1.540108         4    ;  uncertainty k = 0.135774
         3         2         1         8     9        0.000000        0.143111         1    ;  uncertainty k = 0.209883
         3         2         1         8     9      180.000000        6.723248         2    ;  uncertainty k = 0.481430
         3         2         1         8     9        0.000000        1.338275         3    ;  uncertainty k = 0.259129
         3         2         1         8     9      180.000000        1.547253         4    ;  uncertainty k = 0.264678
         3         2         1        21     9        0.000000       -0.299156         1    ;  uncertainty k = 0.375302
         3         2         1        21     9      180.000000        7.130876         2    ;  uncertainty k = 0.382207
         3         2         1        21     9        0.000000        0.876897         3    ;  uncertainty k = 0.135037
         3         2         1        21     9      180.000000        1.170046         4    ;  uncertainty k = 0.210190
         3         2         4         5     9        0.000000        0.043097         1    ;  uncertainty k = 0.388506
         3         2         4         5     9      180.000000        8.020316         2    ;  uncertainty k = 0.286960
         3         2         4         5     9        0.000000       -0.395294         3    ;  uncertainty k = 0.352627
         3         2         4         5     9      180.000000        0.202059         4    ;  uncertainty k = 0.135492
         3         2         4         6     9        0.000000        0.298667         1    ;  uncertainty k = 0.254599
         3         2         4         6     9      180.000000        8.799836         2    ;  uncertainty k = 0.420559
         3         2         4         6     9        0.000000        1.331757         3    ;  uncertainty k = 0.305828
         3         2         4         6     9      180.000000        1.726710         4    ;  uncertainty k = 0.213269
         4         2         1         8     9        0.000000        0.029585         1    ;  uncertainty k = 0.260625
         4         2         1         8     9      180.000000       10.598664         2    ;  uncertainty k = 0.289215
         4         2         1         8     9        0.000000       -0.449044         3    ;  uncertainty k = 0.264126
         4         2         1         8     9      180.000000        1.008210         4    ;  uncertainty k = 0.158366
         4         2         1        21     9        0.000000       -0.070137         1    ;  uncertainty k = 0.237634
         4         2         1        21     9      180.000000        8.210701         2    ;  uncertainty k = 0.487657
         4         2         1        21     9        0.000000        1.073664         3    ;  uncertainty k = 0.382640
         4         2         1        21     9      180.000000        1.807206         4    ;  uncertainty k = 0.159236
         4         6         7         8     9        0.000000       -0.032783         1    ;  uncertainty k = 0.188299
         4         6         7         8     9      180.000000        6.927902         2    ;  uncertainty k = 0.470102
         4         6         7         8     9        0.000000        0.361195         3    ;  uncertainty k = 0.286900
         4         6         7         8     9      180.000000        1.355400         4    ;  uncertainty k = 0.250869
         4         6         7        15     9        0.000000        0.348936         1    ;  uncertainty k = 0.173791
         4         6         7        15     9      180.000000        5.007785         2    ;  uncertainty k = 0.411251
         4         6         7        15     9        0.000000        1.468368         3    ;  uncertainty k = 0.261774
         4         6         7        15     9      180.000000        1.669236         4    ;  uncertainty k = 0.209866
         4         6        10        11     9        0.000000       -0.006126         1    ;  uncertainty k = 0.860183
         4         6        10        11     9      180.000000        1.463693         2    ;  uncertainty k = 0.468672
         4         6        10        11     9        0.000000        0.942766         3    ;  uncertainty k = 0.141382
         4         6        10        11     9      180.000000        0.269400         4    ;  uncertainty k = 0.169428
         5         4         6         7     9        0.000000        0.319225         1    ;  uncertainty k = 0.558349
         5         4         6         7     9      180.000000        5.772400         2    ;  uncertainty k = 0.428881
         5         4         6         7     9        0.000000        1.337220         3    ;  uncertainty k = 0.195635
         5         4         6         7     9      180.000000        1.401976         4    ;  uncertainty k = 0.132735
         5         4         6        10     9        0.000000       -0.143362         1    ;  uncertainty k = 0.595170
         5         4         6        10     9      180.000000        8.971333         2    ;  uncertainty k = 0.422660
         5         4         6        10     9        0.000000        0.767158         3    ;  uncertainty k = 0.278987
         5         4         6        10     9      180.000000        1.249859         4    ;  uncertainty k = 0.280971
         6         7         8         9     9        0.000000        0.259477         1    ;  uncertainty k = 0.448671
         6         7         8         9     9      180.000000        7.894167         2    ;  uncertainty k = 0.719063
         6         7         8         9     9        0.000000        1.268542         3    ;  uncertainty k = 0.216024
         6         7         8         9     9      180.000000        1.655629         4    ;  uncertainty k = 0.157247
         6         7        15        12     9        0.000000       -0.553827         1    ;  uncertainty k = 1.466850
         6         7        15        12     9      180.000000        0.634513         2    ;  uncertainty k = 0.585096
         6         7        15        12     9        0.000000        0.297861         3    ;  uncertainty k = 0.330860
         6         7        15        12     9      180.000000        0.274107         4    ;  uncertainty k = 0.208342
         6         7        15        16     9        0.000000        2.102712         1    ;  uncertainty k = 2.528118
         6         7        15        16     9      180.000000        0.546699         2    ;  uncertainty k = 1.018065
         6         7        15        16     9        0.000000        0.457522         3    ;  uncertainty k = 0.289759
         6         7        15        16     9      180.000000        0.336866         4    ;  uncertainty k = 0.183129
         6         7        15        19     9        0.000000       -1.847814         1    ;  uncertainty k = 1.697255
         6         7        15        19     9      180.000000        1.430867         2    ;  uncertainty k = 0.383928
         6         7        15        19     9        0.000000        0.601224         3    ;  uncertainty k = 0.476577
         6         7        15        19     9      180.000000        0.025936         4    ;  uncertainty k = 0.174308
         6        10        11        12     9        0.000000        4.367103         1    ;  uncertainty k = 0.568224
         6        10        11        12     9      180.000000       -1.721485         2    ;  uncertainty k = 1.273232
         6        10        11        12     9        0.000000       -0.456864         3    ;  uncertainty k = 0.472175
         6        10        11        12     9      180.000000        0.328459         4    ;  uncertainty k = 0.236646
         6        10        11        42     9        0.000000       -1.366435         1    ;  uncertainty k = 0.443902
         6        10        11        42     9      180.000000        1.117988         2    ;  uncertainty k = 0.670204
         6        10        11        42     9        0.000000        0.420512         3    ;  uncertainty k = 0.232671
         6        10        11        42     9      180.000000        0.169724         4    ;  uncertainty k = 0.171412
         6        10        11        46     9        0.000000       -1.366436         1    ;  uncertainty k = 0.443902
         6        10        11        46     9      180.000000        1.117988         2    ;  uncertainty k = 0.670204
         6        10        11        46     9        0.000000        0.420512         3    ;  uncertainty k = 0.232671
         6        10        11        46     9      180.000000        0.169724         4    ;  uncertainty k = 0.171412
         7         6        10        11     9        0.000000        4.306087         1    ;  uncertainty k = 1.768452
         7         6        10        11     9      180.000000       -1.360043         2    ;  uncertainty k = 1.430514
         7         6        10        11     9        0.000000       -0.393904         3    ;  uncertainty k = 0.710259
         7         6        10        11     9      180.000000        0.655626         4    ;  uncertainty k = 0.252123
         7         8         1        21     9        0.000000        0.397287         1    ;  uncertainty k = 0.548901
         7         8         1        21     9      180.000000        8.897194         2    ;  uncertainty k = 0.392356
         7         8         1        21     9        0.000000        1.297984         3    ;  uncertainty k = 0.298010
         7         8         1        21     9      180.000000        1.656060         4    ;  uncertainty k = 0.145255
         7        15        12        11     9        0.000000        1.962873         1    ;  uncertainty k = 1.227301
         7        15        12        11     9      180.000000       -1.078195         2    ;  uncertainty k = 0.502447
         7        15        12        11     9        0.000000        0.369332         3    ;  uncertainty k = 0.176636
         7        15        12        11     9      180.000000       -0.278406         4    ;  uncertainty k = 0.249392
         7        15        12        13     9        0.000000       -0.179115         1    ;  uncertainty k = 0.140621
         7        15        12        13     9      180.000000        0.089626         2    ;  uncertainty k = 0.458906
         7        15        12        13     9        0.000000        0.456477         3    ;  uncertainty k = 0.237033
         7        15        12        13     9      180.000000       -0.095026         4    ;  uncertainty k = 0.141404
         7        15        12        14     9        0.000000       -0.179115         1    ;  uncertainty k = 0.140621
         7        15        12        14     9      180.000000        0.089626         2    ;  uncertainty k = 0.458906
         7        15        12        14     9        0.000000        0.456477         3    ;  uncertainty k = 0.237033
         7        15        12        14     9      180.000000       -0.095026         4    ;  uncertainty k = 0.141404
         7        15        16        17     9        0.000000       -2.280413         1    ;  uncertainty k = 2.717070
         7        15        16        17     9      180.000000        2.456409         2    ;  uncertainty k = 1.222702
         7        15        16        17     9        0.000000        1.453247         3    ;  uncertainty k = 0.188385
         7        15        16        17     9      180.000000        0.681716         4    ;  uncertainty k = 0.441731
         7        15        16        41     9        0.000000       -0.746002         1    ;  uncertainty k = 2.339485
         7        15        16        41     9      180.000000        3.144071         2    ;  uncertainty k = 0.500306
         7        15        16        41     9        0.000000        0.221997         3    ;  uncertainty k = 0.280085
         7        15        16        41     9      180.000000        0.150865         4    ;  uncertainty k = 0.276471
         7        15        19        18     9        0.000000        0.863487         1    ;  uncertainty k = 1.247542
         7        15        19        18     9      180.000000        0.544771         2    ;  uncertainty k = 0.542404
         7        15        19        18     9        0.000000        0.864493         3    ;  uncertainty k = 0.370882
         7        15        19        18     9      180.000000        0.387103         4    ;  uncertainty k = 0.143944
         7        15        19        20     9        0.000000        0.953250         1    ;  uncertainty k = 2.750545
         7        15        19        20     9      180.000000       -1.060847         2    ;  uncertainty k = 1.247199
         7        15        19        20     9        0.000000        0.527755         3    ;  uncertainty k = 0.498974
         7        15        19        20     9      180.000000       -0.043717         4    ;  uncertainty k = 0.110691
         8         1        21        29     9        0.000000       -0.444893         1    ;  uncertainty k = 0.334040
         8         1        21        29     9      180.000000        4.076659         2    ;  uncertainty k = 0.390211
         8         1        21        29     9        0.000000        0.331854         3    ;  uncertainty k = 0.203898
         8         1        21        29     9      180.000000        0.012085         4    ;  uncertainty k = 0.100400
         8         1        21        39     9        0.000000       -0.571733         1    ;  uncertainty k = 0.625532
         8         1        21        39     9      180.000000        3.561907         2    ;  uncertainty k = 0.138946
         8         1        21        39     9        0.000000        0.391874         3    ;  uncertainty k = 0.224781
         8         1        21        39     9      180.000000       -0.093127         4    ;  uncertainty k = 0.082024
         8         7         6        10     9        0.000000        0.511013         1    ;  uncertainty k = 0.326398
         8         7         6        10     9      180.000000        8.132895         2    ;  uncertainty k = 0.230001
         8         7         6        10     9        0.000000        1.512052         3    ;  uncertainty k = 0.280650
         8         7         6        10     9      180.000000        1.559241         4    ;  uncertainty k = 0.196062
         8         7        15        12     9        0.000000       -0.670231         1    ;  uncertainty k = 1.143317
         8         7        15        12     9      180.000000        0.995758         2    ;  uncertainty k = 0.405868
         8         7        15        12     9        0.000000       -0.287435         3    ;  uncertainty k = 0.380723
         8         7        15        12     9      180.000000        0.164078         4    ;  uncertainty k = 0.187370
         8         7        15        16     9        0.000000        0.883988         1    ;  uncertainty k = 1.976202
         8         7        15        16     9      180.000000        0.164829         2    ;  uncertainty k = 0.594298
         8         7        15        16     9        0.000000        0.125947         3    ;  uncertainty k = 0.272429
         8         7        15        16     9      180.000000        0.319895         4    ;  uncertainty k = 0.132197
         8         7        15        19     9        0.000000       -0.399884         1    ;  uncertainty k = 0.853357
         8         7        15        19     9      180.000000        1.968708         2    ;  uncertainty k = 0.392593
         8         7        15        19     9        0.000000       -0.052514         3    ;  uncertainty k = 0.364597
         8         7        15        19     9      180.000000        0.089645         4    ;  uncertainty k = 0.253695
         9         8         1        21     9        0.000000       -0.176840         1    ;  uncertainty k = 0.225766
         9         8         1        21     9      180.000000        7.428106         2    ;  uncertainty k = 0.340591
         9         8         1        21     9        0.000000        0.885589         3    ;  uncertainty k = 0.152637
         9         8         1        21     9      180.000000        1.313542         4    ;  uncertainty k = 0.155714
         9         8         7        15     9        0.000000       -0.370239         1    ;  uncertainty k = 0.433008
         9         8         7        15     9      180.000000        6.786117         2    ;  uncertainty k = 0.310123
         9         8         7        15     9        0.000000        0.969576         3    ;  uncertainty k = 0.299802
         9         8         7        15     9      180.000000        1.272312         4    ;  uncertainty k = 0.231144
        10         6         7        15     9        0.000000        0.498340         1    ;  uncertainty k = 0.988076
        10         6         7        15     9      180.000000        5.670085         2    ;  uncertainty k = 0.712561
        10         6         7        15     9        0.000000        1.748936         3    ;  uncertainty k = 0.456836
        10         6         7        15     9      180.000000        1.062497         4    ;  uncertainty k = 0.416589
        10        11        12        13     9        0.000000       -1.286357         1    ;  uncertainty k = 0.418983
        10        11        12        13     9      180.000000       -0.843337         2    ;  uncertainty k = 0.564487
        10        11        12        13     9        0.000000        0.398057         3    ;  uncertainty k = 0.233267
        10        11        12        13     9      180.000000       -0.189590         4    ;  uncertainty k = 0.165011
        10        11        12        14     9        0.000000       -1.286357         1    ;  uncertainty k = 0.418983
        10        11        12        14     9      180.000000       -0.843337         2    ;  uncertainty k = 0.564487
        10        11        12        14     9        0.000000        0.398057         3    ;  uncertainty k = 0.233267
        10        11        12        14     9      180.000000       -0.189590         4    ;  uncertainty k = 0.165011
        10        11        12        15     9        0.000000        7.476956         1    ;  uncertainty k = 0.712371
        10        11        12        15     9      180.000000       -4.264125         2    ;  uncertainty k = 1.996418
        10        11        12        15     9        0.000000       -0.268866         3    ;  uncertainty k = 0.560593
        10        11        12        15     9      180.000000       -0.018620         4    ;  uncertainty k = 0.403704
        10        11        42        43     9        0.000000       -0.556686         1    ;  uncertainty k = 0.641512
        10        11        42        43     9      180.000000       -2.127824         2    ;  uncertainty k = 0.599046
        10        11        42        43     9        0.000000        0.863808         3    ;  uncertainty k = 0.110663
        10        11        42        43     9      180.000000       -0.195070         4    ;  uncertainty k = 0.150407
        10        11        42        44     9        0.000000       -0.556686         1    ;  uncertainty k = 0.641512
        10        11        42        44     9      180.000000       -2.127824         2    ;  uncertainty k = 0.599046
        10        11        42        44     9        0.000000        0.863808         3    ;  uncertainty k = 0.110663
        10        11        42        44     9      180.000000       -0.195070         4    ;  uncertainty k = 0.150407
        10        11        42        45     9        0.000000       -0.556686         1    ;  uncertainty k = 0.641512
        10        11        42        45     9      180.000000       -2.127824         2    ;  uncertainty k = 0.599046
        10        11        42        45     9        0.000000        0.863808         3    ;  uncertainty k = 0.110663
        10        11        42        45     9      180.000000       -0.195070         4    ;  uncertainty k = 0.150407
        10        11        46        47     9        0.000000       -0.556686         1    ;  uncertainty k = 0.641512
        10        11        46        47     9      180.000000       -2.127823         2    ;  uncertainty k = 0.599045
        10        11        46        47     9        0.000000        0.863808         3    ;  uncertainty k = 0.110663
        10        11        46        47     9      180.000000       -0.195070         4    ;  uncertainty k = 0.150407
        10        11        46        48     9        0.000000       -0.556686         1    ;  uncertainty k = 0.641512
        10        11        46        48     9      180.000000       -2.127823         2    ;  uncertainty k = 0.599045
        10        11        46        48     9        0.000000        0.863808         3    ;  uncertainty k = 0.110663
        10        11        46        48     9      180.000000       -0.195070         4    ;  uncertainty k = 0.150407
        10        11        46        49     9        0.000000       -0.556687         1    ;  uncertainty k = 0.641512
        10        11        46        49     9      180.000000       -2.127823         2    ;  uncertainty k = 0.599045
        10        11        46        49     9        0.000000        0.863808         3    ;  uncertainty k = 0.110663
        10        11        46        49     9      180.000000       -0.195070         4    ;  uncertainty k = 0.150407
        11        12        15        16     9        0.000000       -1.228978         1    ;  uncertainty k = 1.347492
        11        12        15        16     9      180.000000       -0.515847         2    ;  uncertainty k = 0.500825
        11        12        15        16     9        0.000000        0.433215         3    ;  uncertainty k = 0.247206
        11        12        15        16     9      180.000000       -0.080465         4    ;  uncertainty k = 0.226810
        11        12        15        19     9        0.000000       -2.978697         1    ;  uncertainty k = 1.009148
        11        12        15        19     9      180.000000       -1.349812         2    ;  uncertainty k = 1.012802
        11        12        15        19     9        0.000000        1.198772         3    ;  uncertainty k = 0.505782
        11        12        15        19     9      180.000000        0.002053         4    ;  uncertainty k = 0.225805
        12        11        42        43     9        0.000000       -0.810618         1    ;  uncertainty k = 0.476463
        12        11        42        43     9      180.000000       -0.740442         2    ;  uncertainty k = 0.208398
        12        11        42        43     9        0.000000        0.585176         3    ;  uncertainty k = 0.093112
        12        11        42        43     9      180.000000       -0.179618         4    ;  uncertainty k = 0.029902
        12        11        42        44     9        0.000000       -0.810618         1    ;  uncertainty k = 0.476463
        12        11        42        44     9      180.000000       -0.740442         2    ;  uncertainty k = 0.208398
        12        11        42        44     9        0.000000        0.585176         3    ;  uncertainty k = 0.093112
        12        11        42        44     9      180.000000       -0.179618         4    ;  uncertainty k = 0.029902
        12        11        42        45     9        0.000000       -0.810618         1    ;  uncertainty k = 0.476463
        12        11        42        45     9      180.000000       -0.740442         2    ;  uncertainty k = 0.208398
        12        11        42        45     9        0.000000        0.585176         3    ;  uncertainty k = 0.093112
        12        11        42        45     9      180.000000       -0.179618         4    ;  uncertainty k = 0.029902
        12        11        46        47     9        0.000000       -0.810618         1    ;  uncertainty k = 0.476463
        12        11        46        47     9      180.000000       -0.740442         2    ;  uncertainty k = 0.208397
        12        11        46        47     9        0.000000        0.585176         3    ;  uncertainty k = 0.093112
        12        11        46        47     9      180.000000       -0.179618         4    ;  uncertainty k = 0.029902
        12        11        46        48     9        0.000000       -0.810618         1    ;  uncertainty k = 0.476463
        12        11        46        48     9      180.000000       -0.740442         2    ;  uncertainty k = 0.208397
        12        11        46        48     9        0.000000        0.585176         3    ;  uncertainty k = 0.093112
        12        11        46        48     9      180.000000       -0.179618         4    ;  uncertainty k = 0.029902
        12        11        46        49     9        0.000000       -0.810618         1    ;  uncertainty k = 0.476463
        12        11        46        49     9      180.000000       -0.740442         2    ;  uncertainty k = 0.208397
        12        11        46        49     9        0.000000        0.585176         3    ;  uncertainty k = 0.093112
        12        11        46        49     9      180.000000       -0.179618         4    ;  uncertainty k = 0.029902
        12        15        16        17     9        0.000000       -3.062351         1    ;  uncertainty k = 1.276838
        12        15        16        17     9      180.000000        2.894127         2    ;  uncertainty k = 0.258587
        12        15        16        17     9        0.000000        0.860445         3    ;  uncertainty k = 0.091746
        12        15        16        17     9      180.000000        0.587117         4    ;  uncertainty k = 0.338989
        12        15        16        41     9        0.000000       -0.574291         1    ;  uncertainty k = 2.046095
        12        15        16        41     9      180.000000        3.928920         2    ;  uncertainty k = 1.075275
        12        15        16        41     9        0.000000        0.161227         3    ;  uncertainty k = 0.381109
        12        15        16        41     9      180.000000        0.057219         4    ;  uncertainty k = 0.338212
        12        15        19        18     9        0.000000       -0.720184         1    ;  uncertainty k = 0.363422
        12        15        19        18     9      180.000000        1.466373         2    ;  uncertainty k = 0.671881
        12        15        19        18     9        0.000000        0.362475         3    ;  uncertainty k = 0.242092
        12        15        19        18     9      180.000000        0.276221         4    ;  uncertainty k = 0.143829
        12        15        19        20     9        0.000000        1.014478         1    ;  uncertainty k = 3.207549
        12        15        19        20     9      180.000000       -0.447185         2    ;  uncertainty k = 0.880594
        12        15        19        20     9        0.000000        0.406773         3    ;  uncertainty k = 0.479851
        12        15        19        20     9      180.000000        0.075628         4    ;  uncertainty k = 0.078934
        13        12        11        42     9        0.000000       -0.868529         1    ;  uncertainty k = 0.359709
        13        12        11        42     9      180.000000        0.339049         2    ;  uncertainty k = 0.271426
        13        12        11        42     9        0.000000        0.030221         3    ;  uncertainty k = 0.169820
        13        12        11        42     9      180.000000       -0.198172         4    ;  uncertainty k = 0.102797
        13        12        11        46     9        0.000000       -0.868529         1    ;  uncertainty k = 0.359709
        13        12        11        46     9      180.000000        0.339050         2    ;  uncertainty k = 0.271426
        13        12        11        46     9        0.000000        0.030221         3    ;  uncertainty k = 0.169820
        13        12        11        46     9      180.000000       -0.198172         4    ;  uncertainty k = 0.102797
        13        12        15        16     9        0.000000        0.636692         1    ;  uncertainty k = 0.443881
        13        12        15        16     9      180.000000       -1.082831         2    ;  uncertainty k = 0.432291
        13        12        15        16     9        0.000000        0.083911         3    ;  uncertainty k = 0.203429
        13        12        15        16     9      180.000000       -0.053905         4    ;  uncertainty k = 0.095175
        13        12        15        19     9        0.000000       -1.014379         1    ;  uncertainty k = 0.666770
        13        12        15        19     9      180.000000       -0.206347         2    ;  uncertainty k = 0.431023
        13        12        15        19     9        0.000000        0.529827         3    ;  uncertainty k = 0.228576
        13        12        15        19     9      180.000000       -0.286824         4    ;  uncertainty k = 0.129461
        14        12        11        42     9        0.000000       -0.868529         1    ;  uncertainty k = 0.359709
        14        12        11        42     9      180.000000        0.339049         2    ;  uncertainty k = 0.271426
        14        12        11        42     9        0.000000        0.030221         3    ;  uncertainty k = 0.169820
        14        12        11        42     9      180.000000       -0.198172         4    ;  uncertainty k = 0.102797
        14        12        11        46     9        0.000000       -0.868529         1    ;  uncertainty k = 0.359709
        14        12        11        46     9      180.000000        0.339050         2    ;  uncertainty k = 0.271426
        14        12        11        46     9        0.000000        0.030221         3    ;  uncertainty k = 0.169820
        14        12        11        46     9      180.000000       -0.198172         4    ;  uncertainty k = 0.102797
        14        12        15        16     9        0.000000        0.636692         1    ;  uncertainty k = 0.443881
        14        12        15        16     9      180.000000       -1.082831         2    ;  uncertainty k = 0.432291
        14        12        15        16     9        0.000000        0.083911         3    ;  uncertainty k = 0.203429
        14        12        15        16     9      180.000000       -0.053905         4    ;  uncertainty k = 0.095175
        14        12        15        19     9        0.000000       -1.014379         1    ;  uncertainty k = 0.666770
        14        12        15        19     9      180.000000       -0.206347         2    ;  uncertainty k = 0.431023
        14        12        15        19     9        0.000000        0.529827         3    ;  uncertainty k = 0.228576
        14        12        15        19     9      180.000000       -0.286824         4    ;  uncertainty k = 0.129461
        15        12        11        42     9        0.000000       -0.394044         1    ;  uncertainty k = 0.952250
        15        12        11        42     9      180.000000       -0.298782         2    ;  uncertainty k = 0.210060
        15        12        11        42     9        0.000000        0.102279         3    ;  uncertainty k = 0.252570
        15        12        11        42     9      180.000000       -0.158349         4    ;  uncertainty k = 0.062640
        15        12        11        46     9        0.000000       -0.394043         1    ;  uncertainty k = 0.952250
        15        12        11        46     9      180.000000       -0.298783         2    ;  uncertainty k = 0.210059
        15        12        11        46     9        0.000000        0.102279         3    ;  uncertainty k = 0.252570
        15        12        11        46     9      180.000000       -0.158350         4    ;  uncertainty k = 0.062640
        15        16        17        18     9        0.000000        3.190561         1    ;  uncertainty k = 2.129279
        15        16        17        18     9      180.000000        4.165518         2    ;  uncertainty k = 2.103256
        15        16        17        18     9        0.000000       -0.163634         3    ;  uncertainty k = 0.825879
        15        16        17        18     9      180.000000        0.629686         4    ;  uncertainty k = 0.355315
        15        16        17        22     9        0.000000        4.948396         1    ;  uncertainty k = 2.742747
        15        16        17        22     9      180.000000        3.665593         2    ;  uncertainty k = 2.655463
        15        16        17        22     9        0.000000        1.132038         3    ;  uncertainty k = 0.860258
        15        16        17        22     9      180.000000        0.328976         4    ;  uncertainty k = 0.593115
        15        19        18        17     9        0.000000        1.152350         1    ;  uncertainty k = 2.624976
        15        19        18        17     9      180.000000       15.352876         2    ;  uncertainty k = 0.482589
        15        19        18        17     9        0.000000       -0.706329         3    ;  uncertainty k = 1.011989
        15        19        18        17     9      180.000000       -0.606106         4    ;  uncertainty k = 0.206718
        15        19        18        26     9        0.000000        3.692759         1    ;  uncertainty k = 0.866356
        15        19        18        26     9      180.000000       11.333781         2    ;  uncertainty k = 0.611404
        15        19        18        26     9        0.000000        0.314850         3    ;  uncertainty k = 0.239644
        15        19        18        26     9      180.000000       -0.482788         4    ;  uncertainty k = 0.513933
        16        15        19        18     9        0.000000        1.075899         1    ;  uncertainty k = 0.686752
        16        15        19        18     9      180.000000        2.337056         2    ;  uncertainty k = 0.668401
        16        15        19        18     9        0.000000        0.174345         3    ;  uncertainty k = 0.624028
        16        15        19        18     9      180.000000        0.491041         4    ;  uncertainty k = 0.337525
        16        15        19        20     9        0.000000        1.870131         1    ;  uncertainty k = 2.124003
        16        15        19        20     9      180.000000       -0.788361         2    ;  uncertainty k = 0.765205
        16        15        19        20     9        0.000000        0.063928         3    ;  uncertainty k = 0.474210
        16        15        19        20     9      180.000000        0.018853         4    ;  uncertainty k = 0.243518
        16        17        18        19     9        0.000000       -0.598871         1    ;  uncertainty k = 1.517512
        16        17        18        19     9      180.000000        9.023777         2    ;  uncertainty k = 0.890262
        16        17        18        19     9        0.000000       -1.321226         3    ;  uncertainty k = 1.261849
        16        17        18        19     9      180.000000       -0.043685         4    ;  uncertainty k = 0.510427
        16        17        18        26     9        0.000000       -0.742539         1    ;  uncertainty k = 0.884320
        16        17        18        26     9      180.000000        6.821150         2    ;  uncertainty k = 1.300514
        16        17        18        26     9        0.000000        0.216631         3    ;  uncertainty k = 0.558836
        16        17        18        26     9      180.000000       -0.098970         4    ;  uncertainty k = 0.493923
        16        17        22        23     9        0.000000        0.297431         1    ;  uncertainty k = 0.338022
        16        17        22        23     9      180.000000        0.087168         2    ;  uncertainty k = 0.381934
        16        17        22        23     9        0.000000        0.347193         3    ;  uncertainty k = 0.232215
        16        17        22        23     9      180.000000        0.291096         4    ;  uncertainty k = 0.074538
        16        17        22        24     9        0.000000        0.297431         1    ;  uncertainty k = 0.338022
        16        17        22        24     9      180.000000        0.087168         2    ;  uncertainty k = 0.381934
        16        17        22        24     9        0.000000        0.347193         3    ;  uncertainty k = 0.232215
        16        17        22        24     9      180.000000        0.291096         4    ;  uncertainty k = 0.074538
        16        17        22        25     9        0.000000        0.297431         1    ;  uncertainty k = 0.338022
        16        17        22        25     9      180.000000        0.087168         2    ;  uncertainty k = 0.381934
        16        17        22        25     9        0.000000        0.347193         3    ;  uncertainty k = 0.232215
        16        17        22        25     9      180.000000        0.291096         4    ;  uncertainty k = 0.074538
        17        16        15        19     9        0.000000       -0.734671         1    ;  uncertainty k = 2.407402
        17        16        15        19     9      180.000000        6.965369         2    ;  uncertainty k = 1.234532
        17        16        15        19     9        0.000000        0.624658         3    ;  uncertainty k = 0.577005
        17        16        15        19     9      180.000000        0.290059         4    ;  uncertainty k = 0.846479
        17        18        19        20     9        0.000000        4.051322         1    ;  uncertainty k = 3.391115
        17        18        19        20     9      180.000000       10.697180         2    ;  uncertainty k = 0.526601
        17        18        19        20     9        0.000000        1.093668         3    ;  uncertainty k = 0.752546
        17        18        19        20     9      180.000000       -0.389374         4    ;  uncertainty k = 0.265720
        17        18        26        27     9        0.000000        8.080941         1    ;  uncertainty k = 2.061712
        17        18        26        27     9      180.000000        9.353073         2    ;  uncertainty k = 0.455751
        17        18        26        27     9        0.000000        0.960301         3    ;  uncertainty k = 0.478476
        17        18        26        27     9      180.000000       -0.922267         4    ;  uncertainty k = 0.215681
        17        18        26        28     9        0.000000        8.080941         1    ;  uncertainty k = 2.061712
        17        18        26        28     9      180.000000        9.353073         2    ;  uncertainty k = 0.455751
        17        18        26        28     9        0.000000        0.960301         3    ;  uncertainty k = 0.478476
        17        18        26        28     9      180.000000       -0.922267         4    ;  uncertainty k = 0.215681
        18        17        16        41     9        0.000000       -0.225774         1    ;  uncertainty k = 3.237560
        18        17        16        41     9      180.000000        7.660703         2    ;  uncertainty k = 0.931236
        18        17        16        41     9        0.000000        0.373526         3    ;  uncertainty k = 0.816132
        18        17        16        41     9      180.000000        0.053274         4    ;  uncertainty k = 0.298389
        18        17        22        23     9        0.000000       -0.260671         1    ;  uncertainty k = 0.510831
        18        17        22        23     9      180.000000       -1.123799         2    ;  uncertainty k = 0.505443
        18        17        22        23     9        0.000000        0.381297         3    ;  uncertainty k = 0.163929
        18        17        22        23     9      180.000000        0.194836         4    ;  uncertainty k = 0.041789
        18        17        22        24     9        0.000000       -0.260671         1    ;  uncertainty k = 0.510831
        18        17        22        24     9      180.000000       -1.123799         2    ;  uncertainty k = 0.505443
        18        17        22        24     9        0.000000        0.381297         3    ;  uncertainty k = 0.163929
        18        17        22        24     9      180.000000        0.194836         4    ;  uncertainty k = 0.041789
        18        17        22        25     9        0.000000       -0.260671         1    ;  uncertainty k = 0.510831
        18        17        22        25     9      180.000000       -1.123799         2    ;  uncertainty k = 0.505443
        18        17        22        25     9        0.000000        0.381297         3    ;  uncertainty k = 0.163929
        18        17        22        25     9      180.000000        0.194836         4    ;  uncertainty k = 0.041789
        19        15        16        41     9        0.000000        0.024534         1    ;  uncertainty k = 2.213974
        19        15        16        41     9      180.000000        4.149250         2    ;  uncertainty k = 1.312393
        19        15        16        41     9        0.000000        0.407424         3    ;  uncertainty k = 0.206511
        19        15        16        41     9      180.000000        0.443239         4    ;  uncertainty k = 0.158688
        19        18        17        22     9        0.000000       -0.380136         1    ;  uncertainty k = 2.913081
        19        18        17        22     9      180.000000        8.267784         2    ;  uncertainty k = 0.403615
        19        18        17        22     9        0.000000        0.435757         3    ;  uncertainty k = 0.320054
        19        18        17        22     9      180.000000       -0.156996         4    ;  uncertainty k = 0.291188
        19        18        26        27     9        0.000000        6.366443         1    ;  uncertainty k = 1.644722
        19        18        26        27     9      180.000000       10.049531         2    ;  uncertainty k = 0.349760
        19        18        26        27     9        0.000000        1.357511         3    ;  uncertainty k = 0.507490
        19        18        26        27     9      180.000000       -0.656591         4    ;  uncertainty k = 0.287459
        19        18        26        28     9        0.000000        6.366443         1    ;  uncertainty k = 1.644722
        19        18        26        28     9      180.000000       10.049531         2    ;  uncertainty k = 0.349760
        19        18        26        28     9        0.000000        1.357511         3    ;  uncertainty k = 0.507490
        19        18        26        28     9      180.000000       -0.656591         4    ;  uncertainty k = 0.287459
        20        19        18        26     9        0.000000        1.886192         1    ;  uncertainty k = 2.633103
        20        19        18        26     9      180.000000        7.784175         2    ;  uncertainty k = 1.209625
        20        19        18        26     9        0.000000        0.956054         3    ;  uncertainty k = 0.197633
        20        19        18        26     9      180.000000       -0.247909         4    ;  uncertainty k = 0.316191
        21        29        31        32     9        0.000000        0.330804         1    ;  uncertainty k = 0.230334
        21        29        31        32     9      180.000000       10.186670         2    ;  uncertainty k = 0.667560
        21        29        31        32     9        0.000000        1.476813         3    ;  uncertainty k = 0.275460
        21        29        31        32     9      180.000000        1.949353         4    ;  uncertainty k = 0.376835
        21        29        31        36     9        0.000000       -0.104731         1    ;  uncertainty k = 0.066469
        21        29        31        36     9      180.000000       10.892520         2    ;  uncertainty k = 0.348962
        21        29        31        36     9        0.000000       -0.555136         3    ;  uncertainty k = 0.448039
        21        29        31        36     9      180.000000        1.041327         4    ;  uncertainty k = 0.265813
        21        39        38        36     9        0.000000       -0.430067         1    ;  uncertainty k = 0.645238
        21        39        38        36     9      180.000000       14.217950         2    ;  uncertainty k = 0.493073
        21        39        38        36     9        0.000000        1.037332         3    ;  uncertainty k = 0.778314
        21        39        38        36     9      180.000000        1.422360         4    ;  uncertainty k = 0.096382
        22        17        16        41     9        0.000000       -0.743118         1    ;  uncertainty k = 3.324160
        22        17        16        41     9      180.000000        8.127734         2    ;  uncertainty k = 0.445128
        22        17        16        41     9        0.000000        0.693460         3    ;  uncertainty k = 0.571372
        22        17        16        41     9      180.000000        0.151177         4    ;  uncertainty k = 0.263311
        22        17        18        26     9        0.000000       -0.067505         1    ;  uncertainty k = 0.784520
        22        17        18        26     9      180.000000        6.890792         2    ;  uncertainty k = 0.817474
        22        17        18        26     9        0.000000        0.975121         3    ;  uncertainty k = 0.584566
        22        17        18        26     9      180.000000       -0.011356         4    ;  uncertainty k = 0.268200
        29        21        39        38     9        0.000000       -0.179855         1    ;  uncertainty k = 0.236170
        29        21        39        38     9      180.000000       11.933630         2    ;  uncertainty k = 0.420522
        29        21        39        38     9        0.000000       -0.226512         3    ;  uncertainty k = 0.484975
        29        21        39        38     9      180.000000        1.154430         4    ;  uncertainty k = 0.190689
        29        21        39        40     9        0.000000       -0.137219         1    ;  uncertainty k = 0.480255
        29        21        39        40     9      180.000000        5.383490         2    ;  uncertainty k = 0.621565
        29        21        39        40     9        0.000000        1.084887         3    ;  uncertainty k = 0.263136
        29        21        39        40     9      180.000000        1.368978         4    ;  uncertainty k = 0.184625
        29        31        32        33     9        0.000000       -0.458744         1    ;  uncertainty k = 0.312311
        29        31        32        33     9      180.000000        2.640843         2    ;  uncertainty k = 0.122419
        29        31        32        33     9        0.000000        0.698633         3    ;  uncertainty k = 0.057629
        29        31        32        33     9      180.000000        0.153295         4    ;  uncertainty k = 0.053065
        29        31        32        34     9        0.000000       -0.458744         1    ;  uncertainty k = 0.312311
        29        31        32        34     9      180.000000        2.640843         2    ;  uncertainty k = 0.122419
        29        31        32        34     9        0.000000        0.698633         3    ;  uncertainty k = 0.057629
        29        31        32        34     9      180.000000        0.153295         4    ;  uncertainty k = 0.053065
        29        31        32        35     9        0.000000       -0.458744         1    ;  uncertainty k = 0.312311
        29        31        32        35     9      180.000000        2.640843         2    ;  uncertainty k = 0.122419
        29        31        32        35     9        0.000000        0.698633         3    ;  uncertainty k = 0.057629
        29        31        32        35     9      180.000000        0.153295         4    ;  uncertainty k = 0.053065
        29        31        36        37     9        0.000000       -0.099624         1    ;  uncertainty k = 0.346629
        29        31        36        37     9      180.000000        5.825271         2    ;  uncertainty k = 0.518161
        29        31        36        37     9        0.000000        1.066680         3    ;  uncertainty k = 0.306240
        29        31        36        37     9      180.000000        1.395522         4    ;  uncertainty k = 0.194410
        29        31        36        38     9        0.000000       -0.256432         1    ;  uncertainty k = 0.254399
        29        31        36        38     9      180.000000       12.730497         2    ;  uncertainty k = 0.095185
        29        31        36        38     9        0.000000       -0.589407         3    ;  uncertainty k = 0.538563
        29        31        36        38     9      180.000000        1.083250         4    ;  uncertainty k = 0.179562
        30        29        21        39     9        0.000000       -0.000845         1    ;  uncertainty k = 0.225362
        30        29        21        39     9      180.000000        6.778610         2    ;  uncertainty k = 0.621474
        30        29        21        39     9        0.000000        1.263168         3    ;  uncertainty k = 0.134998
        30        29        21        39     9      180.000000        1.510985         4    ;  uncertainty k = 0.204893
        30        29        31        32     9        0.000000        0.198313         1    ;  uncertainty k = 0.321296
        30        29        31        32     9      180.000000        9.391976         2    ;  uncertainty k = 0.468661
        30        29        31        32     9        0.000000        0.778655         3    ;  uncertainty k = 0.172904
        30        29        31        32     9      180.000000        1.076203         4    ;  uncertainty k = 0.243531
        30        29        31        36     9        0.000000        0.127764         1    ;  uncertainty k = 0.093894
        30        29        31        36     9      180.000000        7.306436         2    ;  uncertainty k = 0.438944
        30        29        31        36     9        0.000000        1.226187         3    ;  uncertainty k = 0.334900
        30        29        31        36     9      180.000000        1.620413         4    ;  uncertainty k = 0.126713
        31        29        21        39     9        0.000000       -0.017994         1    ;  uncertainty k = 0.470974
        31        29        21        39     9      180.000000        9.638868         2    ;  uncertainty k = 0.432018
        31        29        21        39     9        0.000000       -0.202790         3    ;  uncertainty k = 0.394971
        31        29        21        39     9      180.000000        1.028775         4    ;  uncertainty k = 0.333177
        31        36        38        39     9        0.000000       -0.578890         1    ;  uncertainty k = 0.373490
        31        36        38        39     9      180.000000       14.569679         2    ;  uncertainty k = 0.502916
        31        36        38        39     9        0.000000        1.044046         3    ;  uncertainty k = 0.669777
        31        36        38        39     9      180.000000        1.391982         4    ;  uncertainty k = 0.153351
        32        31        36        37     9        0.000000       -0.062665         1    ;  uncertainty k = 0.368636
        32        31        36        37     9      180.000000        7.712643         2    ;  uncertainty k = 0.829565
        32        31        36        37     9        0.000000        0.540971         3    ;  uncertainty k = 0.243046
        32        31        36        37     9      180.000000        0.957383         4    ;  uncertainty k = 0.249256
        32        31        36        38     9        0.000000        0.277816         1    ;  uncertainty k = 0.277540
        32        31        36        38     9      180.000000       10.230049         2    ;  uncertainty k = 0.419177
        32        31        36        38     9        0.000000        1.295580         3    ;  uncertainty k = 0.291690
        32        31        36        38     9      180.000000        1.817352         4    ;  uncertainty k = 0.267393
        33        32        31        36     9        0.000000       -0.826819         1    ;  uncertainty k = 0.454416
        33        32        31        36     9      180.000000        2.747676         2    ;  uncertainty k = 0.229611
        33        32        31        36     9        0.000000        0.394322         3    ;  uncertainty k = 0.092764
        33        32        31        36     9      180.000000        0.074324         4    ;  uncertainty k = 0.062362
        34        32        31        36     9        0.000000       -0.826819         1    ;  uncertainty k = 0.454416
        34        32        31        36     9      180.000000        2.747676         2    ;  uncertainty k = 0.229611
        34        32        31        36     9        0.000000        0.394322         3    ;  uncertainty k = 0.092764
        34        32        31        36     9      180.000000        0.074324         4    ;  uncertainty k = 0.062362
        35        32        31        36     9        0.000000       -0.826819         1    ;  uncertainty k = 0.454416
        35        32        31        36     9      180.000000        2.747676         2    ;  uncertainty k = 0.229611
        35        32        31        36     9        0.000000        0.394322         3    ;  uncertainty k = 0.092764
        35        32        31        36     9      180.000000        0.074324         4    ;  uncertainty k = 0.062362
        36        38        39        40     9        0.000000        0.309669         1    ;  uncertainty k = 0.285692
        36        38        39        40     9      180.000000       15.391401         2    ;  uncertainty k = 0.536217
        36        38        39        40     9        0.000000        2.304010         3    ;  uncertainty k = 0.514311
        36        38        39        40     9      180.000000        1.514620         4    ;  uncertainty k = 0.441869
        37        36        38        39     9        0.000000        0.219686         1    ;  uncertainty k = 0.276105
        37        36        38        39     9      180.000000       14.895525         2    ;  uncertainty k = 0.508847
        37        36        38        39     9        0.000000        2.156512         3    ;  uncertainty k = 0.517583
        37        36        38        39     9      180.000000        1.573495         4    ;  uncertainty k = 0.382999
        42        11        46        47     9        0.000000       -1.168308         1    ;  uncertainty k = 0.299692
        42        11        46        47     9      180.000000        0.150758         2    ;  uncertainty k = 0.296599
        42        11        46        47     9        0.000000        0.668939         3    ;  uncertainty k = 0.064920
        42        11        46        47     9      180.000000       -0.104414         4    ;  uncertainty k = 0.091598
        42        11        46        48     9        0.000000       -1.168308         1    ;  uncertainty k = 0.299692
        42        11        46        48     9      180.000000        0.150758         2    ;  uncertainty k = 0.296599
        42        11        46        48     9        0.000000        0.668939         3    ;  uncertainty k = 0.064920
        42        11        46        48     9      180.000000       -0.104414         4    ;  uncertainty k = 0.091598
        42        11        46        49     9        0.000000       -1.168308         1    ;  uncertainty k = 0.299692
        42        11        46        49     9      180.000000        0.150758         2    ;  uncertainty k = 0.296599
        42        11        46        49     9        0.000000        0.668939         3    ;  uncertainty k = 0.064920
        42        11        46        49     9      180.000000       -0.104414         4    ;  uncertainty k = 0.091598
        43        42        11        46     9        0.000000       -1.168308         1    ;  uncertainty k = 0.299692
        43        42        11        46     9      180.000000        0.150758         2    ;  uncertainty k = 0.296599
        43        42        11        46     9        0.000000        0.668939         3    ;  uncertainty k = 0.064920
        43        42        11        46     9      180.000000       -0.104414         4    ;  uncertainty k = 0.091598
        44        42        11        46     9        0.000000       -1.168308         1    ;  uncertainty k = 0.299692
        44        42        11        46     9      180.000000        0.150758         2    ;  uncertainty k = 0.296599
        44        42        11        46     9        0.000000        0.668939         3    ;  uncertainty k = 0.064920
        44        42        11        46     9      180.000000       -0.104414         4    ;  uncertainty k = 0.091598
        45        42        11        46     9        0.000000       -1.168308         1    ;  uncertainty k = 0.299692
        45        42        11        46     9      180.000000        0.150758         2    ;  uncertainty k = 0.296599
        45        42        11        46     9        0.000000        0.668939         3    ;  uncertainty k = 0.064920
        45        42        11        46     9      180.000000       -0.104414         4    ;  uncertainty k = 0.091598

[ dihedrals ] ; impropers
;       ai        aj        ak        al funct           phase               k        pn
         1         2         8        21     4      180.000000       13.806753         2    ;  uncertainty k = 0.112015
         1         8        21         2     4      180.000000       13.806753         2    ;  uncertainty k = 0.112015
         1        21         2         8     4      180.000000       13.806753         2    ;  uncertainty k = 0.112015
         2         1         3         4     4      180.000000        4.717283         2    ;  uncertainty k = 0.237075
         2         3         4         1     4      180.000000        4.717283         2    ;  uncertainty k = 0.237075
         2         4         1         3     4      180.000000        4.717283         2    ;  uncertainty k = 0.237075
         4         2         5         6     4      180.000000        1.956941         2    ;  uncertainty k = 0.191439
         4         5         6         2     4      180.000000        1.956941         2    ;  uncertainty k = 0.191439
         4         6         2         5     4      180.000000        1.956941         2    ;  uncertainty k = 0.191439
         6         4         7        10     4      180.000000       22.038012         2    ;  uncertainty k = 0.126561
         6         7        10         4     4      180.000000       22.038012         2    ;  uncertainty k = 0.126561
         6        10         4         7     4      180.000000       22.038012         2    ;  uncertainty k = 0.126561
         7         6         8        15     4      180.000000       11.777616         2    ;  uncertainty k = 0.246468
         7         8        15         6     4      180.000000       11.777616         2    ;  uncertainty k = 0.246468
         7        15         6         8     4      180.000000       11.777616         2    ;  uncertainty k = 0.246468
         8         1         7         9     4      180.000000        4.918961         2    ;  uncertainty k = 0.388654
         8         7         9         1     4      180.000000        4.918961         2    ;  uncertainty k = 0.388654
         8         9         1         7     4      180.000000        4.918961         2    ;  uncertainty k = 0.388654
        16        15        17        41     4      180.000000       50.512062         2    ;  uncertainty k = 0.072586
        16        17        41        15     4      180.000000       50.512062         2    ;  uncertainty k = 0.072586
        16        41        15        17     4      180.000000       50.512062         2    ;  uncertainty k = 0.072586
        17        16        18        22     4      180.000000        2.066646         2    ;  uncertainty k = 0.825300
        17        18        22        16     4      180.000000        2.066646         2    ;  uncertainty k = 0.825300
        17        22        16        18     4      180.000000        2.066646         2    ;  uncertainty k = 0.825300
        18        17        19        26     4      180.000000       30.892449         2    ;  uncertainty k = 0.146917
        18        19        26        17     4      180.000000       30.892449         2    ;  uncertainty k = 0.146917
        18        26        17        19     4      180.000000       30.892449         2    ;  uncertainty k = 0.146917
        21         1        29        39     4      180.000000       13.231444         2    ;  uncertainty k = 0.085741
        21        29        39         1     4      180.000000       13.231444         2    ;  uncertainty k = 0.085741
        21        39         1        29     4      180.000000       13.231444         2    ;  uncertainty k = 0.085741
        26        18        27        28     4      180.000000        0.184047         2    ;  uncertainty k = 0.411542
        26        27        28        18     4      180.000000        0.184047         2    ;  uncertainty k = 0.411542
        26        28        18        27     4      180.000000        0.184047         2    ;  uncertainty k = 0.411542
        29        21        30        31     4      180.000000        7.015097         2    ;  uncertainty k = 0.181812
        29        30        31        21     4      180.000000        7.015097         2    ;  uncertainty k = 0.181812
        29        31        21        30     4      180.000000        7.015097         2    ;  uncertainty k = 0.181812
        31        29        32        36     4      180.000000        6.907671         2    ;  uncertainty k = 0.240122
        31        32        36        29     4      180.000000        6.907671         2    ;  uncertainty k = 0.240122
        31        36        29        32     4      180.000000        6.907671         2    ;  uncertainty k = 0.240122
        36        31        37        38     4      180.000000       14.182840         2    ;  uncertainty k = 0.082331
        36        37        38        31     4      180.000000       14.182840         2    ;  uncertainty k = 0.082331
        36        38        31        37     4      180.000000       14.182840         2    ;  uncertainty k = 0.082331
        39        21        38        40     4      180.000000       14.162825         2    ;  uncertainty k = 0.035829
        39        38        40        21     4      180.000000       14.162825         2    ;  uncertainty k = 0.035829
        39        40        21        38     4      180.000000       14.162825         2    ;  uncertainty k = 0.035829

[ pairs ]
;       ai        aj funct
         1         5     1
         1         6     1
         1        15     1
         1        30     1
         1        31     1
         1        38     1
         1        40     1
         2         7     1
         2         9     1
         2        10     1
         2        29     1
         2        39     1
         3         5     1
         3         6     1
         3         8     1
         3        21     1
         4         8     1
         4        11     1
         4        15     1
         4        21     1
         5         7     1
         5        10     1
         6         9     1
         6        12     1
         6        16     1
         6        19     1
         6        42     1
         6        46     1
         7        11     1
         7        13     1
         7        14     1
         7        17     1
         7        18     1
         7        20     1
         7        21     1
         7        41     1
         8        10     1
         8        12     1
         8        16     1
         8        19     1
         8        29     1
         8        39     1
         9        15     1
         9        21     1
        10        13     1
        10        14     1
        10        15     1
        10        43     1
        10        44     1
        10        45     1
        10        47     1
        10        48     1
        10        49     1
        11        16     1
        11        19     1
        12        17     1
        12        18     1
        12        20     1
        12        41     1
        12        43     1
        12        44     1
        12        45     1
        12        47     1
        12        48     1
        12        49     1
        13        16     1
        13        19     1
        13        42     1
        13        46     1
        14        16     1
        14        19     1
        14        42     1
        14        46     1
        15        22     1
        15        26     1
        15        42     1
        15        46     1
        16        20     1
        16        23     1
        16        24     1
        16        25     1
        16        26     1
        17        20     1
        17        27     1
        17        28     1
        18        23     1
        18        24     1
        18        25     1
        18        41     1
        19        22     1
        19        27     1
        19        28     1
        19        41     1
        20        26     1
        21        32     1
        21        36     1
        22        26     1
        22        41     1
        29        33     1
        29        34     1
        29        35     1
        29        37     1
        29        38     1
        29        40     1
        30        32     1
        30        36     1
        30        39     1
        31        39     1
        32        37     1
        32        38     1
        33        36     1
        34        36     1
        35        36     1
        36        40     1
        37        39     1
        42        47     1
        42        48     1
        42        49     1
        43        46     1
        44        46     1
        45        46     1
