; ITP file created by ByteFF-joint-25, 2026-03-14 15:08:28.197223

[ atomtypes ]
;name           bonded.type        at.num        mass        charge   ptype           sigma         epsilon
 c0bf                                   6      0.0000       0.00000       A     3.31502e-01     4.13346e-01    ;  uncertainty sigma = 0.000010, epsilon = 0.000696
 c1bf                                   6      0.0000       0.00000       A     3.31510e-01     4.13385e-01    ;  uncertainty sigma = 0.000007, epsilon = 0.000565
 h2bf                                   1      0.0000       0.00000       A     2.62563e-01     6.71382e-02    ;  uncertainty sigma = 0.000008, epsilon = 0.000500
 c3bf                                   6      0.0000       0.00000       A     3.31523e-01     4.13778e-01    ;  uncertainty sigma = 0.000003, epsilon = 0.000961
 h4bf                                   1      0.0000       0.00000       A     2.62561e-01     6.68067e-02    ;  uncertainty sigma = 0.000012, epsilon = 0.000527
 c5bf                                   6      0.0000       0.00000       A     3.31562e-01     4.13129e-01    ;  uncertainty sigma = 0.000021, epsilon = 0.000953
 c6bf                                   6      0.0000       0.00000       A     3.31604e-01     4.12991e-01    ;  uncertainty sigma = 0.000053, epsilon = 0.001665
 c7bf                                   6      0.0000       0.00000       A     3.31543e-01     4.13398e-01    ;  uncertainty sigma = 0.000018, epsilon = 0.001289
 h8bf                                   1      0.0000       0.00000       A     2.62555e-01     6.73758e-02    ;  uncertainty sigma = 0.000015, epsilon = 0.000633
 o9bf                                   8      0.0000       0.00000       A     3.15675e-01     3.03349e-01    ;  uncertainty sigma = 0.000037, epsilon = 0.000709
 c10bf                                  6      0.0000       0.00000       A     3.39754e-01     4.50298e-01    ;  uncertainty sigma = 0.000022, epsilon = 0.001818
 c11bf                                  6      0.0000       0.00000       A     3.39729e-01     4.51261e-01    ;  uncertainty sigma = 0.000015, epsilon = 0.001388
 h12bf                                  1      0.0000       0.00000       A     2.60113e-01     8.69260e-02    ;  uncertainty sigma = 0.000018, epsilon = 0.001362
 h13bf                                  1      0.0000       0.00000       A     2.60113e-01     8.69260e-02    ;  uncertainty sigma = 0.000018, epsilon = 0.001362
 c14bf                                  6      0.0000       0.00000       A     3.39922e-01     4.52078e-01    ;  uncertainty sigma = 0.000044, epsilon = 0.005050
 c15bf                                  6      0.0000       0.00000       A     3.31534e-01     4.13061e-01    ;  uncertainty sigma = 0.000023, epsilon = 0.000770
 n16bf                                  7      0.0000       0.00000       A     3.18159e-01     6.82058e-01    ;  uncertainty sigma = 0.000074, epsilon = 0.006526
 c17bf                                  6      0.0000       0.00000       A     3.31516e-01     4.13029e-01    ;  uncertainty sigma = 0.000046, epsilon = 0.002102
 n18bf                                  7      0.0000       0.00000       A     3.27895e-01     6.51183e-01    ;  uncertainty sigma = 0.000198, epsilon = 0.011723
 h19bf                                  1      0.0000       0.00000       A     1.10796e-01     4.19443e-02    ;  uncertainty sigma = 0.000445, epsilon = 0.001840
 c20bf                                  6      0.0000       0.00000       A     3.31482e-01     4.13027e-01    ;  uncertainty sigma = 0.000008, epsilon = 0.000849
 c21bf                                  6      0.0000       0.00000       A     3.39747e-01     4.51374e-01    ;  uncertainty sigma = 0.000011, epsilon = 0.001160
 h22bf                                  1      0.0000       0.00000       A     2.42212e-01     8.67416e-02    ;  uncertainty sigma = 0.000033, epsilon = 0.000677
 h23bf                                  1      0.0000       0.00000       A     2.42212e-01     8.67416e-02    ;  uncertainty sigma = 0.000033, epsilon = 0.000677
 h24bf                                  1      0.0000       0.00000       A     2.42212e-01     8.67416e-02    ;  uncertainty sigma = 0.000033, epsilon = 0.000677
 n25bf                                  7      0.0000       0.00000       A     3.36518e-01     4.71691e-01    ;  uncertainty sigma = 0.000108, epsilon = 0.006012
 h26bf                                  1      0.0000       0.00000       A     1.10696e-01     4.11175e-02    ;  uncertainty sigma = 0.000127, epsilon = 0.001410
 h27bf                                  1      0.0000       0.00000       A     1.10696e-01     4.11175e-02    ;  uncertainty sigma = 0.000127, epsilon = 0.001410
 c28bf                                  6      0.0000       0.00000       A     3.31512e-01     4.13180e-01    ;  uncertainty sigma = 0.000011, epsilon = 0.000773
 h29bf                                  1      0.0000       0.00000       A     2.62563e-01     6.70333e-02    ;  uncertainty sigma = 0.000017, epsilon = 0.000878
 c30bf                                  6      0.0000       0.00000       A     3.31515e-01     4.13373e-01    ;  uncertainty sigma = 0.000009, epsilon = 0.001230
 c31bf                                  6      0.0000       0.00000       A     3.31518e-01     4.13129e-01    ;  uncertainty sigma = 0.000006, epsilon = 0.000524
 h32bf                                  1      0.0000       0.00000       A     2.53608e-01     6.69186e-02    ;  uncertainty sigma = 0.000019, epsilon = 0.000651
 n33bf                                  7      0.0000       0.00000       A     3.38405e-01     3.93565e-01    ;  uncertainty sigma = 0.000013, epsilon = 0.000990
 c34bf                                  6      0.0000       0.00000       A     3.31518e-01     4.13331e-01    ;  uncertainty sigma = 0.000005, epsilon = 0.000655
 h35bf                                  1      0.0000       0.00000       A     2.53644e-01     6.67556e-02    ;  uncertainty sigma = 0.000027, epsilon = 0.000598
 o36bf                                  8      0.0000       0.00000       A     3.04746e-01     6.12575e-01    ;  uncertainty sigma = 0.000054, epsilon = 0.002454
 c37bf                                  6      0.0000       0.00000       A     3.39769e-01     4.50351e-01    ;  uncertainty sigma = 0.000003, epsilon = 0.001331
 h38bf                                  1      0.0000       0.00000       A     2.60031e-01     8.68009e-02    ;  uncertainty sigma = 0.000006, epsilon = 0.000320
 h39bf                                  1      0.0000       0.00000       A     2.60031e-01     8.68009e-02    ;  uncertainty sigma = 0.000006, epsilon = 0.000320
 h40bf                                  1      0.0000       0.00000       A     2.60031e-01     8.68009e-02    ;  uncertainty sigma = 0.000006, epsilon = 0.000320
 c41bf                                  6      0.0000       0.00000       A     3.39769e-01     4.50351e-01    ;  uncertainty sigma = 0.000003, epsilon = 0.001331
 h42bf                                  1      0.0000       0.00000       A     2.60031e-01     8.68009e-02    ;  uncertainty sigma = 0.000006, epsilon = 0.000320
 h43bf                                  1      0.0000       0.00000       A     2.60031e-01     8.68009e-02    ;  uncertainty sigma = 0.000006, epsilon = 0.000320
 h44bf                                  1      0.0000       0.00000       A     2.60031e-01     8.68009e-02    ;  uncertainty sigma = 0.000006, epsilon = 0.000320
 c45bf                                  6      0.0000       0.00000       A     3.47995e-01     6.68961e-01    ;  uncertainty sigma = 0.000023, epsilon = 0.000839
 c46bf                                  6      0.0000       0.00000       A     3.47972e-01     6.68149e-01    ;  uncertainty sigma = 0.000025, epsilon = 0.000878
 c47bf                                  6      0.0000       0.00000       A     3.39788e-01     4.50741e-01    ;  uncertainty sigma = 0.000009, epsilon = 0.000933
 h48bf                                  1      0.0000       0.00000       A     2.60028e-01     8.68714e-02    ;  uncertainty sigma = 0.000007, epsilon = 0.000541
 h49bf                                  1      0.0000       0.00000       A     2.60028e-01     8.68715e-02    ;  uncertainty sigma = 0.000007, epsilon = 0.000541
 h50bf                                  1      0.0000       0.00000       A     2.60028e-01     8.68714e-02    ;  uncertainty sigma = 0.000007, epsilon = 0.000541

[ moleculetype ]
;name             nrexcl
 MOL                   3

[ atoms ]
;       nr            type      resi   res      atom      cgnr      charge          mass ; qtot
         1            c0bf         1   UNL        c0         1    -0.03144       12.0110 ; qtot   -0.031
         2            c1bf         1   UNL        c1         2    -0.06410       12.0110 ; qtot   -0.096
         3            h2bf         1   UNL        h2         3     0.13961        1.0080 ; qtot    0.044
         4            c3bf         1   UNL        c3         4    -0.14797       12.0110 ; qtot   -0.104
         5            h4bf         1   UNL        h4         5     0.15718        1.0080 ; qtot    0.053
         6            c5bf         1   UNL        c5         6     0.18249       12.0110 ; qtot    0.236
         7            c6bf         1   UNL        c6         7    -0.20488       12.0110 ; qtot    0.031
         8            c7bf         1   UNL        c7         8    -0.06176       12.0110 ; qtot   -0.031
         9            h8bf         1   UNL        h8         9     0.15023        1.0080 ; qtot    0.119
        10            o9bf         1   UNL        o9        10    -0.32527       15.9990 ; qtot   -0.206
        11           c10bf         1   UNL       c10        11     0.16563       12.0110 ; qtot   -0.040
        12           c11bf         1   UNL       c11        12    -0.09875       12.0110 ; qtot   -0.139
        13           h12bf         1   UNL       h12        13     0.09101        1.0080 ; qtot   -0.048
        14           h13bf         1   UNL       h13        14     0.09101        1.0080 ; qtot    0.043
        15           c14bf         1   UNL       c14        15     0.04015       12.0110 ; qtot    0.083
        16           c15bf         1   UNL       c15        16     0.70447       12.0110 ; qtot    0.788
        17           n16bf         1   UNL       n16        17    -0.41729       14.0070 ; qtot    0.370
        18           c17bf         1   UNL       c17        18     0.47248       12.0110 ; qtot    0.843
        19           n18bf         1   UNL       n18        19    -0.37461       14.0070 ; qtot    0.468
        20           h19bf         1   UNL       h19        20     0.35504        1.0080 ; qtot    0.823
        21           c20bf         1   UNL       c20        21    -0.15351       12.0110 ; qtot    0.670
        22           c21bf         1   UNL       c21        22     0.07530       12.0110 ; qtot    0.745
        23           h22bf         1   UNL       h22        23     0.09109        1.0080 ; qtot    0.836
        24           h23bf         1   UNL       h23        24     0.09109        1.0080 ; qtot    0.927
        25           h24bf         1   UNL       h24        25     0.09109        1.0080 ; qtot    1.018
        26           n25bf         1   UNL       n25        26    -0.48596       14.0070 ; qtot    0.532
        27           h26bf         1   UNL       h26        27     0.33929        1.0080 ; qtot    0.872
        28           h27bf         1   UNL       h27        28     0.33929        1.0080 ; qtot    1.211
        29           c28bf         1   UNL       c28        29    -0.06969       12.0110 ; qtot    1.141
        30           h29bf         1   UNL       h29        30     0.14722        1.0080 ; qtot    1.288
        31           c30bf         1   UNL       c30        31    -0.07426       12.0110 ; qtot    1.214
        32           c31bf         1   UNL       c31        32     0.41218       12.0110 ; qtot    1.626
        33           h32bf         1   UNL       h32        33     0.02969        1.0080 ; qtot    1.656
        34           n33bf         1   UNL       n33        34    -0.65950       14.0070 ; qtot    0.997
        35           c34bf         1   UNL       c34        35     0.41506       12.0110 ; qtot    1.412
        36           h35bf         1   UNL       h35        36     0.02421        1.0080 ; qtot    1.436
        37           o36bf         1   UNL       o36        37    -0.45182       15.9990 ; qtot    0.984
        38           c37bf         1   UNL       c37        38    -0.10337       12.0110 ; qtot    0.881
        39           h38bf         1   UNL       h38        39     0.05101        1.0080 ; qtot    0.932
        40           h39bf         1   UNL       h39        40     0.05101        1.0080 ; qtot    0.983
        41           h40bf         1   UNL       h40        41     0.05101        1.0080 ; qtot    1.034
        42           c41bf         1   UNL       c41        42    -0.10337       12.0110 ; qtot    0.930
        43           h42bf         1   UNL       h42        43     0.05101        1.0080 ; qtot    0.981
        44           h43bf         1   UNL       h43        44     0.05101        1.0080 ; qtot    1.032
        45           h44bf         1   UNL       h44        45     0.05101        1.0080 ; qtot    1.083
        46           c45bf         1   UNL       c45        46    -0.13946       12.0110 ; qtot    0.944
        47           c46bf         1   UNL       c46        47    -0.09878       12.0110 ; qtot    0.845
        48           c47bf         1   UNL       c47        48    -0.00731       12.0110 ; qtot    0.838
        49           h48bf         1   UNL       h48        49     0.05407        1.0080 ; qtot    0.892
        50           h49bf         1   UNL       h49        50     0.05407        1.0080 ; qtot    0.946
        51           h50bf         1   UNL       h50        51     0.05409        1.0080 ; qtot    1.000

[ bonds ]
;       ai        aj funct               r               k
         1         2     1        0.140395   346669.119922    ;  uncertainty r = 0.000041, k = 4.946532
         1         8     1        0.139625   339356.772949    ;  uncertainty r = 0.000095, k = 6.717835
         1        21     1        0.147575   272337.693848    ;  uncertainty r = 0.000088, k = 4.337071
         2         3     1        0.108758   334419.121777    ;  uncertainty r = 0.000028, k = 1.545779
         2         4     1        0.138691   376500.396387    ;  uncertainty r = 0.000073, k = 3.074405
         4         5     1        0.108788   336617.637061    ;  uncertainty r = 0.000017, k = 1.411956
         4         6     1        0.140086   362230.540576    ;  uncertainty r = 0.000052, k = 3.404710
         6         7     1        0.139987   328983.803418    ;  uncertainty r = 0.000163, k = 7.293716
         6        10     1        0.136368   303578.797510    ;  uncertainty r = 0.000194, k = 10.538317
         7         8     1        0.139598   346291.119629    ;  uncertainty r = 0.000122, k = 6.656862
         7        15     1        0.150678   205784.156250    ;  uncertainty r = 0.000110, k = 20.274094
         8         9     1        0.108768   335648.988965    ;  uncertainty r = 0.000063, k = 4.223167
        10        11     1        0.145422   203859.641382    ;  uncertainty r = 0.000221, k = 9.275520
        11        12     1        0.152936   192803.911694    ;  uncertainty r = 0.000262, k = 11.274596
        11        38     1        0.152325   205847.654272    ;  uncertainty r = 0.000037, k = 5.592256
        11        42     1        0.152325   205847.654272    ;  uncertainty r = 0.000037, k = 5.592256
        12        13     1        0.109477   309561.503809    ;  uncertainty r = 0.000048, k = 2.448473
        12        14     1        0.109477   309561.503809    ;  uncertainty r = 0.000048, k = 2.448473
        12        15     1        0.153041   191194.026782    ;  uncertainty r = 0.000126, k = 21.513846
        15        16     1        0.153598   171646.122900    ;  uncertainty r = 0.000173, k = 14.753170
        15        19     1        0.149698   232215.907178    ;  uncertainty r = 0.000407, k = 51.570456
        16        17     1        0.142413   302839.344971    ;  uncertainty r = 0.000236, k = 75.996174
        16        37     1        0.120112   608584.455469    ;  uncertainty r = 0.000161, k = 10.569144
        17        18     1        0.135836   286250.770703    ;  uncertainty r = 0.000260, k = 52.766102
        17        22     1        0.146741   261825.572607    ;  uncertainty r = 0.000154, k = 17.700649
        18        19     1        0.133610   531287.609180    ;  uncertainty r = 0.000191, k = 37.526813
        18        26     1        0.133101   320485.564160    ;  uncertainty r = 0.000146, k = 40.823703
        19        20     1        0.101578   423262.955127    ;  uncertainty r = 0.000083, k = 11.557068
        21        29     1        0.139432   358157.805762    ;  uncertainty r = 0.000081, k = 7.240832
        21        35     1        0.140376   327765.581152    ;  uncertainty r = 0.000033, k = 5.437541
        22        23     1        0.109172   309495.286084    ;  uncertainty r = 0.000053, k = 3.597993
        22        24     1        0.109172   309495.286084    ;  uncertainty r = 0.000053, k = 3.597993
        22        25     1        0.109172   309495.286084    ;  uncertainty r = 0.000053, k = 3.597993
        26        27     1        0.101405   421785.735498    ;  uncertainty r = 0.000064, k = 13.590763
        26        28     1        0.101405   421785.735498    ;  uncertainty r = 0.000064, k = 13.590763
        29        30     1        0.108768   333069.025879    ;  uncertainty r = 0.000038, k = 2.539451
        29        31     1        0.140293   366777.525049    ;  uncertainty r = 0.000058, k = 3.403732
        31        32     1        0.140782   337238.418652    ;  uncertainty r = 0.000056, k = 8.385838
        31        46     1        0.142937   317310.816260    ;  uncertainty r = 0.000058, k = 6.365625
        32        33     1        0.108973   335495.842920    ;  uncertainty r = 0.000036, k = 1.962803
        32        34     1        0.133258   394990.157373    ;  uncertainty r = 0.000038, k = 7.244769
        34        35     1        0.133590   387795.510937    ;  uncertainty r = 0.000066, k = 6.059285
        35        36     1        0.109038   335218.688672    ;  uncertainty r = 0.000023, k = 2.535679
        38        39     1        0.109545   310467.177393    ;  uncertainty r = 0.000018, k = 1.787242
        38        40     1        0.109545   310467.177393    ;  uncertainty r = 0.000018, k = 1.787242
        38        41     1        0.109545   310467.177393    ;  uncertainty r = 0.000018, k = 1.787242
        42        43     1        0.109545   310467.177393    ;  uncertainty r = 0.000018, k = 1.787242
        42        44     1        0.109545   310467.177393    ;  uncertainty r = 0.000018, k = 1.787242
        42        45     1        0.109545   310467.177393    ;  uncertainty r = 0.000018, k = 1.787242
        46        47     1        0.121555   970613.227344    ;  uncertainty r = 0.000043, k = 3.777571
        47        48     1        0.146508   290634.241064    ;  uncertainty r = 0.000033, k = 8.594289
        48        49     1        0.109626   309325.413232    ;  uncertainty r = 0.000019, k = 2.543102
        48        50     1        0.109626   309325.438770    ;  uncertainty r = 0.000019, k = 2.543114
        48        51     1        0.109626   309325.438770    ;  uncertainty r = 0.000019, k = 2.543114

[ angles ]
;       ai        aj        ak funct           theta             cth
         1         2         3     1      118.893616      278.817608    ;  uncertainty theta = 0.000947, k = 0.098722
         1         2         4     1      120.561302      527.978140    ;  uncertainty theta = 0.002734, k = 0.057592
         1         8         7     1      123.246628      506.563391    ;  uncertainty theta = 0.005120, k = 0.228391
         1         8         9     1      118.865074      283.366533    ;  uncertainty theta = 0.002520, k = 0.038972
         1        21        29     1      121.596092      405.721591    ;  uncertainty theta = 0.003042, k = 0.106978
         1        21        35     1      120.835754      397.178503    ;  uncertainty theta = 0.003296, k = 0.080530
         2         1         8     1      119.314438      425.059408    ;  uncertainty theta = 0.003602, k = 0.149417
         2         1        21     1      121.066544      416.337495    ;  uncertainty theta = 0.001707, k = 0.174306
         2         4         5     1      121.376205      280.339811    ;  uncertainty theta = 0.001127, k = 0.032565
         2         4         6     1      119.583458      505.555281    ;  uncertainty theta = 0.002684, k = 0.150778
         3         2         4     1      119.330368      289.507601    ;  uncertainty theta = 0.001545, k = 0.066383
         4         6         7     1      120.988113      370.564749    ;  uncertainty theta = 0.002805, k = 0.132341
         4         6        10     1      118.414932      539.304551    ;  uncertainty theta = 0.003186, k = 0.119404
         5         4         6     1      120.029160      275.838512    ;  uncertainty theta = 0.003388, k = 0.140058
         6         7         8     1      121.647110      436.923661    ;  uncertainty theta = 0.004540, k = 0.113557
         6         7        15     1      120.067566      415.396868    ;  uncertainty theta = 0.008782, k = 0.219694
         6        10        11     1      114.537888      453.333553    ;  uncertainty theta = 0.006687, k = 0.093698
         7         6        10     1      123.896896      494.205441    ;  uncertainty theta = 0.004024, k = 0.262919
         7         8         9     1      117.529808      269.727035    ;  uncertainty theta = 0.003461, k = 0.147037
         7        15        12     1      110.372864      539.933530    ;  uncertainty theta = 0.001408, k = 0.155688
         7        15        16     1      108.946983      466.381260    ;  uncertainty theta = 0.003845, k = 0.382761
         7        15        19     1      110.459412      616.078039    ;  uncertainty theta = 0.004076, k = 0.312915
         8         1        21     1      120.191261      412.787614    ;  uncertainty theta = 0.002590, k = 0.180355
         8         7        15     1      118.202316      406.870474    ;  uncertainty theta = 0.004021, k = 0.173231
        10        11        12     1      109.104774      651.855785    ;  uncertainty theta = 0.004859, k = 0.084503
        10        11        38     1      107.605125      619.338362    ;  uncertainty theta = 0.001081, k = 0.064685
        10        11        42     1      107.605125      619.338362    ;  uncertainty theta = 0.001081, k = 0.064685
        11        12        13     1      107.678444      386.201185    ;  uncertainty theta = 0.003165, k = 0.032000
        11        12        14     1      107.678444      386.201185    ;  uncertainty theta = 0.003165, k = 0.032000
        11        12        15     1      109.859573      530.089421    ;  uncertainty theta = 0.006963, k = 0.198376
        11        38        39     1      107.221069      387.594393    ;  uncertainty theta = 0.001065, k = 0.069193
        11        38        40     1      107.221069      387.594393    ;  uncertainty theta = 0.001065, k = 0.069193
        11        38        41     1      107.221069      387.594393    ;  uncertainty theta = 0.001065, k = 0.069193
        11        42        43     1      107.221069      387.594393    ;  uncertainty theta = 0.001065, k = 0.069193
        11        42        44     1      107.221069      387.594393    ;  uncertainty theta = 0.001065, k = 0.069193
        11        42        45     1      107.221069      387.594393    ;  uncertainty theta = 0.001065, k = 0.069193
        12        11        38     1      109.374954      548.046988    ;  uncertainty theta = 0.004356, k = 0.115347
        12        11        42     1      109.374954      548.046988    ;  uncertainty theta = 0.004356, k = 0.115347
        12        15        16     1      107.815041      449.614456    ;  uncertainty theta = 0.007030, k = 0.162708
        12        15        19     1      109.812546      627.822301    ;  uncertainty theta = 0.007991, k = 0.271564
        13        12        14     1      106.986496      321.844700    ;  uncertainty theta = 0.004263, k = 0.066652
        13        12        15     1      106.651634      397.354709    ;  uncertainty theta = 0.003140, k = 0.080198
        14        12        15     1      106.651634      397.354709    ;  uncertainty theta = 0.003140, k = 0.080198
        15        16        17     1      110.177444      536.173382    ;  uncertainty theta = 0.011689, k = 0.712083
        15        16        37     1      125.836937      424.636737    ;  uncertainty theta = 0.006696, k = 0.210364
        15        19        18     1      111.019447      602.235713    ;  uncertainty theta = 0.016031, k = 0.385577
        15        19        20     1      118.127907      280.649416    ;  uncertainty theta = 0.015278, k = 0.121870
        16        15        19     1      103.837784      815.585174    ;  uncertainty theta = 0.012174, k = 0.852513
        16        17        18     1      110.293701      728.609291    ;  uncertainty theta = 0.010426, k = 0.320486
        16        17        22     1      119.398109      397.513773    ;  uncertainty theta = 0.006832, k = 0.281808
        17        16        37     1      125.307961      629.051912    ;  uncertainty theta = 0.008036, k = 0.165829
        17        18        19     1      113.250023      720.106327    ;  uncertainty theta = 0.006756, k = 0.305315
        17        18        26     1      125.598953      549.524885    ;  uncertainty theta = 0.008546, k = 0.324469
        17        22        23     1      107.360855      470.851946    ;  uncertainty theta = 0.002522, k = 0.203983
        17        22        24     1      107.360855      470.851946    ;  uncertainty theta = 0.002522, k = 0.203983
        17        22        25     1      107.360855      470.851946    ;  uncertainty theta = 0.002522, k = 0.203983
        18        17        22     1      118.646042      371.786540    ;  uncertainty theta = 0.007230, k = 0.373049
        18        19        20     1      119.824707      355.581520    ;  uncertainty theta = 0.006083, k = 0.153034
        18        26        27     1      114.903091      371.138312    ;  uncertainty theta = 0.001582, k = 0.210952
        18        26        28     1      114.903091      371.138312    ;  uncertainty theta = 0.001582, k = 0.210952
        19        18        26     1      128.730377      637.313550    ;  uncertainty theta = 0.008927, k = 0.256741
        21        29        30     1      119.793930      272.208700    ;  uncertainty theta = 0.002168, k = 0.106431
        21        29        31     1      119.855492      549.841034    ;  uncertainty theta = 0.002259, k = 0.127586
        21        35        34     1      124.417702      712.327915    ;  uncertainty theta = 0.002448, k = 0.080147
        21        35        36     1      119.028152      265.538566    ;  uncertainty theta = 0.002679, k = 0.080702
        23        22        24     1      107.634499      325.466948    ;  uncertainty theta = 0.003233, k = 0.098676
        23        22        25     1      107.634499      325.466948    ;  uncertainty theta = 0.003233, k = 0.098676
        24        22        25     1      107.634499      325.466948    ;  uncertainty theta = 0.003233, k = 0.098676
        27        26        28     1      112.323524      263.743259    ;  uncertainty theta = 0.015210, k = 0.362876
        29        21        35     1      117.964699      383.864635    ;  uncertainty theta = 0.000691, k = 0.201585
        29        31        32     1      118.090370      393.792952    ;  uncertainty theta = 0.002335, k = 0.056412
        29        31        46     1      122.451706      394.742869    ;  uncertainty theta = 0.002775, k = 0.130982
        30        29        31     1      120.124710      282.863197    ;  uncertainty theta = 0.003336, k = 0.109805
        31        32        33     1      119.812820      273.153828    ;  uncertainty theta = 0.002018, k = 0.161287
        31        32        34     1      123.322533      716.051481    ;  uncertainty theta = 0.001526, k = 0.065802
        31        46        47     1      179.185349      167.360000    ;  uncertainty theta = 0.006239, k = 0.000000
        32        31        46     1      121.377762      385.407012    ;  uncertainty theta = 0.002721, k = 0.187163
        32        34        35     1      117.695824      391.723840    ;  uncertainty theta = 0.003307, k = 0.158290
        33        32        34     1      117.018288      337.856180    ;  uncertainty theta = 0.002317, k = 0.034294
        34        35        36     1      116.324661      341.625969    ;  uncertainty theta = 0.001429, k = 0.057767
        38        11        42     1      110.900230      580.347218    ;  uncertainty theta = 0.002949, k = 0.067890
        39        38        40     1      106.043396      316.610518    ;  uncertainty theta = 0.000878, k = 0.018252
        39        38        41     1      106.043396      316.610518    ;  uncertainty theta = 0.000878, k = 0.018252
        40        38        41     1      106.043396      316.610518    ;  uncertainty theta = 0.000878, k = 0.018252
        43        42        44     1      106.043396      316.610518    ;  uncertainty theta = 0.000878, k = 0.018252
        43        42        45     1      106.043396      316.610518    ;  uncertainty theta = 0.000878, k = 0.018252
        44        42        45     1      106.043396      316.610518    ;  uncertainty theta = 0.000878, k = 0.018252
        46        47        48     1      180.000000      176.798069    ;  uncertainty theta = 0.000000, k = 0.309155
        47        48        49     1      109.384781      397.674944    ;  uncertainty theta = 0.001901, k = 0.054795
        47        48        50     1      109.384781      397.674944    ;  uncertainty theta = 0.001901, k = 0.054795
        47        48        51     1      109.384781      397.674944    ;  uncertainty theta = 0.001901, k = 0.054795
        49        48        50     1      106.670265      309.918040    ;  uncertainty theta = 0.002250, k = 0.038949
        49        48        51     1      106.670265      309.918040    ;  uncertainty theta = 0.002250, k = 0.038949
        50        48        51     1      106.670265      309.918040    ;  uncertainty theta = 0.002250, k = 0.038949

[ dihedrals ] ; propers for gromacs 4.5 or higher, use funct 9
;       ai        aj        ak        al funct           phase               k        pn
         1         2         4         5     9        0.000000        0.072566         1    ;  uncertainty k = 0.050249
         1         2         4         5     9      180.000000        8.388241         2    ;  uncertainty k = 0.411323
         1         2         4         5     9        0.000000        1.372142         3    ;  uncertainty k = 0.281103
         1         2         4         5     9      180.000000        1.900455         4    ;  uncertainty k = 0.233720
         1         2         4         6     9        0.000000       -0.079135         1    ;  uncertainty k = 0.399653
         1         2         4         6     9      180.000000       14.131049         2    ;  uncertainty k = 0.252331
         1         2         4         6     9        0.000000       -0.316275         3    ;  uncertainty k = 0.428866
         1         2         4         6     9      180.000000        0.932614         4    ;  uncertainty k = 0.236789
         1         8         7         6     9        0.000000       -0.292390         1    ;  uncertainty k = 0.208831
         1         8         7         6     9      180.000000       11.004860         2    ;  uncertainty k = 0.491269
         1         8         7         6     9        0.000000       -0.058657         3    ;  uncertainty k = 0.115215
         1         8         7         6     9      180.000000        1.141226         4    ;  uncertainty k = 0.351971
         1         8         7        15     9        0.000000        0.378047         1    ;  uncertainty k = 0.227702
         1         8         7        15     9      180.000000        8.900037         2    ;  uncertainty k = 0.417874
         1         8         7        15     9        0.000000        1.657051         3    ;  uncertainty k = 0.175922
         1         8         7        15     9      180.000000        1.928943         4    ;  uncertainty k = 0.380149
         1        21        29        30     9        0.000000       -0.056611         1    ;  uncertainty k = 0.282409
         1        21        29        30     9      180.000000        7.476615         2    ;  uncertainty k = 0.174336
         1        21        29        30     9        0.000000        0.845846         3    ;  uncertainty k = 0.185047
         1        21        29        30     9      180.000000        1.202806         4    ;  uncertainty k = 0.147527
         1        21        29        31     9        0.000000        0.047724         1    ;  uncertainty k = 0.193423
         1        21        29        31     9      180.000000        8.993648         2    ;  uncertainty k = 0.355275
         1        21        29        31     9        0.000000        1.208142         3    ;  uncertainty k = 0.281129
         1        21        29        31     9      180.000000        1.761194         4    ;  uncertainty k = 0.050761
         1        21        35        34     9        0.000000        0.161371         1    ;  uncertainty k = 0.284688
         1        21        35        34     9      180.000000        9.611865         2    ;  uncertainty k = 0.282941
         1        21        35        34     9        0.000000        1.032081         3    ;  uncertainty k = 0.283407
         1        21        35        34     9      180.000000        1.691129         4    ;  uncertainty k = 0.202714
         1        21        35        36     9        0.000000       -0.462575         1    ;  uncertainty k = 0.821889
         1        21        35        36     9      180.000000        6.235986         2    ;  uncertainty k = 0.819044
         1        21        35        36     9        0.000000        0.825593         3    ;  uncertainty k = 0.197525
         1        21        35        36     9      180.000000        1.096613         4    ;  uncertainty k = 0.212781
         2         1         8         7     9        0.000000        0.154563         1    ;  uncertainty k = 0.475129
         2         1         8         7     9      180.000000       10.559118         2    ;  uncertainty k = 0.365235
         2         1         8         7     9        0.000000       -0.197019         3    ;  uncertainty k = 0.365429
         2         1         8         7     9      180.000000        1.140587         4    ;  uncertainty k = 0.399559
         2         1         8         9     9        0.000000        0.109083         1    ;  uncertainty k = 0.306439
         2         1         8         9     9      180.000000        7.357225         2    ;  uncertainty k = 0.638483
         2         1         8         9     9        0.000000        1.351816         3    ;  uncertainty k = 0.205490
         2         1         8         9     9      180.000000        1.665187         4    ;  uncertainty k = 0.255576
         2         1        21        29     9        0.000000       -0.424810         1    ;  uncertainty k = 0.464745
         2         1        21        29     9      180.000000        3.742306         2    ;  uncertainty k = 0.146028
         2         1        21        29     9        0.000000        0.339432         3    ;  uncertainty k = 0.146777
         2         1        21        29     9      180.000000       -0.081273         4    ;  uncertainty k = 0.028387
         2         1        21        35     9        0.000000       -0.318540         1    ;  uncertainty k = 0.760557
         2         1        21        35     9      180.000000        3.387078         2    ;  uncertainty k = 0.107591
         2         1        21        35     9        0.000000        0.374827         3    ;  uncertainty k = 0.156763
         2         1        21        35     9      180.000000       -0.147635         4    ;  uncertainty k = 0.032517
         2         4         6         7     9        0.000000        0.211431         1    ;  uncertainty k = 0.423245
         2         4         6         7     9      180.000000        7.763002         2    ;  uncertainty k = 0.555228
         2         4         6         7     9        0.000000        0.203862         3    ;  uncertainty k = 0.544956
         2         4         6         7     9      180.000000        1.300092         4    ;  uncertainty k = 0.239010
         2         4         6        10     9        0.000000        0.361330         1    ;  uncertainty k = 0.218715
         2         4         6        10     9      180.000000       11.444653         2    ;  uncertainty k = 0.286512
         2         4         6        10     9        0.000000        1.318811         3    ;  uncertainty k = 0.218660
         2         4         6        10     9      180.000000        1.540108         4    ;  uncertainty k = 0.135774
         3         2         1         8     9        0.000000        0.143110         1    ;  uncertainty k = 0.209883
         3         2         1         8     9      180.000000        6.723248         2    ;  uncertainty k = 0.481430
         3         2         1         8     9        0.000000        1.338276         3    ;  uncertainty k = 0.259128
         3         2         1         8     9      180.000000        1.547253         4    ;  uncertainty k = 0.264678
         3         2         1        21     9        0.000000       -0.276196         1    ;  uncertainty k = 0.366094
         3         2         1        21     9      180.000000        7.132596         2    ;  uncertainty k = 0.381784
         3         2         1        21     9        0.000000        0.870565         3    ;  uncertainty k = 0.155966
         3         2         1        21     9      180.000000        1.172777         4    ;  uncertainty k = 0.218185
         3         2         4         5     9        0.000000        0.043097         1    ;  uncertainty k = 0.388506
         3         2         4         5     9      180.000000        8.020316         2    ;  uncertainty k = 0.286960
         3         2         4         5     9        0.000000       -0.395294         3    ;  uncertainty k = 0.352627
         3         2         4         5     9      180.000000        0.202059         4    ;  uncertainty k = 0.135492
         3         2         4         6     9        0.000000        0.298667         1    ;  uncertainty k = 0.254598
         3         2         4         6     9      180.000000        8.799836         2    ;  uncertainty k = 0.420559
         3         2         4         6     9        0.000000        1.331757         3    ;  uncertainty k = 0.305828
         3         2         4         6     9      180.000000        1.726711         4    ;  uncertainty k = 0.213269
         4         2         1         8     9        0.000000        0.029585         1    ;  uncertainty k = 0.260626
         4         2         1         8     9      180.000000       10.598664         2    ;  uncertainty k = 0.289215
         4         2         1         8     9        0.000000       -0.449043         3    ;  uncertainty k = 0.264126
         4         2         1         8     9      180.000000        1.008210         4    ;  uncertainty k = 0.158367
         4         2         1        21     9        0.000000       -0.050768         1    ;  uncertainty k = 0.246519
         4         2         1        21     9      180.000000        8.240461         2    ;  uncertainty k = 0.479097
         4         2         1        21     9        0.000000        1.077481         3    ;  uncertainty k = 0.392293
         4         2         1        21     9      180.000000        1.814101         4    ;  uncertainty k = 0.163207
         4         6         7         8     9        0.000000       -0.032783         1    ;  uncertainty k = 0.188299
         4         6         7         8     9      180.000000        6.927903         2    ;  uncertainty k = 0.470102
         4         6         7         8     9        0.000000        0.361195         3    ;  uncertainty k = 0.286900
         4         6         7         8     9      180.000000        1.355400         4    ;  uncertainty k = 0.250869
         4         6         7        15     9        0.000000        0.348935         1    ;  uncertainty k = 0.173791
         4         6         7        15     9      180.000000        5.007786         2    ;  uncertainty k = 0.411251
         4         6         7        15     9        0.000000        1.468368         3    ;  uncertainty k = 0.261774
         4         6         7        15     9      180.000000        1.669236         4    ;  uncertainty k = 0.209865
         4         6        10        11     9        0.000000       -0.006126         1    ;  uncertainty k = 0.860183
         4         6        10        11     9      180.000000        1.463692         2    ;  uncertainty k = 0.468672
         4         6        10        11     9        0.000000        0.942767         3    ;  uncertainty k = 0.141382
         4         6        10        11     9      180.000000        0.269400         4    ;  uncertainty k = 0.169428
         5         4         6         7     9        0.000000        0.319226         1    ;  uncertainty k = 0.558349
         5         4         6         7     9      180.000000        5.772399         2    ;  uncertainty k = 0.428881
         5         4         6         7     9        0.000000        1.337220         3    ;  uncertainty k = 0.195636
         5         4         6         7     9      180.000000        1.401976         4    ;  uncertainty k = 0.132735
         5         4         6        10     9        0.000000       -0.143362         1    ;  uncertainty k = 0.595170
         5         4         6        10     9      180.000000        8.971333         2    ;  uncertainty k = 0.422660
         5         4         6        10     9        0.000000        0.767158         3    ;  uncertainty k = 0.278987
         5         4         6        10     9      180.000000        1.249859         4    ;  uncertainty k = 0.280971
         6         7         8         9     9        0.000000        0.259477         1    ;  uncertainty k = 0.448671
         6         7         8         9     9      180.000000        7.894168         2    ;  uncertainty k = 0.719063
         6         7         8         9     9        0.000000        1.268543         3    ;  uncertainty k = 0.216024
         6         7         8         9     9      180.000000        1.655629         4    ;  uncertainty k = 0.157247
         6         7        15        12     9        0.000000       -0.553827         1    ;  uncertainty k = 1.466850
         6         7        15        12     9      180.000000        0.634513         2    ;  uncertainty k = 0.585096
         6         7        15        12     9        0.000000        0.297861         3    ;  uncertainty k = 0.330860
         6         7        15        12     9      180.000000        0.274107         4    ;  uncertainty k = 0.208342
         6         7        15        16     9        0.000000        2.102711         1    ;  uncertainty k = 2.528116
         6         7        15        16     9      180.000000        0.546699         2    ;  uncertainty k = 1.018066
         6         7        15        16     9        0.000000        0.457521         3    ;  uncertainty k = 0.289759
         6         7        15        16     9      180.000000        0.336866         4    ;  uncertainty k = 0.183129
         6         7        15        19     9        0.000000       -1.847814         1    ;  uncertainty k = 1.697255
         6         7        15        19     9      180.000000        1.430867         2    ;  uncertainty k = 0.383929
         6         7        15        19     9        0.000000        0.601224         3    ;  uncertainty k = 0.476577
         6         7        15        19     9      180.000000        0.025936         4    ;  uncertainty k = 0.174309
         6        10        11        12     9        0.000000        4.367103         1    ;  uncertainty k = 0.568223
         6        10        11        12     9      180.000000       -1.721484         2    ;  uncertainty k = 1.273232
         6        10        11        12     9        0.000000       -0.456864         3    ;  uncertainty k = 0.472174
         6        10        11        12     9      180.000000        0.328459         4    ;  uncertainty k = 0.236646
         6        10        11        38     9        0.000000       -1.366437         1    ;  uncertainty k = 0.443902
         6        10        11        38     9      180.000000        1.117988         2    ;  uncertainty k = 0.670204
         6        10        11        38     9        0.000000        0.420512         3    ;  uncertainty k = 0.232671
         6        10        11        38     9      180.000000        0.169724         4    ;  uncertainty k = 0.171412
         6        10        11        42     9        0.000000       -1.366437         1    ;  uncertainty k = 0.443902
         6        10        11        42     9      180.000000        1.117988         2    ;  uncertainty k = 0.670204
         6        10        11        42     9        0.000000        0.420512         3    ;  uncertainty k = 0.232671
         6        10        11        42     9      180.000000        0.169724         4    ;  uncertainty k = 0.171412
         7         6        10        11     9        0.000000        4.306085         1    ;  uncertainty k = 1.768454
         7         6        10        11     9      180.000000       -1.360043         2    ;  uncertainty k = 1.430515
         7         6        10        11     9        0.000000       -0.393905         3    ;  uncertainty k = 0.710259
         7         6        10        11     9      180.000000        0.655625         4    ;  uncertainty k = 0.252123
         7         8         1        21     9        0.000000        0.395916         1    ;  uncertainty k = 0.530873
         7         8         1        21     9      180.000000        8.899782         2    ;  uncertainty k = 0.374265
         7         8         1        21     9        0.000000        1.294910         3    ;  uncertainty k = 0.291533
         7         8         1        21     9      180.000000        1.664342         4    ;  uncertainty k = 0.141838
         7        15        12        11     9        0.000000        1.962873         1    ;  uncertainty k = 1.227301
         7        15        12        11     9      180.000000       -1.078194         2    ;  uncertainty k = 0.502447
         7        15        12        11     9        0.000000        0.369332         3    ;  uncertainty k = 0.176636
         7        15        12        11     9      180.000000       -0.278407         4    ;  uncertainty k = 0.249392
         7        15        12        13     9        0.000000       -0.179115         1    ;  uncertainty k = 0.140621
         7        15        12        13     9      180.000000        0.089626         2    ;  uncertainty k = 0.458905
         7        15        12        13     9        0.000000        0.456477         3    ;  uncertainty k = 0.237033
         7        15        12        13     9      180.000000       -0.095026         4    ;  uncertainty k = 0.141404
         7        15        12        14     9        0.000000       -0.179115         1    ;  uncertainty k = 0.140621
         7        15        12        14     9      180.000000        0.089626         2    ;  uncertainty k = 0.458905
         7        15        12        14     9        0.000000        0.456477         3    ;  uncertainty k = 0.237033
         7        15        12        14     9      180.000000       -0.095026         4    ;  uncertainty k = 0.141404
         7        15        16        17     9        0.000000       -2.280414         1    ;  uncertainty k = 2.717069
         7        15        16        17     9      180.000000        2.456410         2    ;  uncertainty k = 1.222701
         7        15        16        17     9        0.000000        1.453247         3    ;  uncertainty k = 0.188385
         7        15        16        17     9      180.000000        0.681716         4    ;  uncertainty k = 0.441731
         7        15        16        37     9        0.000000       -0.746001         1    ;  uncertainty k = 2.339485
         7        15        16        37     9      180.000000        3.144072         2    ;  uncertainty k = 0.500306
         7        15        16        37     9        0.000000        0.221997         3    ;  uncertainty k = 0.280086
         7        15        16        37     9      180.000000        0.150864         4    ;  uncertainty k = 0.276471
         7        15        19        18     9        0.000000        0.863485         1    ;  uncertainty k = 1.247541
         7        15        19        18     9      180.000000        0.544771         2    ;  uncertainty k = 0.542404
         7        15        19        18     9        0.000000        0.864493         3    ;  uncertainty k = 0.370882
         7        15        19        18     9      180.000000        0.387104         4    ;  uncertainty k = 0.143944
         7        15        19        20     9        0.000000        0.953248         1    ;  uncertainty k = 2.750545
         7        15        19        20     9      180.000000       -1.060847         2    ;  uncertainty k = 1.247199
         7        15        19        20     9        0.000000        0.527755         3    ;  uncertainty k = 0.498974
         7        15        19        20     9      180.000000       -0.043717         4    ;  uncertainty k = 0.110691
         8         1        21        29     9        0.000000       -0.403065         1    ;  uncertainty k = 0.452401
         8         1        21        29     9      180.000000        3.929075         2    ;  uncertainty k = 0.311572
         8         1        21        29     9        0.000000        0.281872         3    ;  uncertainty k = 0.201790
         8         1        21        29     9      180.000000       -0.013676         4    ;  uncertainty k = 0.092007
         8         1        21        35     9        0.000000       -0.536615         1    ;  uncertainty k = 0.631922
         8         1        21        35     9      180.000000        3.533136         2    ;  uncertainty k = 0.140724
         8         1        21        35     9        0.000000        0.388413         3    ;  uncertainty k = 0.233756
         8         1        21        35     9      180.000000       -0.100680         4    ;  uncertainty k = 0.074650
         8         7         6        10     9        0.000000        0.511013         1    ;  uncertainty k = 0.326397
         8         7         6        10     9      180.000000        8.132895         2    ;  uncertainty k = 0.230001
         8         7         6        10     9        0.000000        1.512052         3    ;  uncertainty k = 0.280651
         8         7         6        10     9      180.000000        1.559240         4    ;  uncertainty k = 0.196063
         8         7        15        12     9        0.000000       -0.670232         1    ;  uncertainty k = 1.143316
         8         7        15        12     9      180.000000        0.995758         2    ;  uncertainty k = 0.405868
         8         7        15        12     9        0.000000       -0.287435         3    ;  uncertainty k = 0.380723
         8         7        15        12     9      180.000000        0.164078         4    ;  uncertainty k = 0.187370
         8         7        15        16     9        0.000000        0.883988         1    ;  uncertainty k = 1.976202
         8         7        15        16     9      180.000000        0.164829         2    ;  uncertainty k = 0.594298
         8         7        15        16     9        0.000000        0.125947         3    ;  uncertainty k = 0.272429
         8         7        15        16     9      180.000000        0.319895         4    ;  uncertainty k = 0.132196
         8         7        15        19     9        0.000000       -0.399884         1    ;  uncertainty k = 0.853357
         8         7        15        19     9      180.000000        1.968708         2    ;  uncertainty k = 0.392592
         8         7        15        19     9        0.000000       -0.052513         3    ;  uncertainty k = 0.364597
         8         7        15        19     9      180.000000        0.089645         4    ;  uncertainty k = 0.253695
         9         8         1        21     9        0.000000       -0.172177         1    ;  uncertainty k = 0.256360
         9         8         1        21     9      180.000000        7.423086         2    ;  uncertainty k = 0.332673
         9         8         1        21     9        0.000000        0.891746         3    ;  uncertainty k = 0.159933
         9         8         1        21     9      180.000000        1.320046         4    ;  uncertainty k = 0.148703
         9         8         7        15     9        0.000000       -0.370239         1    ;  uncertainty k = 0.433008
         9         8         7        15     9      180.000000        6.786117         2    ;  uncertainty k = 0.310123
         9         8         7        15     9        0.000000        0.969577         3    ;  uncertainty k = 0.299802
         9         8         7        15     9      180.000000        1.272312         4    ;  uncertainty k = 0.231144
        10         6         7        15     9        0.000000        0.498340         1    ;  uncertainty k = 0.988077
        10         6         7        15     9      180.000000        5.670085         2    ;  uncertainty k = 0.712561
        10         6         7        15     9        0.000000        1.748936         3    ;  uncertainty k = 0.456836
        10         6         7        15     9      180.000000        1.062497         4    ;  uncertainty k = 0.416588
        10        11        12        13     9        0.000000       -1.286357         1    ;  uncertainty k = 0.418982
        10        11        12        13     9      180.000000       -0.843338         2    ;  uncertainty k = 0.564486
        10        11        12        13     9        0.000000        0.398057         3    ;  uncertainty k = 0.233267
        10        11        12        13     9      180.000000       -0.189590         4    ;  uncertainty k = 0.165011
        10        11        12        14     9        0.000000       -1.286357         1    ;  uncertainty k = 0.418982
        10        11        12        14     9      180.000000       -0.843338         2    ;  uncertainty k = 0.564486
        10        11        12        14     9        0.000000        0.398057         3    ;  uncertainty k = 0.233267
        10        11        12        14     9      180.000000       -0.189590         4    ;  uncertainty k = 0.165011
        10        11        12        15     9        0.000000        7.476955         1    ;  uncertainty k = 0.712372
        10        11        12        15     9      180.000000       -4.264126         2    ;  uncertainty k = 1.996417
        10        11        12        15     9        0.000000       -0.268865         3    ;  uncertainty k = 0.560592
        10        11        12        15     9      180.000000       -0.018620         4    ;  uncertainty k = 0.403705
        10        11        38        39     9        0.000000       -0.556685         1    ;  uncertainty k = 0.641512
        10        11        38        39     9      180.000000       -2.127823         2    ;  uncertainty k = 0.599046
        10        11        38        39     9        0.000000        0.863808         3    ;  uncertainty k = 0.110663
        10        11        38        39     9      180.000000       -0.195070         4    ;  uncertainty k = 0.150407
        10        11        38        40     9        0.000000       -0.556685         1    ;  uncertainty k = 0.641512
        10        11        38        40     9      180.000000       -2.127823         2    ;  uncertainty k = 0.599046
        10        11        38        40     9        0.000000        0.863808         3    ;  uncertainty k = 0.110663
        10        11        38        40     9      180.000000       -0.195070         4    ;  uncertainty k = 0.150407
        10        11        38        41     9        0.000000       -0.556685         1    ;  uncertainty k = 0.641512
        10        11        38        41     9      180.000000       -2.127823         2    ;  uncertainty k = 0.599046
        10        11        38        41     9        0.000000        0.863808         3    ;  uncertainty k = 0.110663
        10        11        38        41     9      180.000000       -0.195070         4    ;  uncertainty k = 0.150407
        10        11        42        43     9        0.000000       -0.556685         1    ;  uncertainty k = 0.641512
        10        11        42        43     9      180.000000       -2.127823         2    ;  uncertainty k = 0.599046
        10        11        42        43     9        0.000000        0.863808         3    ;  uncertainty k = 0.110663
        10        11        42        43     9      180.000000       -0.195070         4    ;  uncertainty k = 0.150407
        10        11        42        44     9        0.000000       -0.556685         1    ;  uncertainty k = 0.641512
        10        11        42        44     9      180.000000       -2.127823         2    ;  uncertainty k = 0.599046
        10        11        42        44     9        0.000000        0.863808         3    ;  uncertainty k = 0.110663
        10        11        42        44     9      180.000000       -0.195070         4    ;  uncertainty k = 0.150407
        10        11        42        45     9        0.000000       -0.556685         1    ;  uncertainty k = 0.641512
        10        11        42        45     9      180.000000       -2.127823         2    ;  uncertainty k = 0.599046
        10        11        42        45     9        0.000000        0.863808         3    ;  uncertainty k = 0.110663
        10        11        42        45     9      180.000000       -0.195070         4    ;  uncertainty k = 0.150407
        11        12        15        16     9        0.000000       -1.228978         1    ;  uncertainty k = 1.347491
        11        12        15        16     9      180.000000       -0.515847         2    ;  uncertainty k = 0.500826
        11        12        15        16     9        0.000000        0.433214         3    ;  uncertainty k = 0.247206
        11        12        15        16     9      180.000000       -0.080465         4    ;  uncertainty k = 0.226810
        11        12        15        19     9        0.000000       -2.978697         1    ;  uncertainty k = 1.009148
        11        12        15        19     9      180.000000       -1.349811         2    ;  uncertainty k = 1.012802
        11        12        15        19     9        0.000000        1.198772         3    ;  uncertainty k = 0.505781
        11        12        15        19     9      180.000000        0.002053         4    ;  uncertainty k = 0.225805
        12        11        38        39     9        0.000000       -0.810618         1    ;  uncertainty k = 0.476463
        12        11        38        39     9      180.000000       -0.740441         2    ;  uncertainty k = 0.208398
        12        11        38        39     9        0.000000        0.585176         3    ;  uncertainty k = 0.093112
        12        11        38        39     9      180.000000       -0.179618         4    ;  uncertainty k = 0.029902
        12        11        38        40     9        0.000000       -0.810618         1    ;  uncertainty k = 0.476463
        12        11        38        40     9      180.000000       -0.740441         2    ;  uncertainty k = 0.208398
        12        11        38        40     9        0.000000        0.585176         3    ;  uncertainty k = 0.093112
        12        11        38        40     9      180.000000       -0.179618         4    ;  uncertainty k = 0.029902
        12        11        38        41     9        0.000000       -0.810618         1    ;  uncertainty k = 0.476463
        12        11        38        41     9      180.000000       -0.740441         2    ;  uncertainty k = 0.208398
        12        11        38        41     9        0.000000        0.585176         3    ;  uncertainty k = 0.093112
        12        11        38        41     9      180.000000       -0.179618         4    ;  uncertainty k = 0.029902
        12        11        42        43     9        0.000000       -0.810618         1    ;  uncertainty k = 0.476463
        12        11        42        43     9      180.000000       -0.740441         2    ;  uncertainty k = 0.208398
        12        11        42        43     9        0.000000        0.585176         3    ;  uncertainty k = 0.093112
        12        11        42        43     9      180.000000       -0.179618         4    ;  uncertainty k = 0.029902
        12        11        42        44     9        0.000000       -0.810618         1    ;  uncertainty k = 0.476463
        12        11        42        44     9      180.000000       -0.740441         2    ;  uncertainty k = 0.208398
        12        11        42        44     9        0.000000        0.585176         3    ;  uncertainty k = 0.093112
        12        11        42        44     9      180.000000       -0.179618         4    ;  uncertainty k = 0.029902
        12        11        42        45     9        0.000000       -0.810618         1    ;  uncertainty k = 0.476463
        12        11        42        45     9      180.000000       -0.740441         2    ;  uncertainty k = 0.208398
        12        11        42        45     9        0.000000        0.585176         3    ;  uncertainty k = 0.093112
        12        11        42        45     9      180.000000       -0.179618         4    ;  uncertainty k = 0.029902
        12        15        16        17     9        0.000000       -3.062352         1    ;  uncertainty k = 1.276839
        12        15        16        17     9      180.000000        2.894127         2    ;  uncertainty k = 0.258588
        12        15        16        17     9        0.000000        0.860445         3    ;  uncertainty k = 0.091746
        12        15        16        17     9      180.000000        0.587117         4    ;  uncertainty k = 0.338989
        12        15        16        37     9        0.000000       -0.574292         1    ;  uncertainty k = 2.046094
        12        15        16        37     9      180.000000        3.928919         2    ;  uncertainty k = 1.075276
        12        15        16        37     9        0.000000        0.161227         3    ;  uncertainty k = 0.381109
        12        15        16        37     9      180.000000        0.057219         4    ;  uncertainty k = 0.338212
        12        15        19        18     9        0.000000       -0.720185         1    ;  uncertainty k = 0.363424
        12        15        19        18     9      180.000000        1.466373         2    ;  uncertainty k = 0.671881
        12        15        19        18     9        0.000000        0.362475         3    ;  uncertainty k = 0.242092
        12        15        19        18     9      180.000000        0.276221         4    ;  uncertainty k = 0.143829
        12        15        19        20     9        0.000000        1.014477         1    ;  uncertainty k = 3.207549
        12        15        19        20     9      180.000000       -0.447187         2    ;  uncertainty k = 0.880594
        12        15        19        20     9        0.000000        0.406773         3    ;  uncertainty k = 0.479851
        12        15        19        20     9      180.000000        0.075628         4    ;  uncertainty k = 0.078933
        13        12        11        38     9        0.000000       -0.868529         1    ;  uncertainty k = 0.359708
        13        12        11        38     9      180.000000        0.339049         2    ;  uncertainty k = 0.271426
        13        12        11        38     9        0.000000        0.030221         3    ;  uncertainty k = 0.169820
        13        12        11        38     9      180.000000       -0.198172         4    ;  uncertainty k = 0.102797
        13        12        11        42     9        0.000000       -0.868529         1    ;  uncertainty k = 0.359708
        13        12        11        42     9      180.000000        0.339049         2    ;  uncertainty k = 0.271426
        13        12        11        42     9        0.000000        0.030221         3    ;  uncertainty k = 0.169820
        13        12        11        42     9      180.000000       -0.198172         4    ;  uncertainty k = 0.102797
        13        12        15        16     9        0.000000        0.636692         1    ;  uncertainty k = 0.443881
        13        12        15        16     9      180.000000       -1.082831         2    ;  uncertainty k = 0.432291
        13        12        15        16     9        0.000000        0.083911         3    ;  uncertainty k = 0.203429
        13        12        15        16     9      180.000000       -0.053905         4    ;  uncertainty k = 0.095175
        13        12        15        19     9        0.000000       -1.014378         1    ;  uncertainty k = 0.666770
        13        12        15        19     9      180.000000       -0.206347         2    ;  uncertainty k = 0.431023
        13        12        15        19     9        0.000000        0.529827         3    ;  uncertainty k = 0.228576
        13        12        15        19     9      180.000000       -0.286824         4    ;  uncertainty k = 0.129461
        14        12        11        38     9        0.000000       -0.868529         1    ;  uncertainty k = 0.359708
        14        12        11        38     9      180.000000        0.339049         2    ;  uncertainty k = 0.271426
        14        12        11        38     9        0.000000        0.030221         3    ;  uncertainty k = 0.169820
        14        12        11        38     9      180.000000       -0.198172         4    ;  uncertainty k = 0.102797
        14        12        11        42     9        0.000000       -0.868529         1    ;  uncertainty k = 0.359708
        14        12        11        42     9      180.000000        0.339049         2    ;  uncertainty k = 0.271426
        14        12        11        42     9        0.000000        0.030221         3    ;  uncertainty k = 0.169820
        14        12        11        42     9      180.000000       -0.198172         4    ;  uncertainty k = 0.102797
        14        12        15        16     9        0.000000        0.636692         1    ;  uncertainty k = 0.443881
        14        12        15        16     9      180.000000       -1.082831         2    ;  uncertainty k = 0.432291
        14        12        15        16     9        0.000000        0.083911         3    ;  uncertainty k = 0.203429
        14        12        15        16     9      180.000000       -0.053905         4    ;  uncertainty k = 0.095175
        14        12        15        19     9        0.000000       -1.014378         1    ;  uncertainty k = 0.666770
        14        12        15        19     9      180.000000       -0.206347         2    ;  uncertainty k = 0.431023
        14        12        15        19     9        0.000000        0.529827         3    ;  uncertainty k = 0.228576
        14        12        15        19     9      180.000000       -0.286824         4    ;  uncertainty k = 0.129461
        15        12        11        38     9        0.000000       -0.394043         1    ;  uncertainty k = 0.952250
        15        12        11        38     9      180.000000       -0.298782         2    ;  uncertainty k = 0.210060
        15        12        11        38     9        0.000000        0.102279         3    ;  uncertainty k = 0.252570
        15        12        11        38     9      180.000000       -0.158350         4    ;  uncertainty k = 0.062640
        15        12        11        42     9        0.000000       -0.394043         1    ;  uncertainty k = 0.952250
        15        12        11        42     9      180.000000       -0.298782         2    ;  uncertainty k = 0.210060
        15        12        11        42     9        0.000000        0.102279         3    ;  uncertainty k = 0.252570
        15        12        11        42     9      180.000000       -0.158350         4    ;  uncertainty k = 0.062640
        15        16        17        18     9        0.000000        3.190561         1    ;  uncertainty k = 2.129280
        15        16        17        18     9      180.000000        4.165517         2    ;  uncertainty k = 2.103257
        15        16        17        18     9        0.000000       -0.163634         3    ;  uncertainty k = 0.825879
        15        16        17        18     9      180.000000        0.629686         4    ;  uncertainty k = 0.355315
        15        16        17        22     9        0.000000        4.948397         1    ;  uncertainty k = 2.742747
        15        16        17        22     9      180.000000        3.665594         2    ;  uncertainty k = 2.655463
        15        16        17        22     9        0.000000        1.132039         3    ;  uncertainty k = 0.860258
        15        16        17        22     9      180.000000        0.328976         4    ;  uncertainty k = 0.593115
        15        19        18        17     9        0.000000        1.152349         1    ;  uncertainty k = 2.624977
        15        19        18        17     9      180.000000       15.352878         2    ;  uncertainty k = 0.482589
        15        19        18        17     9        0.000000       -0.706328         3    ;  uncertainty k = 1.011989
        15        19        18        17     9      180.000000       -0.606107         4    ;  uncertainty k = 0.206718
        15        19        18        26     9        0.000000        3.692759         1    ;  uncertainty k = 0.866356
        15        19        18        26     9      180.000000       11.333780         2    ;  uncertainty k = 0.611404
        15        19        18        26     9        0.000000        0.314850         3    ;  uncertainty k = 0.239643
        15        19        18        26     9      180.000000       -0.482788         4    ;  uncertainty k = 0.513934
        16        15        19        18     9        0.000000        1.075899         1    ;  uncertainty k = 0.686753
        16        15        19        18     9      180.000000        2.337056         2    ;  uncertainty k = 0.668402
        16        15        19        18     9        0.000000        0.174345         3    ;  uncertainty k = 0.624028
        16        15        19        18     9      180.000000        0.491041         4    ;  uncertainty k = 0.337525
        16        15        19        20     9        0.000000        1.870130         1    ;  uncertainty k = 2.124003
        16        15        19        20     9      180.000000       -0.788361         2    ;  uncertainty k = 0.765206
        16        15        19        20     9        0.000000        0.063928         3    ;  uncertainty k = 0.474210
        16        15        19        20     9      180.000000        0.018852         4    ;  uncertainty k = 0.243518
        16        17        18        19     9        0.000000       -0.598871         1    ;  uncertainty k = 1.517512
        16        17        18        19     9      180.000000        9.023777         2    ;  uncertainty k = 0.890262
        16        17        18        19     9        0.000000       -1.321226         3    ;  uncertainty k = 1.261849
        16        17        18        19     9      180.000000       -0.043685         4    ;  uncertainty k = 0.510427
        16        17        18        26     9        0.000000       -0.742539         1    ;  uncertainty k = 0.884320
        16        17        18        26     9      180.000000        6.821150         2    ;  uncertainty k = 1.300514
        16        17        18        26     9        0.000000        0.216631         3    ;  uncertainty k = 0.558836
        16        17        18        26     9      180.000000       -0.098970         4    ;  uncertainty k = 0.493923
        16        17        22        23     9        0.000000        0.297431         1    ;  uncertainty k = 0.338022
        16        17        22        23     9      180.000000        0.087168         2    ;  uncertainty k = 0.381934
        16        17        22        23     9        0.000000        0.347193         3    ;  uncertainty k = 0.232215
        16        17        22        23     9      180.000000        0.291096         4    ;  uncertainty k = 0.074538
        16        17        22        24     9        0.000000        0.297431         1    ;  uncertainty k = 0.338022
        16        17        22        24     9      180.000000        0.087168         2    ;  uncertainty k = 0.381934
        16        17        22        24     9        0.000000        0.347193         3    ;  uncertainty k = 0.232215
        16        17        22        24     9      180.000000        0.291096         4    ;  uncertainty k = 0.074538
        16        17        22        25     9        0.000000        0.297431         1    ;  uncertainty k = 0.338022
        16        17        22        25     9      180.000000        0.087168         2    ;  uncertainty k = 0.381934
        16        17        22        25     9        0.000000        0.347193         3    ;  uncertainty k = 0.232215
        16        17        22        25     9      180.000000        0.291096         4    ;  uncertainty k = 0.074538
        17        16        15        19     9        0.000000       -0.734672         1    ;  uncertainty k = 2.407400
        17        16        15        19     9      180.000000        6.965369         2    ;  uncertainty k = 1.234531
        17        16        15        19     9        0.000000        0.624658         3    ;  uncertainty k = 0.577006
        17        16        15        19     9      180.000000        0.290059         4    ;  uncertainty k = 0.846479
        17        18        19        20     9        0.000000        4.051322         1    ;  uncertainty k = 3.391115
        17        18        19        20     9      180.000000       10.697180         2    ;  uncertainty k = 0.526601
        17        18        19        20     9        0.000000        1.093668         3    ;  uncertainty k = 0.752546
        17        18        19        20     9      180.000000       -0.389374         4    ;  uncertainty k = 0.265720
        17        18        26        27     9        0.000000        8.080941         1    ;  uncertainty k = 2.061712
        17        18        26        27     9      180.000000        9.353073         2    ;  uncertainty k = 0.455751
        17        18        26        27     9        0.000000        0.960301         3    ;  uncertainty k = 0.478476
        17        18        26        27     9      180.000000       -0.922267         4    ;  uncertainty k = 0.215681
        17        18        26        28     9        0.000000        8.080941         1    ;  uncertainty k = 2.061712
        17        18        26        28     9      180.000000        9.353073         2    ;  uncertainty k = 0.455751
        17        18        26        28     9        0.000000        0.960301         3    ;  uncertainty k = 0.478476
        17        18        26        28     9      180.000000       -0.922267         4    ;  uncertainty k = 0.215681
        18        17        16        37     9        0.000000       -0.225774         1    ;  uncertainty k = 3.237560
        18        17        16        37     9      180.000000        7.660703         2    ;  uncertainty k = 0.931236
        18        17        16        37     9        0.000000        0.373526         3    ;  uncertainty k = 0.816132
        18        17        16        37     9      180.000000        0.053274         4    ;  uncertainty k = 0.298389
        18        17        22        23     9        0.000000       -0.260671         1    ;  uncertainty k = 0.510831
        18        17        22        23     9      180.000000       -1.123799         2    ;  uncertainty k = 0.505443
        18        17        22        23     9        0.000000        0.381297         3    ;  uncertainty k = 0.163929
        18        17        22        23     9      180.000000        0.194836         4    ;  uncertainty k = 0.041789
        18        17        22        24     9        0.000000       -0.260671         1    ;  uncertainty k = 0.510831
        18        17        22        24     9      180.000000       -1.123799         2    ;  uncertainty k = 0.505443
        18        17        22        24     9        0.000000        0.381297         3    ;  uncertainty k = 0.163929
        18        17        22        24     9      180.000000        0.194836         4    ;  uncertainty k = 0.041789
        18        17        22        25     9        0.000000       -0.260671         1    ;  uncertainty k = 0.510831
        18        17        22        25     9      180.000000       -1.123799         2    ;  uncertainty k = 0.505443
        18        17        22        25     9        0.000000        0.381297         3    ;  uncertainty k = 0.163929
        18        17        22        25     9      180.000000        0.194836         4    ;  uncertainty k = 0.041789
        19        15        16        37     9        0.000000        0.024534         1    ;  uncertainty k = 2.213974
        19        15        16        37     9      180.000000        4.149250         2    ;  uncertainty k = 1.312392
        19        15        16        37     9        0.000000        0.407424         3    ;  uncertainty k = 0.206510
        19        15        16        37     9      180.000000        0.443240         4    ;  uncertainty k = 0.158688
        19        18        17        22     9        0.000000       -0.380136         1    ;  uncertainty k = 2.913081
        19        18        17        22     9      180.000000        8.267784         2    ;  uncertainty k = 0.403615
        19        18        17        22     9        0.000000        0.435757         3    ;  uncertainty k = 0.320054
        19        18        17        22     9      180.000000       -0.156996         4    ;  uncertainty k = 0.291188
        19        18        26        27     9        0.000000        6.366443         1    ;  uncertainty k = 1.644722
        19        18        26        27     9      180.000000       10.049531         2    ;  uncertainty k = 0.349760
        19        18        26        27     9        0.000000        1.357511         3    ;  uncertainty k = 0.507490
        19        18        26        27     9      180.000000       -0.656591         4    ;  uncertainty k = 0.287459
        19        18        26        28     9        0.000000        6.366443         1    ;  uncertainty k = 1.644722
        19        18        26        28     9      180.000000       10.049531         2    ;  uncertainty k = 0.349760
        19        18        26        28     9        0.000000        1.357511         3    ;  uncertainty k = 0.507490
        19        18        26        28     9      180.000000       -0.656591         4    ;  uncertainty k = 0.287459
        20        19        18        26     9        0.000000        1.886192         1    ;  uncertainty k = 2.633103
        20        19        18        26     9      180.000000        7.784175         2    ;  uncertainty k = 1.209625
        20        19        18        26     9        0.000000        0.956054         3    ;  uncertainty k = 0.197633
        20        19        18        26     9      180.000000       -0.247909         4    ;  uncertainty k = 0.316191
        21        29        31        32     9        0.000000        0.015454         1    ;  uncertainty k = 0.302546
        21        29        31        32     9      180.000000        9.962172         2    ;  uncertainty k = 0.488293
        21        29        31        32     9        0.000000       -0.191628         3    ;  uncertainty k = 0.254827
        21        29        31        32     9      180.000000        1.136330         4    ;  uncertainty k = 0.277419
        21        29        31        46     9        0.000000       -0.114119         1    ;  uncertainty k = 0.248990
        21        29        31        46     9      180.000000       10.019549         2    ;  uncertainty k = 0.552985
        21        29        31        46     9        0.000000        1.091212         3    ;  uncertainty k = 0.378691
        21        29        31        46     9      180.000000        1.606962         4    ;  uncertainty k = 0.149019
        21        35        34        32     9        0.000000       -0.374107         1    ;  uncertainty k = 0.565720
        21        35        34        32     9      180.000000       14.313706         2    ;  uncertainty k = 0.467031
        21        35        34        32     9        0.000000        1.023251         3    ;  uncertainty k = 0.826414
        21        35        34        32     9      180.000000        1.413935         4    ;  uncertainty k = 0.137103
        22        17        16        37     9        0.000000       -0.743118         1    ;  uncertainty k = 3.324160
        22        17        16        37     9      180.000000        8.127734         2    ;  uncertainty k = 0.445128
        22        17        16        37     9        0.000000        0.693460         3    ;  uncertainty k = 0.571372
        22        17        16        37     9      180.000000        0.151177         4    ;  uncertainty k = 0.263311
        22        17        18        26     9        0.000000       -0.067505         1    ;  uncertainty k = 0.784520
        22        17        18        26     9      180.000000        6.890792         2    ;  uncertainty k = 0.817474
        22        17        18        26     9        0.000000        0.975121         3    ;  uncertainty k = 0.584566
        22        17        18        26     9      180.000000       -0.011356         4    ;  uncertainty k = 0.268200
        29        21        35        34     9        0.000000       -0.315767         1    ;  uncertainty k = 0.251305
        29        21        35        34     9      180.000000       11.878336         2    ;  uncertainty k = 0.411418
        29        21        35        34     9        0.000000       -0.393938         3    ;  uncertainty k = 0.579754
        29        21        35        34     9      180.000000        1.090836         4    ;  uncertainty k = 0.190879
        29        21        35        36     9        0.000000       -0.134773         1    ;  uncertainty k = 0.457444
        29        21        35        36     9      180.000000        5.361930         2    ;  uncertainty k = 0.708729
        29        21        35        36     9        0.000000        1.069796         3    ;  uncertainty k = 0.232359
        29        21        35        36     9      180.000000        1.348737         4    ;  uncertainty k = 0.184571
        29        31        32        33     9        0.000000        0.032167         1    ;  uncertainty k = 0.257575
        29        31        32        33     9      180.000000        4.992182         2    ;  uncertainty k = 0.662779
        29        31        32        33     9        0.000000        1.037227         3    ;  uncertainty k = 0.255074
        29        31        32        33     9      180.000000        1.356134         4    ;  uncertainty k = 0.126534
        29        31        32        34     9        0.000000       -0.230512         1    ;  uncertainty k = 0.257603
        29        31        32        34     9      180.000000       10.925749         2    ;  uncertainty k = 0.548867
        29        31        32        34     9        0.000000       -0.455291         3    ;  uncertainty k = 0.607588
        29        31        32        34     9      180.000000        1.136358         4    ;  uncertainty k = 0.270889
        29        31        46        47     9        0.000000        0.000000         1    ;  uncertainty k = 0.000000
        29        31        46        47     9      180.000000        0.000000         2    ;  uncertainty k = 0.000000
        29        31        46        47     9        0.000000        0.000000         3    ;  uncertainty k = 0.000000
        29        31        46        47     9      180.000000        0.000000         4    ;  uncertainty k = 0.000000
        30        29        21        35     9        0.000000        0.083445         1    ;  uncertainty k = 0.287617
        30        29        21        35     9      180.000000        7.035148         2    ;  uncertainty k = 0.567550
        30        29        21        35     9        0.000000        1.283018         3    ;  uncertainty k = 0.185416
        30        29        21        35     9      180.000000        1.528676         4    ;  uncertainty k = 0.174048
        30        29        31        32     9        0.000000        0.104874         1    ;  uncertainty k = 0.446819
        30        29        31        32     9      180.000000        6.374167         2    ;  uncertainty k = 0.626026
        30        29        31        32     9        0.000000        1.260201         3    ;  uncertainty k = 0.184072
        30        29        31        32     9      180.000000        1.567672         4    ;  uncertainty k = 0.125146
        30        29        31        46     9        0.000000       -0.248301         1    ;  uncertainty k = 0.164173
        30        29        31        46     9      180.000000        8.058070         2    ;  uncertainty k = 0.287859
        30        29        31        46     9        0.000000        0.513298         3    ;  uncertainty k = 0.207992
        30        29        31        46     9      180.000000        1.050409         4    ;  uncertainty k = 0.126668
        31        29        21        35     9        0.000000       -0.135446         1    ;  uncertainty k = 0.196619
        31        29        21        35     9      180.000000       10.919878         2    ;  uncertainty k = 0.247601
        31        29        21        35     9        0.000000       -0.334559         3    ;  uncertainty k = 0.263640
        31        29        21        35     9      180.000000        0.990116         4    ;  uncertainty k = 0.274985
        31        32        34        35     9        0.000000       -0.272762         1    ;  uncertainty k = 0.625584
        31        32        34        35     9      180.000000       15.322575         2    ;  uncertainty k = 0.243036
        31        32        34        35     9        0.000000        1.019196         3    ;  uncertainty k = 0.732855
        31        32        34        35     9      180.000000        1.463404         4    ;  uncertainty k = 0.144284
        31        46        47        48     9        0.000000        0.000000         1    ;  uncertainty k = 0.000000
        31        46        47        48     9      180.000000        0.000000         2    ;  uncertainty k = 0.000000
        31        46        47        48     9        0.000000        0.000000         3    ;  uncertainty k = 0.000000
        31        46        47        48     9      180.000000        0.000000         4    ;  uncertainty k = 0.000000
        32        31        46        47     9        0.000000        0.000000         1    ;  uncertainty k = 0.000000
        32        31        46        47     9      180.000000        0.000000         2    ;  uncertainty k = 0.000000
        32        31        46        47     9        0.000000        0.000000         3    ;  uncertainty k = 0.000000
        32        31        46        47     9      180.000000        0.000000         4    ;  uncertainty k = 0.000000
        32        34        35        36     9        0.000000        0.314170         1    ;  uncertainty k = 0.204798
        32        34        35        36     9      180.000000       14.950193         2    ;  uncertainty k = 0.440638
        32        34        35        36     9        0.000000        2.268865         3    ;  uncertainty k = 0.536468
        32        34        35        36     9      180.000000        1.608328         4    ;  uncertainty k = 0.365293
        33        32        31        46     9        0.000000       -0.214646         1    ;  uncertainty k = 0.574075
        33        32        31        46     9      180.000000        6.822276         2    ;  uncertainty k = 0.631886
        33        32        31        46     9        0.000000        0.503630         3    ;  uncertainty k = 0.157568
        33        32        31        46     9      180.000000        0.922831         4    ;  uncertainty k = 0.193383
        33        32        34        35     9        0.000000        0.320391         1    ;  uncertainty k = 0.101844
        33        32        34        35     9      180.000000       15.061423         2    ;  uncertainty k = 0.447315
        33        32        34        35     9        0.000000        2.241314         3    ;  uncertainty k = 0.431175
        33        32        34        35     9      180.000000        1.593686         4    ;  uncertainty k = 0.405436
        34        32        31        46     9        0.000000        0.193359         1    ;  uncertainty k = 0.351305
        34        32        31        46     9      180.000000        9.451688         2    ;  uncertainty k = 0.151422
        34        32        31        46     9        0.000000        0.873701         3    ;  uncertainty k = 0.459764
        34        32        31        46     9      180.000000        1.433810         4    ;  uncertainty k = 0.199437
        38        11        42        43     9        0.000000       -1.168308         1    ;  uncertainty k = 0.299692
        38        11        42        43     9      180.000000        0.150758         2    ;  uncertainty k = 0.296599
        38        11        42        43     9        0.000000        0.668939         3    ;  uncertainty k = 0.064920
        38        11        42        43     9      180.000000       -0.104414         4    ;  uncertainty k = 0.091599
        38        11        42        44     9        0.000000       -1.168308         1    ;  uncertainty k = 0.299692
        38        11        42        44     9      180.000000        0.150758         2    ;  uncertainty k = 0.296599
        38        11        42        44     9        0.000000        0.668939         3    ;  uncertainty k = 0.064920
        38        11        42        44     9      180.000000       -0.104414         4    ;  uncertainty k = 0.091599
        38        11        42        45     9        0.000000       -1.168308         1    ;  uncertainty k = 0.299692
        38        11        42        45     9      180.000000        0.150758         2    ;  uncertainty k = 0.296599
        38        11        42        45     9        0.000000        0.668939         3    ;  uncertainty k = 0.064920
        38        11        42        45     9      180.000000       -0.104414         4    ;  uncertainty k = 0.091599
        39        38        11        42     9        0.000000       -1.168308         1    ;  uncertainty k = 0.299692
        39        38        11        42     9      180.000000        0.150758         2    ;  uncertainty k = 0.296599
        39        38        11        42     9        0.000000        0.668939         3    ;  uncertainty k = 0.064920
        39        38        11        42     9      180.000000       -0.104414         4    ;  uncertainty k = 0.091599
        40        38        11        42     9        0.000000       -1.168308         1    ;  uncertainty k = 0.299692
        40        38        11        42     9      180.000000        0.150758         2    ;  uncertainty k = 0.296599
        40        38        11        42     9        0.000000        0.668939         3    ;  uncertainty k = 0.064920
        40        38        11        42     9      180.000000       -0.104414         4    ;  uncertainty k = 0.091599
        41        38        11        42     9        0.000000       -1.168308         1    ;  uncertainty k = 0.299692
        41        38        11        42     9      180.000000        0.150758         2    ;  uncertainty k = 0.296599
        41        38        11        42     9        0.000000        0.668939         3    ;  uncertainty k = 0.064920
        41        38        11        42     9      180.000000       -0.104414         4    ;  uncertainty k = 0.091599
        46        47        48        49     9        0.000000        0.000000         1    ;  uncertainty k = 0.000000
        46        47        48        49     9      180.000000        0.000000         2    ;  uncertainty k = 0.000000
        46        47        48        49     9        0.000000        0.000000         3    ;  uncertainty k = 0.000000
        46        47        48        49     9      180.000000        0.000000         4    ;  uncertainty k = 0.000000
        46        47        48        50     9        0.000000        0.000000         1    ;  uncertainty k = 0.000000
        46        47        48        50     9      180.000000        0.000000         2    ;  uncertainty k = 0.000000
        46        47        48        50     9        0.000000        0.000000         3    ;  uncertainty k = 0.000000
        46        47        48        50     9      180.000000        0.000000         4    ;  uncertainty k = 0.000000
        46        47        48        51     9        0.000000        0.000000         1    ;  uncertainty k = 0.000000
        46        47        48        51     9      180.000000        0.000000         2    ;  uncertainty k = 0.000000
        46        47        48        51     9        0.000000        0.000000         3    ;  uncertainty k = 0.000000
        46        47        48        51     9      180.000000        0.000000         4    ;  uncertainty k = 0.000000

[ dihedrals ] ; impropers
;       ai        aj        ak        al funct           phase               k        pn
         1         2         8        21     4      180.000000       13.831803         2    ;  uncertainty k = 0.118166
         1         8        21         2     4      180.000000       13.831803         2    ;  uncertainty k = 0.118166
         1        21         2         8     4      180.000000       13.831803         2    ;  uncertainty k = 0.118166
         2         1         3         4     4      180.000000        4.717283         2    ;  uncertainty k = 0.237075
         2         3         4         1     4      180.000000        4.717283         2    ;  uncertainty k = 0.237075
         2         4         1         3     4      180.000000        4.717283         2    ;  uncertainty k = 0.237075
         4         2         5         6     4      180.000000        1.956942         2    ;  uncertainty k = 0.191439
         4         5         6         2     4      180.000000        1.956942         2    ;  uncertainty k = 0.191439
         4         6         2         5     4      180.000000        1.956942         2    ;  uncertainty k = 0.191439
         6         4         7        10     4      180.000000       22.038012         2    ;  uncertainty k = 0.126561
         6         7        10         4     4      180.000000       22.038012         2    ;  uncertainty k = 0.126561
         6        10         4         7     4      180.000000       22.038012         2    ;  uncertainty k = 0.126561
         7         6         8        15     4      180.000000       11.777618         2    ;  uncertainty k = 0.246468
         7         8        15         6     4      180.000000       11.777618         2    ;  uncertainty k = 0.246468
         7        15         6         8     4      180.000000       11.777618         2    ;  uncertainty k = 0.246468
         8         1         7         9     4      180.000000        4.918961         2    ;  uncertainty k = 0.388654
         8         7         9         1     4      180.000000        4.918961         2    ;  uncertainty k = 0.388654
         8         9         1         7     4      180.000000        4.918961         2    ;  uncertainty k = 0.388654
        16        15        17        37     4      180.000000       50.512062         2    ;  uncertainty k = 0.072585
        16        17        37        15     4      180.000000       50.512062         2    ;  uncertainty k = 0.072585
        16        37        15        17     4      180.000000       50.512062         2    ;  uncertainty k = 0.072585
        17        16        18        22     4      180.000000        2.066646         2    ;  uncertainty k = 0.825300
        17        18        22        16     4      180.000000        2.066646         2    ;  uncertainty k = 0.825300
        17        22        16        18     4      180.000000        2.066646         2    ;  uncertainty k = 0.825300
        18        17        19        26     4      180.000000       30.892449         2    ;  uncertainty k = 0.146917
        18        19        26        17     4      180.000000       30.892449         2    ;  uncertainty k = 0.146917
        18        26        17        19     4      180.000000       30.892449         2    ;  uncertainty k = 0.146917
        21         1        29        35     4      180.000000       13.184875         2    ;  uncertainty k = 0.124672
        21        29        35         1     4      180.000000       13.184875         2    ;  uncertainty k = 0.124672
        21        35         1        29     4      180.000000       13.184875         2    ;  uncertainty k = 0.124672
        26        18        27        28     4      180.000000        0.184047         2    ;  uncertainty k = 0.411542
        26        27        28        18     4      180.000000        0.184047         2    ;  uncertainty k = 0.411542
        26        28        18        27     4      180.000000        0.184047         2    ;  uncertainty k = 0.411542
        29        21        30        31     4      180.000000        5.931077         2    ;  uncertainty k = 0.141428
        29        30        31        21     4      180.000000        5.931077         2    ;  uncertainty k = 0.141428
        29        31        21        30     4      180.000000        5.931077         2    ;  uncertainty k = 0.141428
        31        29        32        46     4      180.000000       14.439626         2    ;  uncertainty k = 0.073712
        31        32        46        29     4      180.000000       14.439626         2    ;  uncertainty k = 0.073712
        31        46        29        32     4      180.000000       14.439626         2    ;  uncertainty k = 0.073712
        32        31        33        34     4      180.000000       13.321212         2    ;  uncertainty k = 0.039650
        32        33        34        31     4      180.000000       13.321212         2    ;  uncertainty k = 0.039650
        32        34        31        33     4      180.000000       13.321212         2    ;  uncertainty k = 0.039650
        35        21        34        36     4      180.000000       13.823148         2    ;  uncertainty k = 0.044792
        35        34        36        21     4      180.000000       13.823148         2    ;  uncertainty k = 0.044792
        35        36        21        34     4      180.000000       13.823148         2    ;  uncertainty k = 0.044792

[ pairs ]
;       ai        aj funct
         1         5     1
         1         6     1
         1        15     1
         1        30     1
         1        31     1
         1        34     1
         1        36     1
         2         7     1
         2         9     1
         2        10     1
         2        29     1
         2        35     1
         3         5     1
         3         6     1
         3         8     1
         3        21     1
         4         8     1
         4        11     1
         4        15     1
         4        21     1
         5         7     1
         5        10     1
         6         9     1
         6        12     1
         6        16     1
         6        19     1
         6        38     1
         6        42     1
         7        11     1
         7        13     1
         7        14     1
         7        17     1
         7        18     1
         7        20     1
         7        21     1
         7        37     1
         8        10     1
         8        12     1
         8        16     1
         8        19     1
         8        29     1
         8        35     1
         9        15     1
         9        21     1
        10        13     1
        10        14     1
        10        15     1
        10        39     1
        10        40     1
        10        41     1
        10        43     1
        10        44     1
        10        45     1
        11        16     1
        11        19     1
        12        17     1
        12        18     1
        12        20     1
        12        37     1
        12        39     1
        12        40     1
        12        41     1
        12        43     1
        12        44     1
        12        45     1
        13        16     1
        13        19     1
        13        38     1
        13        42     1
        14        16     1
        14        19     1
        14        38     1
        14        42     1
        15        22     1
        15        26     1
        15        38     1
        15        42     1
        16        20     1
        16        23     1
        16        24     1
        16        25     1
        16        26     1
        17        20     1
        17        27     1
        17        28     1
        18        23     1
        18        24     1
        18        25     1
        18        37     1
        19        22     1
        19        27     1
        19        28     1
        19        37     1
        20        26     1
        21        32     1
        21        46     1
        22        26     1
        22        37     1
        29        33     1
        29        34     1
        29        36     1
        29        47     1
        30        32     1
        30        35     1
        30        46     1
        31        35     1
        31        48     1
        32        36     1
        32        47     1
        33        35     1
        33        46     1
        34        46     1
        38        43     1
        38        44     1
        38        45     1
        39        42     1
        40        42     1
        41        42     1
        46        49     1
        46        50     1
        46        51     1
