; ITP file created by ByteFF-joint-25, 2026-03-14 15:22:05.797236

[ atomtypes ]
;name           bonded.type        at.num        mass        charge   ptype           sigma         epsilon
 c0bf                                   6      0.0000       0.00000       A     3.31516e-01     4.12887e-01    ;  uncertainty sigma = 0.000011, epsilon = 0.001137
 c1bf                                   6      0.0000       0.00000       A     3.31510e-01     4.13394e-01    ;  uncertainty sigma = 0.000005, epsilon = 0.000663
 h2bf                                   1      0.0000       0.00000       A     2.62563e-01     6.71382e-02    ;  uncertainty sigma = 0.000008, epsilon = 0.000500
 c3bf                                   6      0.0000       0.00000       A     3.31523e-01     4.13778e-01    ;  uncertainty sigma = 0.000003, epsilon = 0.000961
 h4bf                                   1      0.0000       0.00000       A     2.62561e-01     6.68067e-02    ;  uncertainty sigma = 0.000012, epsilon = 0.000527
 c5bf                                   6      0.0000       0.00000       A     3.31562e-01     4.13129e-01    ;  uncertainty sigma = 0.000021, epsilon = 0.000953
 c6bf                                   6      0.0000       0.00000       A     3.31604e-01     4.12991e-01    ;  uncertainty sigma = 0.000053, epsilon = 0.001665
 c7bf                                   6      0.0000       0.00000       A     3.31541e-01     4.13492e-01    ;  uncertainty sigma = 0.000017, epsilon = 0.001418
 h8bf                                   1      0.0000       0.00000       A     2.62555e-01     6.73758e-02    ;  uncertainty sigma = 0.000015, epsilon = 0.000633
 o9bf                                   8      0.0000       0.00000       A     3.15675e-01     3.03348e-01    ;  uncertainty sigma = 0.000037, epsilon = 0.000709
 c10bf                                  6      0.0000       0.00000       A     3.39754e-01     4.50298e-01    ;  uncertainty sigma = 0.000022, epsilon = 0.001818
 c11bf                                  6      0.0000       0.00000       A     3.39729e-01     4.51261e-01    ;  uncertainty sigma = 0.000015, epsilon = 0.001388
 h12bf                                  1      0.0000       0.00000       A     2.60113e-01     8.69261e-02    ;  uncertainty sigma = 0.000018, epsilon = 0.001362
 h13bf                                  1      0.0000       0.00000       A     2.60113e-01     8.69261e-02    ;  uncertainty sigma = 0.000018, epsilon = 0.001362
 c14bf                                  6      0.0000       0.00000       A     3.39922e-01     4.52078e-01    ;  uncertainty sigma = 0.000044, epsilon = 0.005050
 c15bf                                  6      0.0000       0.00000       A     3.31534e-01     4.13061e-01    ;  uncertainty sigma = 0.000023, epsilon = 0.000770
 n16bf                                  7      0.0000       0.00000       A     3.18159e-01     6.82058e-01    ;  uncertainty sigma = 0.000074, epsilon = 0.006526
 c17bf                                  6      0.0000       0.00000       A     3.31516e-01     4.13029e-01    ;  uncertainty sigma = 0.000046, epsilon = 0.002102
 n18bf                                  7      0.0000       0.00000       A     3.27895e-01     6.51183e-01    ;  uncertainty sigma = 0.000198, epsilon = 0.011723
 h19bf                                  1      0.0000       0.00000       A     1.10796e-01     4.19443e-02    ;  uncertainty sigma = 0.000445, epsilon = 0.001840
 c20bf                                  6      0.0000       0.00000       A     3.31521e-01     4.13419e-01    ;  uncertainty sigma = 0.000007, epsilon = 0.000567
 c21bf                                  6      0.0000       0.00000       A     3.39747e-01     4.51374e-01    ;  uncertainty sigma = 0.000011, epsilon = 0.001160
 h22bf                                  1      0.0000       0.00000       A     2.42212e-01     8.67416e-02    ;  uncertainty sigma = 0.000033, epsilon = 0.000677
 h23bf                                  1      0.0000       0.00000       A     2.42212e-01     8.67416e-02    ;  uncertainty sigma = 0.000033, epsilon = 0.000677
 h24bf                                  1      0.0000       0.00000       A     2.42212e-01     8.67416e-02    ;  uncertainty sigma = 0.000033, epsilon = 0.000677
 n25bf                                  7      0.0000       0.00000       A     3.36518e-01     4.71691e-01    ;  uncertainty sigma = 0.000108, epsilon = 0.006012
 h26bf                                  1      0.0000       0.00000       A     1.10696e-01     4.11175e-02    ;  uncertainty sigma = 0.000127, epsilon = 0.001410
 h27bf                                  1      0.0000       0.00000       A     1.10696e-01     4.11175e-02    ;  uncertainty sigma = 0.000127, epsilon = 0.001410
 c28bf                                  6      0.0000       0.00000       A     3.31517e-01     4.13301e-01    ;  uncertainty sigma = 0.000005, epsilon = 0.000786
 h29bf                                  1      0.0000       0.00000       A     2.62574e-01     6.70749e-02    ;  uncertainty sigma = 0.000017, epsilon = 0.000615
 c30bf                                  6      0.0000       0.00000       A     3.31518e-01     4.13259e-01    ;  uncertainty sigma = 0.000007, epsilon = 0.000629
 h31bf                                  1      0.0000       0.00000       A     2.62565e-01     6.71316e-02    ;  uncertainty sigma = 0.000013, epsilon = 0.000533
 c32bf                                  6      0.0000       0.00000       A     3.31524e-01     4.13240e-01    ;  uncertainty sigma = 0.000008, epsilon = 0.000428
 h33bf                                  1      0.0000       0.00000       A     2.53631e-01     6.70405e-02    ;  uncertainty sigma = 0.000015, epsilon = 0.000510
 n34bf                                  7      0.0000       0.00000       A     3.38402e-01     3.92829e-01    ;  uncertainty sigma = 0.000009, epsilon = 0.001138
 c35bf                                  6      0.0000       0.00000       A     3.31552e-01     4.12502e-01    ;  uncertainty sigma = 0.000013, epsilon = 0.001126
 f36bf                                  9      0.0000       0.00000       A     3.03407e-01     3.48299e-01    ;  uncertainty sigma = 0.000023, epsilon = 0.000982
 o37bf                                  8      0.0000       0.00000       A     3.04746e-01     6.12575e-01    ;  uncertainty sigma = 0.000054, epsilon = 0.002454
 c38bf                                  6      0.0000       0.00000       A     3.39769e-01     4.50351e-01    ;  uncertainty sigma = 0.000003, epsilon = 0.001331
 h39bf                                  1      0.0000       0.00000       A     2.60031e-01     8.68008e-02    ;  uncertainty sigma = 0.000006, epsilon = 0.000320
 h40bf                                  1      0.0000       0.00000       A     2.60031e-01     8.68008e-02    ;  uncertainty sigma = 0.000006, epsilon = 0.000320
 h41bf                                  1      0.0000       0.00000       A     2.60031e-01     8.68008e-02    ;  uncertainty sigma = 0.000006, epsilon = 0.000320
 c42bf                                  6      0.0000       0.00000       A     3.39769e-01     4.50351e-01    ;  uncertainty sigma = 0.000003, epsilon = 0.001331
 h43bf                                  1      0.0000       0.00000       A     2.60031e-01     8.68008e-02    ;  uncertainty sigma = 0.000006, epsilon = 0.000319
 h44bf                                  1      0.0000       0.00000       A     2.60031e-01     8.68010e-02    ;  uncertainty sigma = 0.000006, epsilon = 0.000319
 h45bf                                  1      0.0000       0.00000       A     2.60031e-01     8.68010e-02    ;  uncertainty sigma = 0.000006, epsilon = 0.000320

[ moleculetype ]
;name             nrexcl
 MOL                   3

[ atoms ]
;       nr            type      resi   res      atom      cgnr      charge          mass ; qtot
         1            c0bf         1   UNL        c0         1    -0.03133       12.0110 ; qtot   -0.031
         2            c1bf         1   UNL        c1         2    -0.05883       12.0110 ; qtot   -0.090
         3            h2bf         1   UNL        h2         3     0.14203        1.0080 ; qtot    0.052
         4            c3bf         1   UNL        c3         4    -0.14878       12.0110 ; qtot   -0.097
         5            h4bf         1   UNL        h4         5     0.15718        1.0080 ; qtot    0.060
         6            c5bf         1   UNL        c5         6     0.18249       12.0110 ; qtot    0.243
         7            c6bf         1   UNL        c6         7    -0.20497       12.0110 ; qtot    0.038
         8            c7bf         1   UNL        c7         8    -0.05352       12.0110 ; qtot   -0.016
         9            h8bf         1   UNL        h8         9     0.15311        1.0080 ; qtot    0.137
        10            o9bf         1   UNL        o9        10    -0.32527       15.9990 ; qtot   -0.188
        11           c10bf         1   UNL       c10        11     0.16563       12.0110 ; qtot   -0.022
        12           c11bf         1   UNL       c11        12    -0.09875       12.0110 ; qtot   -0.121
        13           h12bf         1   UNL       h12        13     0.09101        1.0080 ; qtot   -0.030
        14           h13bf         1   UNL       h13        14     0.09101        1.0080 ; qtot    0.061
        15           c14bf         1   UNL       c14        15     0.04015       12.0110 ; qtot    0.101
        16           c15bf         1   UNL       c15        16     0.70447       12.0110 ; qtot    0.806
        17           n16bf         1   UNL       n16        17    -0.41729       14.0070 ; qtot    0.388
        18           c17bf         1   UNL       c17        18     0.47248       12.0110 ; qtot    0.861
        19           n18bf         1   UNL       n18        19    -0.37461       14.0070 ; qtot    0.486
        20           h19bf         1   UNL       h19        20     0.35504        1.0080 ; qtot    0.841
        21           c20bf         1   UNL       c20        21    -0.17542       12.0110 ; qtot    0.666
        22           c21bf         1   UNL       c21        22     0.07530       12.0110 ; qtot    0.741
        23           h22bf         1   UNL       h22        23     0.09109        1.0080 ; qtot    0.832
        24           h23bf         1   UNL       h23        24     0.09109        1.0080 ; qtot    0.923
        25           h24bf         1   UNL       h24        25     0.09109        1.0080 ; qtot    1.014
        26           n25bf         1   UNL       n25        26    -0.48596       14.0070 ; qtot    0.528
        27           h26bf         1   UNL       h26        27     0.33929        1.0080 ; qtot    0.868
        28           h27bf         1   UNL       h27        28     0.33929        1.0080 ; qtot    1.207
        29           c28bf         1   UNL       c28        29    -0.06287       12.0110 ; qtot    1.144
        30           h29bf         1   UNL       h29        30     0.14518        1.0080 ; qtot    1.289
        31           c30bf         1   UNL       c30        31    -0.26443       12.0110 ; qtot    1.025
        32           h31bf         1   UNL       h31        32     0.15066        1.0080 ; qtot    1.176
        33           c32bf         1   UNL       c32        33     0.43034       12.0110 ; qtot    1.606
        34           h33bf         1   UNL       h33        34     0.02909        1.0080 ; qtot    1.635
        35           n34bf         1   UNL       n34        35    -0.69575       14.0070 ; qtot    0.939
        36           c35bf         1   UNL       c35        36     0.63754       12.0110 ; qtot    1.577
        37           f36bf         1   UNL       f36        37    -0.22432       18.9980 ; qtot    1.352
        38           o37bf         1   UNL       o37        38    -0.45182       15.9990 ; qtot    0.901
        39           c38bf         1   UNL       c38        39    -0.10337       12.0110 ; qtot    0.797
        40           h39bf         1   UNL       h39        40     0.05101        1.0080 ; qtot    0.848
        41           h40bf         1   UNL       h40        41     0.05101        1.0080 ; qtot    0.899
        42           h41bf         1   UNL       h41        42     0.05101        1.0080 ; qtot    0.950
        43           c42bf         1   UNL       c42        43    -0.10337       12.0110 ; qtot    0.847
        44           h43bf         1   UNL       h43        44     0.05101        1.0080 ; qtot    0.898
        45           h44bf         1   UNL       h44        45     0.05101        1.0080 ; qtot    0.949
        46           h45bf         1   UNL       h45        46     0.05105        1.0080 ; qtot    1.000

[ bonds ]
;       ai        aj funct               r               k
         1         2     1        0.140392   345473.523535    ;  uncertainty r = 0.000068, k = 4.462570
         1         8     1        0.139650   338029.890283    ;  uncertainty r = 0.000095, k = 4.642033
         1        21     1        0.147764   277008.022559    ;  uncertainty r = 0.000099, k = 11.164790
         2         3     1        0.108721   334299.429346    ;  uncertainty r = 0.000011, k = 1.207904
         2         4     1        0.138674   375743.757373    ;  uncertainty r = 0.000075, k = 2.497874
         4         5     1        0.108788   336617.637061    ;  uncertainty r = 0.000017, k = 1.411956
         4         6     1        0.140086   362230.540576    ;  uncertainty r = 0.000052, k = 3.404705
         6         7     1        0.139987   328983.803418    ;  uncertainty r = 0.000163, k = 7.293712
         6        10     1        0.136368   303578.797510    ;  uncertainty r = 0.000194, k = 10.538334
         7         8     1        0.139536   346163.434082    ;  uncertainty r = 0.000125, k = 6.879199
         7        15     1        0.150678   205784.156250    ;  uncertainty r = 0.000110, k = 20.274094
         8         9     1        0.108734   335335.214502    ;  uncertainty r = 0.000069, k = 4.654926
        10        11     1        0.145422   203859.641382    ;  uncertainty r = 0.000221, k = 9.275544
        11        12     1        0.152936   192803.911694    ;  uncertainty r = 0.000262, k = 11.274614
        11        39     1        0.152325   205847.654272    ;  uncertainty r = 0.000037, k = 5.592259
        11        43     1        0.152325   205847.654272    ;  uncertainty r = 0.000037, k = 5.592261
        12        13     1        0.109477   309561.503809    ;  uncertainty r = 0.000048, k = 2.448475
        12        14     1        0.109477   309561.503809    ;  uncertainty r = 0.000048, k = 2.448475
        12        15     1        0.153041   191194.052319    ;  uncertainty r = 0.000126, k = 21.513802
        15        16     1        0.153598   171646.122900    ;  uncertainty r = 0.000173, k = 14.753148
        15        19     1        0.149698   232215.881641    ;  uncertainty r = 0.000407, k = 51.570428
        16        17     1        0.142413   302839.344971    ;  uncertainty r = 0.000236, k = 75.996174
        16        38     1        0.120112   608584.455469    ;  uncertainty r = 0.000161, k = 10.569144
        17        18     1        0.135836   286250.770703    ;  uncertainty r = 0.000260, k = 52.766102
        17        22     1        0.146741   261825.572607    ;  uncertainty r = 0.000154, k = 17.700649
        18        19     1        0.133610   531287.609180    ;  uncertainty r = 0.000191, k = 37.526813
        18        26     1        0.133101   320485.564160    ;  uncertainty r = 0.000146, k = 40.823703
        19        20     1        0.101578   423262.955127    ;  uncertainty r = 0.000083, k = 11.557068
        21        29     1        0.139880   359664.597363    ;  uncertainty r = 0.000075, k = 7.546326
        21        36     1        0.140082   344171.462939    ;  uncertainty r = 0.000106, k = 7.167022
        22        23     1        0.109172   309495.286084    ;  uncertainty r = 0.000053, k = 3.597993
        22        24     1        0.109172   309495.286084    ;  uncertainty r = 0.000053, k = 3.597993
        22        25     1        0.109172   309495.286084    ;  uncertainty r = 0.000053, k = 3.597993
        26        27     1        0.101405   421785.735498    ;  uncertainty r = 0.000064, k = 13.590763
        26        28     1        0.101405   421785.735498    ;  uncertainty r = 0.000064, k = 13.590763
        29        30     1        0.108707   333032.558887    ;  uncertainty r = 0.000026, k = 1.933931
        29        31     1        0.139404   380321.846045    ;  uncertainty r = 0.000047, k = 2.962377
        31        32     1        0.108820   337531.967725    ;  uncertainty r = 0.000023, k = 1.522039
        31        33     1        0.139384   371895.442676    ;  uncertainty r = 0.000023, k = 2.574437
        33        34     1        0.108921   336620.931348    ;  uncertainty r = 0.000022, k = 1.944686
        33        35     1        0.134065   398376.812207    ;  uncertainty r = 0.000038, k = 10.637543
        35        36     1        0.131115   349533.081201    ;  uncertainty r = 0.000107, k = 15.463011
        36        37     1        0.135017   322038.118262    ;  uncertainty r = 0.000129, k = 5.923740
        39        40     1        0.109545   310467.151855    ;  uncertainty r = 0.000018, k = 1.787227
        39        41     1        0.109545   310467.151855    ;  uncertainty r = 0.000018, k = 1.787227
        39        42     1        0.109545   310467.151855    ;  uncertainty r = 0.000018, k = 1.787227
        43        44     1        0.109545   310467.177393    ;  uncertainty r = 0.000018, k = 1.787223
        43        45     1        0.109545   310467.177393    ;  uncertainty r = 0.000018, k = 1.787223
        43        46     1        0.109545   310467.151855    ;  uncertainty r = 0.000018, k = 1.787221

[ angles ]
;       ai        aj        ak funct           theta             cth
         1         2         3     1      119.099937      280.067745    ;  uncertainty theta = 0.002245, k = 0.099007
         1         2         4     1      120.394394      531.746811    ;  uncertainty theta = 0.002661, k = 0.069726
         1         8         7     1      123.124840      511.441202    ;  uncertainty theta = 0.004650, k = 0.205418
         1         8         9     1      119.068344      284.136030    ;  uncertainty theta = 0.002680, k = 0.058219
         1        21        29     1      122.748878      408.927520    ;  uncertainty theta = 0.002790, k = 0.102586
         1        21        36     1      121.020004      367.216131    ;  uncertainty theta = 0.002007, k = 0.213910
         2         1         8     1      119.477699      425.775979    ;  uncertainty theta = 0.002822, k = 0.086366
         2         1        21     1      120.788498      414.754099    ;  uncertainty theta = 0.002105, k = 0.134652
         2         4         5     1      121.311661      280.101837    ;  uncertainty theta = 0.001184, k = 0.027593
         2         4         6     1      119.554161      503.783070    ;  uncertainty theta = 0.002722, k = 0.153215
         3         2         4     1      119.402184      290.439163    ;  uncertainty theta = 0.001721, k = 0.063885
         4         6         7     1      120.988113      370.564749    ;  uncertainty theta = 0.002804, k = 0.132341
         4         6        10     1      118.414932      539.304551    ;  uncertainty theta = 0.003186, k = 0.119405
         5         4         6     1      120.029160      275.838512    ;  uncertainty theta = 0.003388, k = 0.140058
         6         7         8     1      121.608315      438.017607    ;  uncertainty theta = 0.004607, k = 0.116504
         6         7        15     1      120.067566      415.396868    ;  uncertainty theta = 0.008782, k = 0.219694
         6        10        11     1      114.537880      453.333553    ;  uncertainty theta = 0.006687, k = 0.093699
         7         6        10     1      123.896896      494.205441    ;  uncertainty theta = 0.004024, k = 0.262919
         7         8         9     1      117.615089      268.292967    ;  uncertainty theta = 0.003063, k = 0.137289
         7        15        12     1      110.372864      539.933530    ;  uncertainty theta = 0.001408, k = 0.155688
         7        15        16     1      108.946983      466.381260    ;  uncertainty theta = 0.003845, k = 0.382761
         7        15        19     1      110.459412      616.078039    ;  uncertainty theta = 0.004076, k = 0.312915
         8         1        21     1      119.946007      413.148357    ;  uncertainty theta = 0.002193, k = 0.117755
         8         7        15     1      118.110756      407.122302    ;  uncertainty theta = 0.003751, k = 0.175138
        10        11        12     1      109.104774      651.855785    ;  uncertainty theta = 0.004859, k = 0.084503
        10        11        39     1      107.605125      619.338362    ;  uncertainty theta = 0.001081, k = 0.064685
        10        11        43     1      107.605125      619.338362    ;  uncertainty theta = 0.001081, k = 0.064685
        11        12        13     1      107.678452      386.201185    ;  uncertainty theta = 0.003165, k = 0.032000
        11        12        14     1      107.678452      386.201185    ;  uncertainty theta = 0.003165, k = 0.032000
        11        12        15     1      109.859573      530.089357    ;  uncertainty theta = 0.006963, k = 0.198376
        11        39        40     1      107.221069      387.594393    ;  uncertainty theta = 0.001065, k = 0.069193
        11        39        41     1      107.221069      387.594393    ;  uncertainty theta = 0.001065, k = 0.069193
        11        39        42     1      107.221069      387.594393    ;  uncertainty theta = 0.001065, k = 0.069193
        11        43        44     1      107.221069      387.594393    ;  uncertainty theta = 0.001065, k = 0.069193
        11        43        45     1      107.221069      387.594393    ;  uncertainty theta = 0.001065, k = 0.069193
        11        43        46     1      107.221069      387.594393    ;  uncertainty theta = 0.001065, k = 0.069193
        12        11        39     1      109.374954      548.046988    ;  uncertainty theta = 0.004356, k = 0.115347
        12        11        43     1      109.374954      548.046988    ;  uncertainty theta = 0.004356, k = 0.115347
        12        15        16     1      107.815041      449.614520    ;  uncertainty theta = 0.007030, k = 0.162707
        12        15        19     1      109.812546      627.822301    ;  uncertainty theta = 0.007991, k = 0.271564
        13        12        14     1      106.986496      321.844668    ;  uncertainty theta = 0.004263, k = 0.066652
        13        12        15     1      106.651634      397.354709    ;  uncertainty theta = 0.003140, k = 0.080198
        14        12        15     1      106.651634      397.354709    ;  uncertainty theta = 0.003140, k = 0.080198
        15        16        17     1      110.177444      536.173446    ;  uncertainty theta = 0.011689, k = 0.712083
        15        16        38     1      125.836937      424.636769    ;  uncertainty theta = 0.006696, k = 0.210364
        15        19        18     1      111.019447      602.235777    ;  uncertainty theta = 0.016031, k = 0.385576
        15        19        20     1      118.127907      280.649385    ;  uncertainty theta = 0.015278, k = 0.121870
        16        15        19     1      103.837784      815.585302    ;  uncertainty theta = 0.012174, k = 0.852514
        16        17        18     1      110.293701      728.609291    ;  uncertainty theta = 0.010426, k = 0.320486
        16        17        22     1      119.398109      397.513773    ;  uncertainty theta = 0.006832, k = 0.281808
        17        16        38     1      125.307961      629.051912    ;  uncertainty theta = 0.008036, k = 0.165829
        17        18        19     1      113.250023      720.106327    ;  uncertainty theta = 0.006756, k = 0.305315
        17        18        26     1      125.598953      549.524885    ;  uncertainty theta = 0.008546, k = 0.324469
        17        22        23     1      107.360855      470.851946    ;  uncertainty theta = 0.002522, k = 0.203983
        17        22        24     1      107.360855      470.851946    ;  uncertainty theta = 0.002522, k = 0.203983
        17        22        25     1      107.360855      470.851946    ;  uncertainty theta = 0.002522, k = 0.203983
        18        17        22     1      118.646042      371.786540    ;  uncertainty theta = 0.007230, k = 0.373049
        18        19        20     1      119.824707      355.581520    ;  uncertainty theta = 0.006083, k = 0.153034
        18        26        27     1      114.903091      371.138312    ;  uncertainty theta = 0.001582, k = 0.210952
        18        26        28     1      114.903091      371.138312    ;  uncertainty theta = 0.001582, k = 0.210952
        19        18        26     1      128.730377      637.313550    ;  uncertainty theta = 0.008927, k = 0.256741
        21        29        30     1      117.839920      273.641044    ;  uncertainty theta = 0.005072, k = 0.099595
        21        29        31     1      120.809425      539.555389    ;  uncertainty theta = 0.002232, k = 0.064688
        21        36        35     1      128.160568      526.268048    ;  uncertainty theta = 0.002285, k = 0.276561
        21        36        37     1      116.139175      471.280873    ;  uncertainty theta = 0.006660, k = 0.225500
        23        22        24     1      107.634499      325.466948    ;  uncertainty theta = 0.003233, k = 0.098676
        23        22        25     1      107.634499      325.466948    ;  uncertainty theta = 0.003233, k = 0.098676
        24        22        25     1      107.634499      325.466948    ;  uncertainty theta = 0.003233, k = 0.098676
        27        26        28     1      112.323524      263.743259    ;  uncertainty theta = 0.015210, k = 0.362876
        29        21        36     1      116.752907      374.246083    ;  uncertainty theta = 0.004205, k = 0.305708
        29        31        32     1      121.804398      283.684917    ;  uncertainty theta = 0.000505, k = 0.050516
        29        31        33     1      116.523209      481.807940    ;  uncertainty theta = 0.001321, k = 0.066574
        30        29        31     1      120.869156      285.748698    ;  uncertainty theta = 0.001973, k = 0.068516
        31        33        34     1      121.317612      276.932267    ;  uncertainty theta = 0.001194, k = 0.021724
        31        33        35     1      122.543762      700.149012    ;  uncertainty theta = 0.001693, k = 0.109245
        32        31        33     1      121.631714      286.341702    ;  uncertainty theta = 0.000595, k = 0.082037
        33        35        36     1      117.113953      343.370249    ;  uncertainty theta = 0.005567, k = 0.363176
        34        33        35     1      116.407455      329.898658    ;  uncertainty theta = 0.002342, k = 0.093805
        35        36        37     1      115.207108      625.592911    ;  uncertainty theta = 0.004924, k = 0.117588
        39        11        43     1      110.900230      580.347282    ;  uncertainty theta = 0.002949, k = 0.067890
        40        39        41     1      106.043396      316.610518    ;  uncertainty theta = 0.000878, k = 0.018252
        40        39        42     1      106.043396      316.610518    ;  uncertainty theta = 0.000878, k = 0.018252
        41        39        42     1      106.043396      316.610518    ;  uncertainty theta = 0.000878, k = 0.018252
        44        43        45     1      106.043396      316.610518    ;  uncertainty theta = 0.000878, k = 0.018253
        44        43        46     1      106.043396      316.610518    ;  uncertainty theta = 0.000878, k = 0.018253
        45        43        46     1      106.043411      316.610518    ;  uncertainty theta = 0.000878, k = 0.018253

[ dihedrals ] ; propers for gromacs 4.5 or higher, use funct 9
;       ai        aj        ak        al funct           phase               k        pn
         1         2         4         5     9        0.000000        0.083406         1    ;  uncertainty k = 0.080783
         1         2         4         5     9      180.000000        8.434115         2    ;  uncertainty k = 0.447582
         1         2         4         5     9        0.000000        1.381447         3    ;  uncertainty k = 0.271677
         1         2         4         5     9      180.000000        1.920152         4    ;  uncertainty k = 0.243925
         1         2         4         6     9        0.000000       -0.085539         1    ;  uncertainty k = 0.290690
         1         2         4         6     9      180.000000       14.194653         2    ;  uncertainty k = 0.278780
         1         2         4         6     9        0.000000       -0.375812         3    ;  uncertainty k = 0.424232
         1         2         4         6     9      180.000000        0.918503         4    ;  uncertainty k = 0.210873
         1         8         7         6     9        0.000000       -0.276786         1    ;  uncertainty k = 0.173392
         1         8         7         6     9      180.000000       11.035628         2    ;  uncertainty k = 0.483789
         1         8         7         6     9        0.000000       -0.090620         3    ;  uncertainty k = 0.138235
         1         8         7         6     9      180.000000        1.140529         4    ;  uncertainty k = 0.353565
         1         8         7        15     9        0.000000        0.404436         1    ;  uncertainty k = 0.296057
         1         8         7        15     9      180.000000        8.996564         2    ;  uncertainty k = 0.342154
         1         8         7        15     9        0.000000        1.642270         3    ;  uncertainty k = 0.195821
         1         8         7        15     9      180.000000        1.919358         4    ;  uncertainty k = 0.390544
         1        21        29        30     9        0.000000       -0.097592         1    ;  uncertainty k = 0.311991
         1        21        29        30     9      180.000000        7.668453         2    ;  uncertainty k = 0.106804
         1        21        29        30     9        0.000000        0.950945         3    ;  uncertainty k = 0.196766
         1        21        29        30     9      180.000000        1.228577         4    ;  uncertainty k = 0.212513
         1        21        29        31     9        0.000000        0.062224         1    ;  uncertainty k = 0.420798
         1        21        29        31     9      180.000000        9.616137         2    ;  uncertainty k = 0.478212
         1        21        29        31     9        0.000000        1.342545         3    ;  uncertainty k = 0.592297
         1        21        29        31     9      180.000000        1.820483         4    ;  uncertainty k = 0.191157
         1        21        36        35     9        0.000000        0.162614         1    ;  uncertainty k = 0.403978
         1        21        36        35     9      180.000000        6.380075         2    ;  uncertainty k = 0.188893
         1        21        36        35     9        0.000000        0.891358         3    ;  uncertainty k = 0.204650
         1        21        36        35     9      180.000000        1.497204         4    ;  uncertainty k = 0.332746
         1        21        36        37     9        0.000000       -0.113414         1    ;  uncertainty k = 0.587418
         1        21        36        37     9      180.000000        7.978370         2    ;  uncertainty k = 0.676487
         1        21        36        37     9        0.000000        1.064107         3    ;  uncertainty k = 0.420087
         1        21        36        37     9      180.000000        1.372129         4    ;  uncertainty k = 0.197004
         2         1         8         7     9        0.000000        0.109480         1    ;  uncertainty k = 0.400593
         2         1         8         7     9      180.000000       10.749241         2    ;  uncertainty k = 0.374540
         2         1         8         7     9        0.000000       -0.255098         3    ;  uncertainty k = 0.361072
         2         1         8         7     9      180.000000        1.129917         4    ;  uncertainty k = 0.424551
         2         1         8         9     9        0.000000        0.180195         1    ;  uncertainty k = 0.284451
         2         1         8         9     9      180.000000        7.353059         2    ;  uncertainty k = 0.581989
         2         1         8         9     9        0.000000        1.402947         3    ;  uncertainty k = 0.198125
         2         1         8         9     9      180.000000        1.699542         4    ;  uncertainty k = 0.256789
         2         1        21        29     9        0.000000       -0.514177         1    ;  uncertainty k = 0.435136
         2         1        21        29     9      180.000000        4.376204         2    ;  uncertainty k = 0.076589
         2         1        21        29     9        0.000000        0.355104         3    ;  uncertainty k = 0.109756
         2         1        21        29     9      180.000000        0.217773         4    ;  uncertainty k = 0.098201
         2         1        21        36     9        0.000000        0.796298         1    ;  uncertainty k = 0.885761
         2         1        21        36     9      180.000000        4.291091         2    ;  uncertainty k = 0.111510
         2         1        21        36     9        0.000000        0.296600         3    ;  uncertainty k = 0.156931
         2         1        21        36     9      180.000000        0.418396         4    ;  uncertainty k = 0.080409
         2         4         6         7     9        0.000000        0.214349         1    ;  uncertainty k = 0.410045
         2         4         6         7     9      180.000000        7.720254         2    ;  uncertainty k = 0.550443
         2         4         6         7     9        0.000000        0.224218         3    ;  uncertainty k = 0.536327
         2         4         6         7     9      180.000000        1.308780         4    ;  uncertainty k = 0.241707
         2         4         6        10     9        0.000000        0.346907         1    ;  uncertainty k = 0.234707
         2         4         6        10     9      180.000000       11.474027         2    ;  uncertainty k = 0.306179
         2         4         6        10     9        0.000000        1.321185         3    ;  uncertainty k = 0.226036
         2         4         6        10     9      180.000000        1.529451         4    ;  uncertainty k = 0.150713
         3         2         1         8     9        0.000000        0.228705         1    ;  uncertainty k = 0.241916
         3         2         1         8     9      180.000000        6.730697         2    ;  uncertainty k = 0.471875
         3         2         1         8     9        0.000000        1.385403         3    ;  uncertainty k = 0.249654
         3         2         1         8     9      180.000000        1.575858         4    ;  uncertainty k = 0.284688
         3         2         1        21     9        0.000000       -0.264311         1    ;  uncertainty k = 0.407072
         3         2         1        21     9      180.000000        7.155891         2    ;  uncertainty k = 0.273545
         3         2         1        21     9        0.000000        0.824547         3    ;  uncertainty k = 0.183773
         3         2         1        21     9      180.000000        1.198372         4    ;  uncertainty k = 0.169213
         3         2         4         5     9        0.000000        0.030609         1    ;  uncertainty k = 0.360172
         3         2         4         5     9      180.000000        8.051730         2    ;  uncertainty k = 0.273280
         3         2         4         5     9        0.000000       -0.400631         3    ;  uncertainty k = 0.364374
         3         2         4         5     9      180.000000        0.191517         4    ;  uncertainty k = 0.132131
         3         2         4         6     9        0.000000        0.303420         1    ;  uncertainty k = 0.255282
         3         2         4         6     9      180.000000        8.823891         2    ;  uncertainty k = 0.429420
         3         2         4         6     9        0.000000        1.324936         3    ;  uncertainty k = 0.300363
         3         2         4         6     9      180.000000        1.733962         4    ;  uncertainty k = 0.222658
         4         2         1         8     9        0.000000       -0.038548         1    ;  uncertainty k = 0.200232
         4         2         1         8     9      180.000000       10.682332         2    ;  uncertainty k = 0.253144
         4         2         1         8     9        0.000000       -0.428021         3    ;  uncertainty k = 0.258189
         4         2         1         8     9      180.000000        1.032744         4    ;  uncertainty k = 0.179341
         4         2         1        21     9        0.000000       -0.037776         1    ;  uncertainty k = 0.284605
         4         2         1        21     9      180.000000        8.313224         2    ;  uncertainty k = 0.517294
         4         2         1        21     9        0.000000        1.089880         3    ;  uncertainty k = 0.298292
         4         2         1        21     9      180.000000        1.850926         4    ;  uncertainty k = 0.207106
         4         6         7         8     9        0.000000       -0.028038         1    ;  uncertainty k = 0.190025
         4         6         7         8     9      180.000000        6.922592         2    ;  uncertainty k = 0.442407
         4         6         7         8     9        0.000000        0.359886         3    ;  uncertainty k = 0.274874
         4         6         7         8     9      180.000000        1.351124         4    ;  uncertainty k = 0.242627
         4         6         7        15     9        0.000000        0.348936         1    ;  uncertainty k = 0.173792
         4         6         7        15     9      180.000000        5.007785         2    ;  uncertainty k = 0.411252
         4         6         7        15     9        0.000000        1.468368         3    ;  uncertainty k = 0.261774
         4         6         7        15     9      180.000000        1.669236         4    ;  uncertainty k = 0.209866
         4         6        10        11     9        0.000000       -0.006126         1    ;  uncertainty k = 0.860183
         4         6        10        11     9      180.000000        1.463692         2    ;  uncertainty k = 0.468672
         4         6        10        11     9        0.000000        0.942767         3    ;  uncertainty k = 0.141382
         4         6        10        11     9      180.000000        0.269400         4    ;  uncertainty k = 0.169428
         5         4         6         7     9        0.000000        0.319225         1    ;  uncertainty k = 0.558349
         5         4         6         7     9      180.000000        5.772400         2    ;  uncertainty k = 0.428880
         5         4         6         7     9        0.000000        1.337220         3    ;  uncertainty k = 0.195636
         5         4         6         7     9      180.000000        1.401976         4    ;  uncertainty k = 0.132735
         5         4         6        10     9        0.000000       -0.143362         1    ;  uncertainty k = 0.595170
         5         4         6        10     9      180.000000        8.971333         2    ;  uncertainty k = 0.422660
         5         4         6        10     9        0.000000        0.767158         3    ;  uncertainty k = 0.278987
         5         4         6        10     9      180.000000        1.249859         4    ;  uncertainty k = 0.280971
         6         7         8         9     9        0.000000        0.272800         1    ;  uncertainty k = 0.457882
         6         7         8         9     9      180.000000        7.905781         2    ;  uncertainty k = 0.728782
         6         7         8         9     9        0.000000        1.272263         3    ;  uncertainty k = 0.231673
         6         7         8         9     9      180.000000        1.661197         4    ;  uncertainty k = 0.153038
         6         7        15        12     9        0.000000       -0.553827         1    ;  uncertainty k = 1.466850
         6         7        15        12     9      180.000000        0.634513         2    ;  uncertainty k = 0.585096
         6         7        15        12     9        0.000000        0.297861         3    ;  uncertainty k = 0.330861
         6         7        15        12     9      180.000000        0.274107         4    ;  uncertainty k = 0.208342
         6         7        15        16     9        0.000000        2.102711         1    ;  uncertainty k = 2.528117
         6         7        15        16     9      180.000000        0.546699         2    ;  uncertainty k = 1.018065
         6         7        15        16     9        0.000000        0.457522         3    ;  uncertainty k = 0.289759
         6         7        15        16     9      180.000000        0.336866         4    ;  uncertainty k = 0.183129
         6         7        15        19     9        0.000000       -1.847813         1    ;  uncertainty k = 1.697254
         6         7        15        19     9      180.000000        1.430867         2    ;  uncertainty k = 0.383928
         6         7        15        19     9        0.000000        0.601224         3    ;  uncertainty k = 0.476577
         6         7        15        19     9      180.000000        0.025936         4    ;  uncertainty k = 0.174308
         6        10        11        12     9        0.000000        4.367104         1    ;  uncertainty k = 0.568224
         6        10        11        12     9      180.000000       -1.721484         2    ;  uncertainty k = 1.273231
         6        10        11        12     9        0.000000       -0.456864         3    ;  uncertainty k = 0.472174
         6        10        11        12     9      180.000000        0.328459         4    ;  uncertainty k = 0.236646
         6        10        11        39     9        0.000000       -1.366436         1    ;  uncertainty k = 0.443902
         6        10        11        39     9      180.000000        1.117989         2    ;  uncertainty k = 0.670204
         6        10        11        39     9        0.000000        0.420512         3    ;  uncertainty k = 0.232671
         6        10        11        39     9      180.000000        0.169724         4    ;  uncertainty k = 0.171412
         6        10        11        43     9        0.000000       -1.366437         1    ;  uncertainty k = 0.443902
         6        10        11        43     9      180.000000        1.117989         2    ;  uncertainty k = 0.670204
         6        10        11        43     9        0.000000        0.420512         3    ;  uncertainty k = 0.232671
         6        10        11        43     9      180.000000        0.169724         4    ;  uncertainty k = 0.171412
         7         6        10        11     9        0.000000        4.306086         1    ;  uncertainty k = 1.768452
         7         6        10        11     9      180.000000       -1.360044         2    ;  uncertainty k = 1.430514
         7         6        10        11     9        0.000000       -0.393906         3    ;  uncertainty k = 0.710259
         7         6        10        11     9      180.000000        0.655626         4    ;  uncertainty k = 0.252123
         7         8         1        21     9        0.000000        0.352574         1    ;  uncertainty k = 0.513364
         7         8         1        21     9      180.000000        9.108466         2    ;  uncertainty k = 0.339887
         7         8         1        21     9        0.000000        1.337546         3    ;  uncertainty k = 0.234755
         7         8         1        21     9      180.000000        1.711152         4    ;  uncertainty k = 0.109169
         7        15        12        11     9        0.000000        1.962873         1    ;  uncertainty k = 1.227303
         7        15        12        11     9      180.000000       -1.078194         2    ;  uncertainty k = 0.502447
         7        15        12        11     9        0.000000        0.369332         3    ;  uncertainty k = 0.176636
         7        15        12        11     9      180.000000       -0.278406         4    ;  uncertainty k = 0.249392
         7        15        12        13     9        0.000000       -0.179115         1    ;  uncertainty k = 0.140621
         7        15        12        13     9      180.000000        0.089626         2    ;  uncertainty k = 0.458905
         7        15        12        13     9        0.000000        0.456477         3    ;  uncertainty k = 0.237033
         7        15        12        13     9      180.000000       -0.095026         4    ;  uncertainty k = 0.141404
         7        15        12        14     9        0.000000       -0.179115         1    ;  uncertainty k = 0.140621
         7        15        12        14     9      180.000000        0.089626         2    ;  uncertainty k = 0.458905
         7        15        12        14     9        0.000000        0.456477         3    ;  uncertainty k = 0.237033
         7        15        12        14     9      180.000000       -0.095026         4    ;  uncertainty k = 0.141404
         7        15        16        17     9        0.000000       -2.280413         1    ;  uncertainty k = 2.717071
         7        15        16        17     9      180.000000        2.456409         2    ;  uncertainty k = 1.222701
         7        15        16        17     9        0.000000        1.453247         3    ;  uncertainty k = 0.188385
         7        15        16        17     9      180.000000        0.681716         4    ;  uncertainty k = 0.441731
         7        15        16        38     9        0.000000       -0.746002         1    ;  uncertainty k = 2.339484
         7        15        16        38     9      180.000000        3.144072         2    ;  uncertainty k = 0.500305
         7        15        16        38     9        0.000000        0.221997         3    ;  uncertainty k = 0.280085
         7        15        16        38     9      180.000000        0.150864         4    ;  uncertainty k = 0.276471
         7        15        19        18     9        0.000000        0.863486         1    ;  uncertainty k = 1.247542
         7        15        19        18     9      180.000000        0.544772         2    ;  uncertainty k = 0.542404
         7        15        19        18     9        0.000000        0.864493         3    ;  uncertainty k = 0.370882
         7        15        19        18     9      180.000000        0.387103         4    ;  uncertainty k = 0.143943
         7        15        19        20     9        0.000000        0.953248         1    ;  uncertainty k = 2.750545
         7        15        19        20     9      180.000000       -1.060847         2    ;  uncertainty k = 1.247198
         7        15        19        20     9        0.000000        0.527755         3    ;  uncertainty k = 0.498974
         7        15        19        20     9      180.000000       -0.043717         4    ;  uncertainty k = 0.110691
         8         1        21        29     9        0.000000       -0.545324         1    ;  uncertainty k = 0.406817
         8         1        21        29     9      180.000000        4.571568         2    ;  uncertainty k = 0.212018
         8         1        21        29     9        0.000000        0.338179         3    ;  uncertainty k = 0.229608
         8         1        21        29     9      180.000000        0.265011         4    ;  uncertainty k = 0.133599
         8         1        21        36     9        0.000000        0.507810         1    ;  uncertainty k = 0.908993
         8         1        21        36     9      180.000000        4.407691         2    ;  uncertainty k = 0.293147
         8         1        21        36     9        0.000000        0.197598         3    ;  uncertainty k = 0.132448
         8         1        21        36     9      180.000000        0.379566         4    ;  uncertainty k = 0.123917
         8         7         6        10     9        0.000000        0.513168         1    ;  uncertainty k = 0.330323
         8         7         6        10     9      180.000000        8.116116         2    ;  uncertainty k = 0.217375
         8         7         6        10     9        0.000000        1.524659         3    ;  uncertainty k = 0.290667
         8         7         6        10     9      180.000000        1.552674         4    ;  uncertainty k = 0.205331
         8         7        15        12     9        0.000000       -0.647805         1    ;  uncertainty k = 1.150092
         8         7        15        12     9      180.000000        1.016998         2    ;  uncertainty k = 0.435748
         8         7        15        12     9        0.000000       -0.293509         3    ;  uncertainty k = 0.370990
         8         7        15        12     9      180.000000        0.165131         4    ;  uncertainty k = 0.184192
         8         7        15        16     9        0.000000        0.897043         1    ;  uncertainty k = 1.984579
         8         7        15        16     9      180.000000        0.171738         2    ;  uncertainty k = 0.577270
         8         7        15        16     9        0.000000        0.123405         3    ;  uncertainty k = 0.285009
         8         7        15        16     9      180.000000        0.314141         4    ;  uncertainty k = 0.132234
         8         7        15        19     9        0.000000       -0.400069         1    ;  uncertainty k = 0.908112
         8         7        15        19     9      180.000000        1.973433         2    ;  uncertainty k = 0.390196
         8         7        15        19     9        0.000000       -0.060973         3    ;  uncertainty k = 0.374354
         8         7        15        19     9      180.000000        0.085919         4    ;  uncertainty k = 0.252804
         9         8         1        21     9        0.000000       -0.156132         1    ;  uncertainty k = 0.249232
         9         8         1        21     9      180.000000        7.417679         2    ;  uncertainty k = 0.226438
         9         8         1        21     9        0.000000        0.864633         3    ;  uncertainty k = 0.189666
         9         8         1        21     9      180.000000        1.347042         4    ;  uncertainty k = 0.126473
         9         8         7        15     9        0.000000       -0.361450         1    ;  uncertainty k = 0.428491
         9         8         7        15     9      180.000000        6.783888         2    ;  uncertainty k = 0.308218
         9         8         7        15     9        0.000000        0.966302         3    ;  uncertainty k = 0.298753
         9         8         7        15     9      180.000000        1.274457         4    ;  uncertainty k = 0.234545
        10         6         7        15     9        0.000000        0.498340         1    ;  uncertainty k = 0.988077
        10         6         7        15     9      180.000000        5.670085         2    ;  uncertainty k = 0.712561
        10         6         7        15     9        0.000000        1.748936         3    ;  uncertainty k = 0.456836
        10         6         7        15     9      180.000000        1.062497         4    ;  uncertainty k = 0.416589
        10        11        12        13     9        0.000000       -1.286357         1    ;  uncertainty k = 0.418982
        10        11        12        13     9      180.000000       -0.843337         2    ;  uncertainty k = 0.564487
        10        11        12        13     9        0.000000        0.398057         3    ;  uncertainty k = 0.233267
        10        11        12        13     9      180.000000       -0.189590         4    ;  uncertainty k = 0.165011
        10        11        12        14     9        0.000000       -1.286357         1    ;  uncertainty k = 0.418982
        10        11        12        14     9      180.000000       -0.843337         2    ;  uncertainty k = 0.564487
        10        11        12        14     9        0.000000        0.398057         3    ;  uncertainty k = 0.233267
        10        11        12        14     9      180.000000       -0.189590         4    ;  uncertainty k = 0.165011
        10        11        12        15     9        0.000000        7.476954         1    ;  uncertainty k = 0.712372
        10        11        12        15     9      180.000000       -4.264125         2    ;  uncertainty k = 1.996416
        10        11        12        15     9        0.000000       -0.268865         3    ;  uncertainty k = 0.560592
        10        11        12        15     9      180.000000       -0.018620         4    ;  uncertainty k = 0.403705
        10        11        39        40     9        0.000000       -0.556687         1    ;  uncertainty k = 0.641512
        10        11        39        40     9      180.000000       -2.127824         2    ;  uncertainty k = 0.599046
        10        11        39        40     9        0.000000        0.863808         3    ;  uncertainty k = 0.110663
        10        11        39        40     9      180.000000       -0.195070         4    ;  uncertainty k = 0.150407
        10        11        39        41     9        0.000000       -0.556687         1    ;  uncertainty k = 0.641512
        10        11        39        41     9      180.000000       -2.127824         2    ;  uncertainty k = 0.599046
        10        11        39        41     9        0.000000        0.863808         3    ;  uncertainty k = 0.110663
        10        11        39        41     9      180.000000       -0.195070         4    ;  uncertainty k = 0.150407
        10        11        39        42     9        0.000000       -0.556687         1    ;  uncertainty k = 0.641512
        10        11        39        42     9      180.000000       -2.127824         2    ;  uncertainty k = 0.599046
        10        11        39        42     9        0.000000        0.863808         3    ;  uncertainty k = 0.110663
        10        11        39        42     9      180.000000       -0.195070         4    ;  uncertainty k = 0.150407
        10        11        43        44     9        0.000000       -0.556686         1    ;  uncertainty k = 0.641512
        10        11        43        44     9      180.000000       -2.127823         2    ;  uncertainty k = 0.599046
        10        11        43        44     9        0.000000        0.863808         3    ;  uncertainty k = 0.110663
        10        11        43        44     9      180.000000       -0.195070         4    ;  uncertainty k = 0.150407
        10        11        43        45     9        0.000000       -0.556686         1    ;  uncertainty k = 0.641512
        10        11        43        45     9      180.000000       -2.127823         2    ;  uncertainty k = 0.599046
        10        11        43        45     9        0.000000        0.863808         3    ;  uncertainty k = 0.110663
        10        11        43        45     9      180.000000       -0.195070         4    ;  uncertainty k = 0.150407
        10        11        43        46     9        0.000000       -0.556686         1    ;  uncertainty k = 0.641512
        10        11        43        46     9      180.000000       -2.127823         2    ;  uncertainty k = 0.599046
        10        11        43        46     9        0.000000        0.863808         3    ;  uncertainty k = 0.110663
        10        11        43        46     9      180.000000       -0.195070         4    ;  uncertainty k = 0.150407
        11        12        15        16     9        0.000000       -1.228978         1    ;  uncertainty k = 1.347491
        11        12        15        16     9      180.000000       -0.515847         2    ;  uncertainty k = 0.500825
        11        12        15        16     9        0.000000        0.433214         3    ;  uncertainty k = 0.247206
        11        12        15        16     9      180.000000       -0.080465         4    ;  uncertainty k = 0.226810
        11        12        15        19     9        0.000000       -2.978696         1    ;  uncertainty k = 1.009148
        11        12        15        19     9      180.000000       -1.349812         2    ;  uncertainty k = 1.012802
        11        12        15        19     9        0.000000        1.198772         3    ;  uncertainty k = 0.505782
        11        12        15        19     9      180.000000        0.002053         4    ;  uncertainty k = 0.225805
        12        11        39        40     9        0.000000       -0.810618         1    ;  uncertainty k = 0.476463
        12        11        39        40     9      180.000000       -0.740441         2    ;  uncertainty k = 0.208397
        12        11        39        40     9        0.000000        0.585176         3    ;  uncertainty k = 0.093112
        12        11        39        40     9      180.000000       -0.179618         4    ;  uncertainty k = 0.029902
        12        11        39        41     9        0.000000       -0.810618         1    ;  uncertainty k = 0.476463
        12        11        39        41     9      180.000000       -0.740441         2    ;  uncertainty k = 0.208397
        12        11        39        41     9        0.000000        0.585176         3    ;  uncertainty k = 0.093112
        12        11        39        41     9      180.000000       -0.179618         4    ;  uncertainty k = 0.029902
        12        11        39        42     9        0.000000       -0.810618         1    ;  uncertainty k = 0.476463
        12        11        39        42     9      180.000000       -0.740441         2    ;  uncertainty k = 0.208397
        12        11        39        42     9        0.000000        0.585176         3    ;  uncertainty k = 0.093112
        12        11        39        42     9      180.000000       -0.179618         4    ;  uncertainty k = 0.029902
        12        11        43        44     9        0.000000       -0.810617         1    ;  uncertainty k = 0.476463
        12        11        43        44     9      180.000000       -0.740442         2    ;  uncertainty k = 0.208397
        12        11        43        44     9        0.000000        0.585176         3    ;  uncertainty k = 0.093112
        12        11        43        44     9      180.000000       -0.179618         4    ;  uncertainty k = 0.029902
        12        11        43        45     9        0.000000       -0.810617         1    ;  uncertainty k = 0.476463
        12        11        43        45     9      180.000000       -0.740442         2    ;  uncertainty k = 0.208397
        12        11        43        45     9        0.000000        0.585176         3    ;  uncertainty k = 0.093112
        12        11        43        45     9      180.000000       -0.179618         4    ;  uncertainty k = 0.029902
        12        11        43        46     9        0.000000       -0.810617         1    ;  uncertainty k = 0.476463
        12        11        43        46     9      180.000000       -0.740442         2    ;  uncertainty k = 0.208397
        12        11        43        46     9        0.000000        0.585176         3    ;  uncertainty k = 0.093112
        12        11        43        46     9      180.000000       -0.179618         4    ;  uncertainty k = 0.029902
        12        15        16        17     9        0.000000       -3.062352         1    ;  uncertainty k = 1.276839
        12        15        16        17     9      180.000000        2.894127         2    ;  uncertainty k = 0.258587
        12        15        16        17     9        0.000000        0.860445         3    ;  uncertainty k = 0.091746
        12        15        16        17     9      180.000000        0.587117         4    ;  uncertainty k = 0.338988
        12        15        16        38     9        0.000000       -0.574293         1    ;  uncertainty k = 2.046093
        12        15        16        38     9      180.000000        3.928919         2    ;  uncertainty k = 1.075275
        12        15        16        38     9        0.000000        0.161227         3    ;  uncertainty k = 0.381109
        12        15        16        38     9      180.000000        0.057219         4    ;  uncertainty k = 0.338212
        12        15        19        18     9        0.000000       -0.720184         1    ;  uncertainty k = 0.363423
        12        15        19        18     9      180.000000        1.466373         2    ;  uncertainty k = 0.671882
        12        15        19        18     9        0.000000        0.362475         3    ;  uncertainty k = 0.242092
        12        15        19        18     9      180.000000        0.276221         4    ;  uncertainty k = 0.143829
        12        15        19        20     9        0.000000        1.014477         1    ;  uncertainty k = 3.207548
        12        15        19        20     9      180.000000       -0.447186         2    ;  uncertainty k = 0.880594
        12        15        19        20     9        0.000000        0.406773         3    ;  uncertainty k = 0.479851
        12        15        19        20     9      180.000000        0.075628         4    ;  uncertainty k = 0.078933
        13        12        11        39     9        0.000000       -0.868529         1    ;  uncertainty k = 0.359709
        13        12        11        39     9      180.000000        0.339049         2    ;  uncertainty k = 0.271426
        13        12        11        39     9        0.000000        0.030221         3    ;  uncertainty k = 0.169820
        13        12        11        39     9      180.000000       -0.198172         4    ;  uncertainty k = 0.102798
        13        12        11        43     9        0.000000       -0.868529         1    ;  uncertainty k = 0.359708
        13        12        11        43     9      180.000000        0.339049         2    ;  uncertainty k = 0.271426
        13        12        11        43     9        0.000000        0.030221         3    ;  uncertainty k = 0.169820
        13        12        11        43     9      180.000000       -0.198172         4    ;  uncertainty k = 0.102797
        13        12        15        16     9        0.000000        0.636693         1    ;  uncertainty k = 0.443881
        13        12        15        16     9      180.000000       -1.082830         2    ;  uncertainty k = 0.432291
        13        12        15        16     9        0.000000        0.083911         3    ;  uncertainty k = 0.203429
        13        12        15        16     9      180.000000       -0.053905         4    ;  uncertainty k = 0.095175
        13        12        15        19     9        0.000000       -1.014378         1    ;  uncertainty k = 0.666771
        13        12        15        19     9      180.000000       -0.206347         2    ;  uncertainty k = 0.431023
        13        12        15        19     9        0.000000        0.529827         3    ;  uncertainty k = 0.228576
        13        12        15        19     9      180.000000       -0.286824         4    ;  uncertainty k = 0.129461
        14        12        11        39     9        0.000000       -0.868529         1    ;  uncertainty k = 0.359709
        14        12        11        39     9      180.000000        0.339049         2    ;  uncertainty k = 0.271426
        14        12        11        39     9        0.000000        0.030221         3    ;  uncertainty k = 0.169820
        14        12        11        39     9      180.000000       -0.198172         4    ;  uncertainty k = 0.102798
        14        12        11        43     9        0.000000       -0.868529         1    ;  uncertainty k = 0.359708
        14        12        11        43     9      180.000000        0.339049         2    ;  uncertainty k = 0.271426
        14        12        11        43     9        0.000000        0.030221         3    ;  uncertainty k = 0.169820
        14        12        11        43     9      180.000000       -0.198172         4    ;  uncertainty k = 0.102797
        14        12        15        16     9        0.000000        0.636693         1    ;  uncertainty k = 0.443881
        14        12        15        16     9      180.000000       -1.082830         2    ;  uncertainty k = 0.432291
        14        12        15        16     9        0.000000        0.083911         3    ;  uncertainty k = 0.203429
        14        12        15        16     9      180.000000       -0.053905         4    ;  uncertainty k = 0.095175
        14        12        15        19     9        0.000000       -1.014378         1    ;  uncertainty k = 0.666771
        14        12        15        19     9      180.000000       -0.206347         2    ;  uncertainty k = 0.431023
        14        12        15        19     9        0.000000        0.529827         3    ;  uncertainty k = 0.228576
        14        12        15        19     9      180.000000       -0.286824         4    ;  uncertainty k = 0.129461
        15        12        11        39     9        0.000000       -0.394043         1    ;  uncertainty k = 0.952251
        15        12        11        39     9      180.000000       -0.298782         2    ;  uncertainty k = 0.210060
        15        12        11        39     9        0.000000        0.102279         3    ;  uncertainty k = 0.252570
        15        12        11        39     9      180.000000       -0.158350         4    ;  uncertainty k = 0.062640
        15        12        11        43     9        0.000000       -0.394043         1    ;  uncertainty k = 0.952250
        15        12        11        43     9      180.000000       -0.298783         2    ;  uncertainty k = 0.210060
        15        12        11        43     9        0.000000        0.102279         3    ;  uncertainty k = 0.252570
        15        12        11        43     9      180.000000       -0.158350         4    ;  uncertainty k = 0.062640
        15        16        17        18     9        0.000000        3.190561         1    ;  uncertainty k = 2.129282
        15        16        17        18     9      180.000000        4.165518         2    ;  uncertainty k = 2.103257
        15        16        17        18     9        0.000000       -0.163634         3    ;  uncertainty k = 0.825879
        15        16        17        18     9      180.000000        0.629686         4    ;  uncertainty k = 0.355315
        15        16        17        22     9        0.000000        4.948398         1    ;  uncertainty k = 2.742746
        15        16        17        22     9      180.000000        3.665595         2    ;  uncertainty k = 2.655463
        15        16        17        22     9        0.000000        1.132038         3    ;  uncertainty k = 0.860259
        15        16        17        22     9      180.000000        0.328976         4    ;  uncertainty k = 0.593114
        15        19        18        17     9        0.000000        1.152348         1    ;  uncertainty k = 2.624975
        15        19        18        17     9      180.000000       15.352878         2    ;  uncertainty k = 0.482590
        15        19        18        17     9        0.000000       -0.706329         3    ;  uncertainty k = 1.011989
        15        19        18        17     9      180.000000       -0.606106         4    ;  uncertainty k = 0.206718
        15        19        18        26     9        0.000000        3.692759         1    ;  uncertainty k = 0.866356
        15        19        18        26     9      180.000000       11.333780         2    ;  uncertainty k = 0.611404
        15        19        18        26     9        0.000000        0.314850         3    ;  uncertainty k = 0.239643
        15        19        18        26     9      180.000000       -0.482788         4    ;  uncertainty k = 0.513934
        16        15        19        18     9        0.000000        1.075900         1    ;  uncertainty k = 0.686752
        16        15        19        18     9      180.000000        2.337056         2    ;  uncertainty k = 0.668401
        16        15        19        18     9        0.000000        0.174345         3    ;  uncertainty k = 0.624029
        16        15        19        18     9      180.000000        0.491041         4    ;  uncertainty k = 0.337525
        16        15        19        20     9        0.000000        1.870131         1    ;  uncertainty k = 2.124002
        16        15        19        20     9      180.000000       -0.788361         2    ;  uncertainty k = 0.765205
        16        15        19        20     9        0.000000        0.063928         3    ;  uncertainty k = 0.474210
        16        15        19        20     9      180.000000        0.018853         4    ;  uncertainty k = 0.243518
        16        17        18        19     9        0.000000       -0.598871         1    ;  uncertainty k = 1.517512
        16        17        18        19     9      180.000000        9.023777         2    ;  uncertainty k = 0.890262
        16        17        18        19     9        0.000000       -1.321226         3    ;  uncertainty k = 1.261849
        16        17        18        19     9      180.000000       -0.043685         4    ;  uncertainty k = 0.510427
        16        17        18        26     9        0.000000       -0.742539         1    ;  uncertainty k = 0.884320
        16        17        18        26     9      180.000000        6.821150         2    ;  uncertainty k = 1.300514
        16        17        18        26     9        0.000000        0.216631         3    ;  uncertainty k = 0.558836
        16        17        18        26     9      180.000000       -0.098970         4    ;  uncertainty k = 0.493923
        16        17        22        23     9        0.000000        0.297431         1    ;  uncertainty k = 0.338022
        16        17        22        23     9      180.000000        0.087168         2    ;  uncertainty k = 0.381934
        16        17        22        23     9        0.000000        0.347193         3    ;  uncertainty k = 0.232215
        16        17        22        23     9      180.000000        0.291096         4    ;  uncertainty k = 0.074538
        16        17        22        24     9        0.000000        0.297431         1    ;  uncertainty k = 0.338022
        16        17        22        24     9      180.000000        0.087168         2    ;  uncertainty k = 0.381934
        16        17        22        24     9        0.000000        0.347193         3    ;  uncertainty k = 0.232215
        16        17        22        24     9      180.000000        0.291096         4    ;  uncertainty k = 0.074538
        16        17        22        25     9        0.000000        0.297431         1    ;  uncertainty k = 0.338022
        16        17        22        25     9      180.000000        0.087168         2    ;  uncertainty k = 0.381934
        16        17        22        25     9        0.000000        0.347193         3    ;  uncertainty k = 0.232215
        16        17        22        25     9      180.000000        0.291096         4    ;  uncertainty k = 0.074538
        17        16        15        19     9        0.000000       -0.734672         1    ;  uncertainty k = 2.407402
        17        16        15        19     9      180.000000        6.965369         2    ;  uncertainty k = 1.234532
        17        16        15        19     9        0.000000        0.624658         3    ;  uncertainty k = 0.577006
        17        16        15        19     9      180.000000        0.290059         4    ;  uncertainty k = 0.846479
        17        18        19        20     9        0.000000        4.051322         1    ;  uncertainty k = 3.391115
        17        18        19        20     9      180.000000       10.697180         2    ;  uncertainty k = 0.526601
        17        18        19        20     9        0.000000        1.093668         3    ;  uncertainty k = 0.752546
        17        18        19        20     9      180.000000       -0.389374         4    ;  uncertainty k = 0.265720
        17        18        26        27     9        0.000000        8.080941         1    ;  uncertainty k = 2.061712
        17        18        26        27     9      180.000000        9.353073         2    ;  uncertainty k = 0.455751
        17        18        26        27     9        0.000000        0.960301         3    ;  uncertainty k = 0.478476
        17        18        26        27     9      180.000000       -0.922267         4    ;  uncertainty k = 0.215681
        17        18        26        28     9        0.000000        8.080941         1    ;  uncertainty k = 2.061712
        17        18        26        28     9      180.000000        9.353073         2    ;  uncertainty k = 0.455751
        17        18        26        28     9        0.000000        0.960301         3    ;  uncertainty k = 0.478476
        17        18        26        28     9      180.000000       -0.922267         4    ;  uncertainty k = 0.215681
        18        17        16        38     9        0.000000       -0.225774         1    ;  uncertainty k = 3.237560
        18        17        16        38     9      180.000000        7.660703         2    ;  uncertainty k = 0.931236
        18        17        16        38     9        0.000000        0.373526         3    ;  uncertainty k = 0.816132
        18        17        16        38     9      180.000000        0.053274         4    ;  uncertainty k = 0.298389
        18        17        22        23     9        0.000000       -0.260671         1    ;  uncertainty k = 0.510831
        18        17        22        23     9      180.000000       -1.123799         2    ;  uncertainty k = 0.505443
        18        17        22        23     9        0.000000        0.381297         3    ;  uncertainty k = 0.163929
        18        17        22        23     9      180.000000        0.194836         4    ;  uncertainty k = 0.041789
        18        17        22        24     9        0.000000       -0.260671         1    ;  uncertainty k = 0.510831
        18        17        22        24     9      180.000000       -1.123799         2    ;  uncertainty k = 0.505443
        18        17        22        24     9        0.000000        0.381297         3    ;  uncertainty k = 0.163929
        18        17        22        24     9      180.000000        0.194836         4    ;  uncertainty k = 0.041789
        18        17        22        25     9        0.000000       -0.260671         1    ;  uncertainty k = 0.510831
        18        17        22        25     9      180.000000       -1.123799         2    ;  uncertainty k = 0.505443
        18        17        22        25     9        0.000000        0.381297         3    ;  uncertainty k = 0.163929
        18        17        22        25     9      180.000000        0.194836         4    ;  uncertainty k = 0.041789
        19        15        16        38     9        0.000000        0.024534         1    ;  uncertainty k = 2.213974
        19        15        16        38     9      180.000000        4.149250         2    ;  uncertainty k = 1.312392
        19        15        16        38     9        0.000000        0.407423         3    ;  uncertainty k = 0.206510
        19        15        16        38     9      180.000000        0.443239         4    ;  uncertainty k = 0.158688
        19        18        17        22     9        0.000000       -0.380136         1    ;  uncertainty k = 2.913081
        19        18        17        22     9      180.000000        8.267784         2    ;  uncertainty k = 0.403615
        19        18        17        22     9        0.000000        0.435757         3    ;  uncertainty k = 0.320054
        19        18        17        22     9      180.000000       -0.156996         4    ;  uncertainty k = 0.291188
        19        18        26        27     9        0.000000        6.366443         1    ;  uncertainty k = 1.644722
        19        18        26        27     9      180.000000       10.049531         2    ;  uncertainty k = 0.349760
        19        18        26        27     9        0.000000        1.357511         3    ;  uncertainty k = 0.507490
        19        18        26        27     9      180.000000       -0.656591         4    ;  uncertainty k = 0.287459
        19        18        26        28     9        0.000000        6.366443         1    ;  uncertainty k = 1.644722
        19        18        26        28     9      180.000000       10.049531         2    ;  uncertainty k = 0.349760
        19        18        26        28     9        0.000000        1.357511         3    ;  uncertainty k = 0.507490
        19        18        26        28     9      180.000000       -0.656591         4    ;  uncertainty k = 0.287459
        20        19        18        26     9        0.000000        1.886192         1    ;  uncertainty k = 2.633103
        20        19        18        26     9      180.000000        7.784175         2    ;  uncertainty k = 1.209625
        20        19        18        26     9        0.000000        0.956054         3    ;  uncertainty k = 0.197633
        20        19        18        26     9      180.000000       -0.247909         4    ;  uncertainty k = 0.316191
        21        29        31        32     9        0.000000        0.191474         1    ;  uncertainty k = 0.079789
        21        29        31        32     9      180.000000        7.647799         2    ;  uncertainty k = 0.565088
        21        29        31        32     9        0.000000        1.461723         3    ;  uncertainty k = 0.373318
        21        29        31        32     9      180.000000        1.848768         4    ;  uncertainty k = 0.075175
        21        29        31        33     9        0.000000       -0.039054         1    ;  uncertainty k = 0.208560
        21        29        31        33     9      180.000000       13.257979         2    ;  uncertainty k = 0.369275
        21        29        31        33     9        0.000000       -1.079502         3    ;  uncertainty k = 0.448709
        21        29        31        33     9      180.000000        0.828259         4    ;  uncertainty k = 0.260650
        21        36        35        33     9        0.000000       -0.399547         1    ;  uncertainty k = 0.718889
        21        36        35        33     9      180.000000        9.530473         2    ;  uncertainty k = 0.548154
        21        36        35        33     9        0.000000        1.938765         3    ;  uncertainty k = 0.493114
        21        36        35        33     9      180.000000        1.201073         4    ;  uncertainty k = 0.081473
        22        17        16        38     9        0.000000       -0.743118         1    ;  uncertainty k = 3.324160
        22        17        16        38     9      180.000000        8.127734         2    ;  uncertainty k = 0.445128
        22        17        16        38     9        0.000000        0.693460         3    ;  uncertainty k = 0.571372
        22        17        16        38     9      180.000000        0.151177         4    ;  uncertainty k = 0.263311
        22        17        18        26     9        0.000000       -0.067505         1    ;  uncertainty k = 0.784520
        22        17        18        26     9      180.000000        6.890792         2    ;  uncertainty k = 0.817474
        22        17        18        26     9        0.000000        0.975121         3    ;  uncertainty k = 0.584566
        22        17        18        26     9      180.000000       -0.011356         4    ;  uncertainty k = 0.268200
        29        21        36        35     9        0.000000       -0.108406         1    ;  uncertainty k = 0.408722
        29        21        36        35     9      180.000000        6.990285         2    ;  uncertainty k = 0.952979
        29        21        36        35     9        0.000000       -0.125520         3    ;  uncertainty k = 0.421478
        29        21        36        35     9      180.000000        1.079229         4    ;  uncertainty k = 0.461487
        29        21        36        37     9        0.000000        0.251748         1    ;  uncertainty k = 0.355614
        29        21        36        37     9      180.000000        7.224766         2    ;  uncertainty k = 0.591741
        29        21        36        37     9        0.000000        1.177700         3    ;  uncertainty k = 0.283289
        29        21        36        37     9      180.000000        1.380232         4    ;  uncertainty k = 0.306136
        29        31        33        34     9        0.000000       -0.191886         1    ;  uncertainty k = 0.229165
        29        31        33        34     9      180.000000        6.493769         2    ;  uncertainty k = 0.194915
        29        31        33        34     9        0.000000        1.208004         3    ;  uncertainty k = 0.249013
        29        31        33        34     9      180.000000        1.517205         4    ;  uncertainty k = 0.155265
        29        31        33        35     9        0.000000        0.065074         1    ;  uncertainty k = 0.294258
        29        31        33        35     9      180.000000       15.929668         2    ;  uncertainty k = 0.139887
        29        31        33        35     9        0.000000       -1.492343         3    ;  uncertainty k = 0.783082
        29        31        33        35     9      180.000000        0.783444         4    ;  uncertainty k = 0.163584
        30        29        21        36     9        0.000000       -0.029680         1    ;  uncertainty k = 0.273777
        30        29        21        36     9      180.000000        7.561695         2    ;  uncertainty k = 0.564022
        30        29        21        36     9        0.000000        1.255938         3    ;  uncertainty k = 0.236451
        30        29        21        36     9      180.000000        1.556049         4    ;  uncertainty k = 0.108425
        30        29        31        32     9        0.000000       -0.046506         1    ;  uncertainty k = 0.170898
        30        29        31        32     9      180.000000        8.023852         2    ;  uncertainty k = 0.376170
        30        29        31        32     9        0.000000       -0.434819         3    ;  uncertainty k = 0.336640
        30        29        31        32     9      180.000000        0.121178         4    ;  uncertainty k = 0.171284
        30        29        31        33     9        0.000000       -0.206090         1    ;  uncertainty k = 0.368451
        30        29        31        33     9      180.000000        7.641687         2    ;  uncertainty k = 0.335101
        30        29        31        33     9        0.000000        1.296012         3    ;  uncertainty k = 0.193849
        30        29        31        33     9      180.000000        1.584671         4    ;  uncertainty k = 0.166491
        31        29        21        36     9        0.000000        0.015621         1    ;  uncertainty k = 0.260007
        31        29        21        36     9      180.000000       11.272547         2    ;  uncertainty k = 0.364929
        31        29        21        36     9        0.000000       -0.372610         3    ;  uncertainty k = 0.545825
        31        29        21        36     9      180.000000        1.037313         4    ;  uncertainty k = 0.516975
        31        33        35        36     9        0.000000       -0.196187         1    ;  uncertainty k = 0.422595
        31        33        35        36     9      180.000000       15.106563         2    ;  uncertainty k = 0.567615
        31        33        35        36     9        0.000000        0.548521         3    ;  uncertainty k = 0.408405
        31        33        35        36     9      180.000000        1.285940         4    ;  uncertainty k = 0.161538
        32        31        33        34     9        0.000000       -0.238584         1    ;  uncertainty k = 0.298933
        32        31        33        34     9      180.000000        6.754041         2    ;  uncertainty k = 0.305899
        32        31        33        34     9        0.000000       -0.030274         3    ;  uncertainty k = 0.155652
        32        31        33        34     9      180.000000        0.246476         4    ;  uncertainty k = 0.076482
        32        31        33        35     9        0.000000        0.032504         1    ;  uncertainty k = 0.209829
        32        31        33        35     9      180.000000        9.988621         2    ;  uncertainty k = 0.613636
        32        31        33        35     9        0.000000        0.888095         3    ;  uncertainty k = 0.300743
        32        31        33        35     9      180.000000        1.663258         4    ;  uncertainty k = 0.115593
        33        35        36        37     9        0.000000        0.196660         1    ;  uncertainty k = 0.571138
        33        35        36        37     9      180.000000       17.392653         2    ;  uncertainty k = 0.512552
        33        35        36        37     9        0.000000        2.893359         3    ;  uncertainty k = 0.256675
        33        35        36        37     9      180.000000        1.794090         4    ;  uncertainty k = 0.281375
        34        33        35        36     9        0.000000       -0.189574         1    ;  uncertainty k = 0.592769
        34        33        35        36     9      180.000000       14.492272         2    ;  uncertainty k = 0.429856
        34        33        35        36     9        0.000000        2.007864         3    ;  uncertainty k = 0.652233
        34        33        35        36     9      180.000000        1.517282         4    ;  uncertainty k = 0.503613
        39        11        43        44     9        0.000000       -1.168307         1    ;  uncertainty k = 0.299692
        39        11        43        44     9      180.000000        0.150758         2    ;  uncertainty k = 0.296599
        39        11        43        44     9        0.000000        0.668939         3    ;  uncertainty k = 0.064920
        39        11        43        44     9      180.000000       -0.104413         4    ;  uncertainty k = 0.091599
        39        11        43        45     9        0.000000       -1.168307         1    ;  uncertainty k = 0.299692
        39        11        43        45     9      180.000000        0.150758         2    ;  uncertainty k = 0.296599
        39        11        43        45     9        0.000000        0.668939         3    ;  uncertainty k = 0.064920
        39        11        43        45     9      180.000000       -0.104413         4    ;  uncertainty k = 0.091599
        39        11        43        46     9        0.000000       -1.168307         1    ;  uncertainty k = 0.299692
        39        11        43        46     9      180.000000        0.150758         2    ;  uncertainty k = 0.296599
        39        11        43        46     9        0.000000        0.668939         3    ;  uncertainty k = 0.064920
        39        11        43        46     9      180.000000       -0.104413         4    ;  uncertainty k = 0.091599
        40        39        11        43     9        0.000000       -1.168308         1    ;  uncertainty k = 0.299692
        40        39        11        43     9      180.000000        0.150758         2    ;  uncertainty k = 0.296599
        40        39        11        43     9        0.000000        0.668939         3    ;  uncertainty k = 0.064920
        40        39        11        43     9      180.000000       -0.104414         4    ;  uncertainty k = 0.091599
        41        39        11        43     9        0.000000       -1.168308         1    ;  uncertainty k = 0.299692
        41        39        11        43     9      180.000000        0.150758         2    ;  uncertainty k = 0.296599
        41        39        11        43     9        0.000000        0.668939         3    ;  uncertainty k = 0.064920
        41        39        11        43     9      180.000000       -0.104414         4    ;  uncertainty k = 0.091599
        42        39        11        43     9        0.000000       -1.168308         1    ;  uncertainty k = 0.299692
        42        39        11        43     9      180.000000        0.150758         2    ;  uncertainty k = 0.296599
        42        39        11        43     9        0.000000        0.668939         3    ;  uncertainty k = 0.064920
        42        39        11        43     9      180.000000       -0.104414         4    ;  uncertainty k = 0.091599

[ dihedrals ] ; impropers
;       ai        aj        ak        al funct           phase               k        pn
         1         2         8        21     4      180.000000       13.854374         2    ;  uncertainty k = 0.089603
         1         8        21         2     4      180.000000       13.854374         2    ;  uncertainty k = 0.089603
         1        21         2         8     4      180.000000       13.854374         2    ;  uncertainty k = 0.089603
         2         1         3         4     4      180.000000        4.720847         2    ;  uncertainty k = 0.238515
         2         3         4         1     4      180.000000        4.720847         2    ;  uncertainty k = 0.238515
         2         4         1         3     4      180.000000        4.720847         2    ;  uncertainty k = 0.238515
         4         2         5         6     4      180.000000        2.020491         2    ;  uncertainty k = 0.231213
         4         5         6         2     4      180.000000        2.020491         2    ;  uncertainty k = 0.231213
         4         6         2         5     4      180.000000        2.020491         2    ;  uncertainty k = 0.231213
         6         4         7        10     4      180.000000       22.038012         2    ;  uncertainty k = 0.126561
         6         7        10         4     4      180.000000       22.038012         2    ;  uncertainty k = 0.126561
         6        10         4         7     4      180.000000       22.038012         2    ;  uncertainty k = 0.126561
         7         6         8        15     4      180.000000       11.799766         2    ;  uncertainty k = 0.245106
         7         8        15         6     4      180.000000       11.799766         2    ;  uncertainty k = 0.245106
         7        15         6         8     4      180.000000       11.799766         2    ;  uncertainty k = 0.245106
         8         1         7         9     4      180.000000        5.158431         2    ;  uncertainty k = 0.408645
         8         7         9         1     4      180.000000        5.158431         2    ;  uncertainty k = 0.408645
         8         9         1         7     4      180.000000        5.158431         2    ;  uncertainty k = 0.408645
        16        15        17        38     4      180.000000       50.512062         2    ;  uncertainty k = 0.072585
        16        17        38        15     4      180.000000       50.512062         2    ;  uncertainty k = 0.072585
        16        38        15        17     4      180.000000       50.512062         2    ;  uncertainty k = 0.072585
        17        16        18        22     4      180.000000        2.066646         2    ;  uncertainty k = 0.825300
        17        18        22        16     4      180.000000        2.066646         2    ;  uncertainty k = 0.825300
        17        22        16        18     4      180.000000        2.066646         2    ;  uncertainty k = 0.825300
        18        17        19        26     4      180.000000       30.892449         2    ;  uncertainty k = 0.146917
        18        19        26        17     4      180.000000       30.892449         2    ;  uncertainty k = 0.146917
        18        26        17        19     4      180.000000       30.892449         2    ;  uncertainty k = 0.146917
        21         1        29        36     4      180.000000       12.543956         2    ;  uncertainty k = 0.173484
        21        29        36         1     4      180.000000       12.543956         2    ;  uncertainty k = 0.173484
        21        36         1        29     4      180.000000       12.543956         2    ;  uncertainty k = 0.173484
        26        18        27        28     4      180.000000        0.184047         2    ;  uncertainty k = 0.411542
        26        27        28        18     4      180.000000        0.184047         2    ;  uncertainty k = 0.411542
        26        28        18        27     4      180.000000        0.184047         2    ;  uncertainty k = 0.411542
        29        21        30        31     4      180.000000        6.179405         2    ;  uncertainty k = 0.034569
        29        30        31        21     4      180.000000        6.179405         2    ;  uncertainty k = 0.034569
        29        31        21        30     4      180.000000        6.179405         2    ;  uncertainty k = 0.034569
        31        29        32        33     4      180.000000        2.234043         2    ;  uncertainty k = 0.272492
        31        32        33        29     4      180.000000        2.234043         2    ;  uncertainty k = 0.272492
        31        33        29        32     4      180.000000        2.234043         2    ;  uncertainty k = 0.272492
        33        31        34        35     4      180.000000       13.272357         2    ;  uncertainty k = 0.073768
        33        34        35        31     4      180.000000       13.272357         2    ;  uncertainty k = 0.073768
        33        35        31        34     4      180.000000       13.272357         2    ;  uncertainty k = 0.073768
        36        21        35        37     4      180.000000       26.840212         2    ;  uncertainty k = 0.097056
        36        35        37        21     4      180.000000       26.840212         2    ;  uncertainty k = 0.097056
        36        37        21        35     4      180.000000       26.840212         2    ;  uncertainty k = 0.097056

[ pairs ]
;       ai        aj funct
         1         5     1
         1         6     1
         1        15     1
         1        30     1
         1        31     1
         1        35     1
         1        37     1
         2         7     1
         2         9     1
         2        10     1
         2        29     1
         2        36     1
         3         5     1
         3         6     1
         3         8     1
         3        21     1
         4         8     1
         4        11     1
         4        15     1
         4        21     1
         5         7     1
         5        10     1
         6         9     1
         6        12     1
         6        16     1
         6        19     1
         6        39     1
         6        43     1
         7        11     1
         7        13     1
         7        14     1
         7        17     1
         7        18     1
         7        20     1
         7        21     1
         7        38     1
         8        10     1
         8        12     1
         8        16     1
         8        19     1
         8        29     1
         8        36     1
         9        15     1
         9        21     1
        10        13     1
        10        14     1
        10        15     1
        10        40     1
        10        41     1
        10        42     1
        10        44     1
        10        45     1
        10        46     1
        11        16     1
        11        19     1
        12        17     1
        12        18     1
        12        20     1
        12        38     1
        12        40     1
        12        41     1
        12        42     1
        12        44     1
        12        45     1
        12        46     1
        13        16     1
        13        19     1
        13        39     1
        13        43     1
        14        16     1
        14        19     1
        14        39     1
        14        43     1
        15        22     1
        15        26     1
        15        39     1
        15        43     1
        16        20     1
        16        23     1
        16        24     1
        16        25     1
        16        26     1
        17        20     1
        17        27     1
        17        28     1
        18        23     1
        18        24     1
        18        25     1
        18        38     1
        19        22     1
        19        27     1
        19        28     1
        19        38     1
        20        26     1
        21        32     1
        21        33     1
        22        26     1
        22        38     1
        29        34     1
        29        35     1
        29        37     1
        30        32     1
        30        33     1
        30        36     1
        31        36     1
        32        34     1
        32        35     1
        33        37     1
        34        36     1
        39        44     1
        39        45     1
        39        46     1
        40        43     1
        41        43     1
        42        43     1
