; ITP file created by ByteFF-joint-25, 2026-03-14 15:23:01.696562

[ atomtypes ]
;name           bonded.type        at.num        mass        charge   ptype           sigma         epsilon
 c0bf                                   6      0.0000       0.00000       A     3.31508e-01     4.13355e-01    ;  uncertainty sigma = 0.000015, epsilon = 0.001235
 c1bf                                   6      0.0000       0.00000       A     3.31531e-01     4.13242e-01    ;  uncertainty sigma = 0.000005, epsilon = 0.000852
 h2bf                                   1      0.0000       0.00000       A     2.62564e-01     6.70914e-02    ;  uncertainty sigma = 0.000015, epsilon = 0.000289
 c3bf                                   6      0.0000       0.00000       A     3.31520e-01     4.13745e-01    ;  uncertainty sigma = 0.000006, epsilon = 0.000763
 h4bf                                   1      0.0000       0.00000       A     2.62556e-01     6.67387e-02    ;  uncertainty sigma = 0.000015, epsilon = 0.000555
 c5bf                                   6      0.0000       0.00000       A     3.31571e-01     4.13102e-01    ;  uncertainty sigma = 0.000023, epsilon = 0.001123
 c6bf                                   6      0.0000       0.00000       A     3.31595e-01     4.12709e-01    ;  uncertainty sigma = 0.000049, epsilon = 0.001316
 c7bf                                   6      0.0000       0.00000       A     3.31500e-01     4.14290e-01    ;  uncertainty sigma = 0.000015, epsilon = 0.000939
 h8bf                                   1      0.0000       0.00000       A     2.62578e-01     6.69230e-02    ;  uncertainty sigma = 0.000029, epsilon = 0.000309
 o9bf                                   8      0.0000       0.00000       A     3.15675e-01     3.03349e-01    ;  uncertainty sigma = 0.000037, epsilon = 0.000709
 c10bf                                  6      0.0000       0.00000       A     3.39754e-01     4.50298e-01    ;  uncertainty sigma = 0.000022, epsilon = 0.001818
 c11bf                                  6      0.0000       0.00000       A     3.39729e-01     4.51261e-01    ;  uncertainty sigma = 0.000015, epsilon = 0.001388
 h12bf                                  1      0.0000       0.00000       A     2.60113e-01     8.69260e-02    ;  uncertainty sigma = 0.000018, epsilon = 0.001362
 h13bf                                  1      0.0000       0.00000       A     2.60113e-01     8.69260e-02    ;  uncertainty sigma = 0.000018, epsilon = 0.001362
 c14bf                                  6      0.0000       0.00000       A     3.39920e-01     4.52187e-01    ;  uncertainty sigma = 0.000044, epsilon = 0.005134
 c15bf                                  6      0.0000       0.00000       A     3.31534e-01     4.13061e-01    ;  uncertainty sigma = 0.000023, epsilon = 0.000770
 n16bf                                  7      0.0000       0.00000       A     3.18159e-01     6.82058e-01    ;  uncertainty sigma = 0.000074, epsilon = 0.006526
 c17bf                                  6      0.0000       0.00000       A     3.31516e-01     4.13029e-01    ;  uncertainty sigma = 0.000046, epsilon = 0.002102
 n18bf                                  7      0.0000       0.00000       A     3.27895e-01     6.51183e-01    ;  uncertainty sigma = 0.000198, epsilon = 0.011723
 h19bf                                  1      0.0000       0.00000       A     1.10796e-01     4.19443e-02    ;  uncertainty sigma = 0.000445, epsilon = 0.001840
 c20bf                                  6      0.0000       0.00000       A     3.39747e-01     4.51374e-01    ;  uncertainty sigma = 0.000011, epsilon = 0.001160
 h21bf                                  1      0.0000       0.00000       A     2.42212e-01     8.67416e-02    ;  uncertainty sigma = 0.000033, epsilon = 0.000677
 h22bf                                  1      0.0000       0.00000       A     2.42212e-01     8.67416e-02    ;  uncertainty sigma = 0.000033, epsilon = 0.000677
 h23bf                                  1      0.0000       0.00000       A     2.42212e-01     8.67416e-02    ;  uncertainty sigma = 0.000033, epsilon = 0.000677
 n24bf                                  7      0.0000       0.00000       A     3.36518e-01     4.71691e-01    ;  uncertainty sigma = 0.000108, epsilon = 0.006012
 h25bf                                  1      0.0000       0.00000       A     1.10696e-01     4.11175e-02    ;  uncertainty sigma = 0.000127, epsilon = 0.001410
 h26bf                                  1      0.0000       0.00000       A     1.10696e-01     4.11175e-02    ;  uncertainty sigma = 0.000127, epsilon = 0.001410
 o27bf                                  8      0.0000       0.00000       A     3.04746e-01     6.12575e-01    ;  uncertainty sigma = 0.000054, epsilon = 0.002454
 c28bf                                  6      0.0000       0.00000       A     3.39769e-01     4.50351e-01    ;  uncertainty sigma = 0.000003, epsilon = 0.001331
 h29bf                                  1      0.0000       0.00000       A     2.60031e-01     8.68009e-02    ;  uncertainty sigma = 0.000006, epsilon = 0.000320
 h30bf                                  1      0.0000       0.00000       A     2.60031e-01     8.68009e-02    ;  uncertainty sigma = 0.000006, epsilon = 0.000320
 h31bf                                  1      0.0000       0.00000       A     2.60031e-01     8.68009e-02    ;  uncertainty sigma = 0.000006, epsilon = 0.000320
 c32bf                                  6      0.0000       0.00000       A     3.39769e-01     4.50351e-01    ;  uncertainty sigma = 0.000003, epsilon = 0.001331
 h33bf                                  1      0.0000       0.00000       A     2.60031e-01     8.68009e-02    ;  uncertainty sigma = 0.000006, epsilon = 0.000320
 h34bf                                  1      0.0000       0.00000       A     2.60031e-01     8.68009e-02    ;  uncertainty sigma = 0.000006, epsilon = 0.000320
 h35bf                                  1      0.0000       0.00000       A     2.60031e-01     8.68009e-02    ;  uncertainty sigma = 0.000006, epsilon = 0.000320
 c36bf                                  6      0.0000       0.00000       A     3.31540e-01     4.13549e-01    ;  uncertainty sigma = 0.000005, epsilon = 0.001080
 o37bf                                  8      0.0000       0.00000       A     3.04818e-01     6.12915e-01    ;  uncertainty sigma = 0.000017, epsilon = 0.001680
 n38bf                                  7      0.0000       0.00000       A     3.27021e-01     4.90866e-01    ;  uncertainty sigma = 0.000016, epsilon = 0.001699
 h39bf                                  1      0.0000       0.00000       A     1.10675e-01     4.16018e-02    ;  uncertainty sigma = 0.000085, epsilon = 0.001056
 c40bf                                  6      0.0000       0.00000       A     3.31529e-01     4.13257e-01    ;  uncertainty sigma = 0.000012, epsilon = 0.000641
 h41bf                                  1      0.0000       0.00000       A     2.62554e-01     6.69157e-02    ;  uncertainty sigma = 0.000023, epsilon = 0.000451
 c42bf                                  6      0.0000       0.00000       A     3.31506e-01     4.13767e-01    ;  uncertainty sigma = 0.000009, epsilon = 0.000912
 h43bf                                  1      0.0000       0.00000       A     2.62549e-01     6.68208e-02    ;  uncertainty sigma = 0.000025, epsilon = 0.000485
 c44bf                                  6      0.0000       0.00000       A     3.31529e-01     4.12820e-01    ;  uncertainty sigma = 0.000016, epsilon = 0.000412
 o45bf                                  8      0.0000       0.00000       A     3.15631e-01     3.03232e-01    ;  uncertainty sigma = 0.000022, epsilon = 0.000303
 c46bf                                  6      0.0000       0.00000       A     3.31529e-01     4.13010e-01    ;  uncertainty sigma = 0.000008, epsilon = 0.000856
 c47bf                                  6      0.0000       0.00000       A     3.39767e-01     4.50977e-01    ;  uncertainty sigma = 0.000008, epsilon = 0.000458
 h48bf                                  1      0.0000       0.00000       A     2.60027e-01     8.67182e-02    ;  uncertainty sigma = 0.000006, epsilon = 0.000390
 h49bf                                  1      0.0000       0.00000       A     2.60027e-01     8.67183e-02    ;  uncertainty sigma = 0.000006, epsilon = 0.000390
 h50bf                                  1      0.0000       0.00000       A     2.60027e-01     8.67182e-02    ;  uncertainty sigma = 0.000006, epsilon = 0.000390

[ moleculetype ]
;name             nrexcl
 MOL                   3

[ atoms ]
;       nr            type      resi   res      atom      cgnr      charge          mass ; qtot
         1            c0bf         1   UNL        c0         1     0.07456       12.0110 ; qtot    0.075
         2            c1bf         1   UNL        c1         2    -0.12065       12.0110 ; qtot   -0.046
         3            h2bf         1   UNL        h2         3     0.15716        1.0080 ; qtot    0.111
         4            c3bf         1   UNL        c3         4    -0.11661       12.0110 ; qtot   -0.006
         5            h4bf         1   UNL        h4         5     0.15646        1.0080 ; qtot    0.151
         6            c5bf         1   UNL        c5         6     0.14896       12.0110 ; qtot    0.300
         7            c6bf         1   UNL        c6         7    -0.17311       12.0110 ; qtot    0.127
         8            c7bf         1   UNL        c7         8    -0.11535       12.0110 ; qtot    0.011
         9            h8bf         1   UNL        h8         9     0.16546        1.0080 ; qtot    0.177
        10            o9bf         1   UNL        o9        10    -0.32599       15.9990 ; qtot   -0.149
        11           c10bf         1   UNL       c10        11     0.16563       12.0110 ; qtot    0.017
        12           c11bf         1   UNL       c11        12    -0.09886       12.0110 ; qtot   -0.082
        13           h12bf         1   UNL       h12        13     0.09101        1.0080 ; qtot    0.009
        14           h13bf         1   UNL       h13        14     0.09101        1.0080 ; qtot    0.100
        15           c14bf         1   UNL       c14        15     0.03852       12.0110 ; qtot    0.138
        16           c15bf         1   UNL       c15        16     0.70434       12.0110 ; qtot    0.843
        17           n16bf         1   UNL       n16        17    -0.41729       14.0070 ; qtot    0.425
        18           c17bf         1   UNL       c17        18     0.47248       12.0110 ; qtot    0.898
        19           n18bf         1   UNL       n18        19    -0.37452       14.0070 ; qtot    0.523
        20           h19bf         1   UNL       h19        20     0.35504        1.0080 ; qtot    0.878
        21           c20bf         1   UNL       c20        21     0.07530       12.0110 ; qtot    0.954
        22           h21bf         1   UNL       h21        22     0.09109        1.0080 ; qtot    1.045
        23           h22bf         1   UNL       h22        23     0.09109        1.0080 ; qtot    1.136
        24           h23bf         1   UNL       h23        24     0.09109        1.0080 ; qtot    1.227
        25           n24bf         1   UNL       n24        25    -0.48596       14.0070 ; qtot    0.741
        26           h25bf         1   UNL       h25        26     0.33929        1.0080 ; qtot    1.080
        27           h26bf         1   UNL       h26        27     0.33929        1.0080 ; qtot    1.419
        28           o27bf         1   UNL       o27        28    -0.45182       15.9990 ; qtot    0.968
        29           c28bf         1   UNL       c28        29    -0.10337       12.0110 ; qtot    0.864
        30           h29bf         1   UNL       h29        30     0.05101        1.0080 ; qtot    0.915
        31           h30bf         1   UNL       h30        31     0.05101        1.0080 ; qtot    0.966
        32           h31bf         1   UNL       h31        32     0.05101        1.0080 ; qtot    1.017
        33           c32bf         1   UNL       c32        33    -0.10337       12.0110 ; qtot    0.914
        34           h33bf         1   UNL       h33        34     0.05101        1.0080 ; qtot    0.965
        35           h34bf         1   UNL       h34        35     0.05101        1.0080 ; qtot    1.016
        36           h35bf         1   UNL       h35        36     0.05101        1.0080 ; qtot    1.067
        37           c36bf         1   UNL       c36        37     0.61117       12.0110 ; qtot    1.678
        38           o37bf         1   UNL       o37        38    -0.56033       15.9990 ; qtot    1.118
        39           n38bf         1   UNL       n38        39    -0.47054       14.0070 ; qtot    0.647
        40           h39bf         1   UNL       h39        40     0.33030        1.0080 ; qtot    0.978
        41           c40bf         1   UNL       c40        41    -0.28264       12.0110 ; qtot    0.695
        42           h41bf         1   UNL       h41        42     0.16511        1.0080 ; qtot    0.860
        43           c42bf         1   UNL       c42        43    -0.19202       12.0110 ; qtot    0.668
        44           h43bf         1   UNL       h43        44     0.17084        1.0080 ; qtot    0.839
        45           c44bf         1   UNL       c44        45     0.16140       12.0110 ; qtot    1.000
        46           o45bf         1   UNL       o45        46    -0.32762       15.9990 ; qtot    0.673
        47           c46bf         1   UNL       c46        47     0.28437       12.0110 ; qtot    0.957
        48           c47bf         1   UNL       c47        48    -0.12614       12.0110 ; qtot    0.831
        49           h48bf         1   UNL       h48        49     0.05638        1.0080 ; qtot    0.887
        50           h49bf         1   UNL       h49        50     0.05638        1.0080 ; qtot    0.944
        51           h50bf         1   UNL       h50        51     0.05640        1.0080 ; qtot    1.000

[ bonds ]
;       ai        aj funct               r               k
         1         2     1        0.140435   350713.942676    ;  uncertainty r = 0.000047, k = 5.011093
         1         8     1        0.139839   348223.359473    ;  uncertainty r = 0.000082, k = 7.382156
         1        39     1        0.140642   318571.557812    ;  uncertainty r = 0.000114, k = 5.875053
         2         3     1        0.108615   335891.744727    ;  uncertainty r = 0.000032, k = 1.983094
         2         4     1        0.138671   377678.193408    ;  uncertainty r = 0.000067, k = 3.821921
         4         5     1        0.108759   336353.098145    ;  uncertainty r = 0.000019, k = 1.612295
         4         6     1        0.140070   361037.191455    ;  uncertainty r = 0.000118, k = 4.063726
         6         7     1        0.139838   328044.395312    ;  uncertainty r = 0.000206, k = 7.072857
         6        10     1        0.136633   304765.430371    ;  uncertainty r = 0.000176, k = 11.275189
         7         8     1        0.139481   348111.609082    ;  uncertainty r = 0.000110, k = 5.786698
         7        15     1        0.150649   206143.884741    ;  uncertainty r = 0.000143, k = 23.334051
         8         9     1        0.108655   335464.176904    ;  uncertainty r = 0.000077, k = 4.114885
        10        11     1        0.145422   203859.641382    ;  uncertainty r = 0.000221, k = 9.275520
        11        12     1        0.152936   192803.911694    ;  uncertainty r = 0.000262, k = 11.274596
        11        29     1        0.152325   205847.654272    ;  uncertainty r = 0.000037, k = 5.592256
        11        33     1        0.152325   205847.654272    ;  uncertainty r = 0.000037, k = 5.592256
        12        13     1        0.109477   309561.503809    ;  uncertainty r = 0.000048, k = 2.448473
        12        14     1        0.109477   309561.503809    ;  uncertainty r = 0.000048, k = 2.448473
        12        15     1        0.153030   191108.081641    ;  uncertainty r = 0.000125, k = 21.454183
        15        16     1        0.153575   171555.198022    ;  uncertainty r = 0.000177, k = 14.313813
        15        19     1        0.149699   231904.379980    ;  uncertainty r = 0.000407, k = 52.472650
        16        17     1        0.142413   302839.344971    ;  uncertainty r = 0.000236, k = 75.996174
        16        28     1        0.120112   608584.455469    ;  uncertainty r = 0.000161, k = 10.569144
        17        18     1        0.135836   286250.770703    ;  uncertainty r = 0.000260, k = 52.766102
        17        21     1        0.146741   261825.572607    ;  uncertainty r = 0.000154, k = 17.700649
        18        19     1        0.133610   531287.609180    ;  uncertainty r = 0.000191, k = 37.526813
        18        25     1        0.133101   320485.564160    ;  uncertainty r = 0.000146, k = 40.823703
        19        20     1        0.101578   423262.955127    ;  uncertainty r = 0.000083, k = 11.557068
        21        22     1        0.109172   309495.286084    ;  uncertainty r = 0.000053, k = 3.597993
        21        23     1        0.109172   309495.286084    ;  uncertainty r = 0.000053, k = 3.597993
        21        24     1        0.109172   309495.286084    ;  uncertainty r = 0.000053, k = 3.597993
        25        26     1        0.101405   421785.684424    ;  uncertainty r = 0.000064, k = 13.590764
        25        27     1        0.101405   421785.735498    ;  uncertainty r = 0.000064, k = 13.590763
        29        30     1        0.109545   310467.177393    ;  uncertainty r = 0.000018, k = 1.787242
        29        31     1        0.109545   310467.177393    ;  uncertainty r = 0.000018, k = 1.787242
        29        32     1        0.109545   310467.177393    ;  uncertainty r = 0.000018, k = 1.787242
        33        34     1        0.109545   310467.177393    ;  uncertainty r = 0.000018, k = 1.787242
        33        35     1        0.109545   310467.177393    ;  uncertainty r = 0.000018, k = 1.787242
        33        36     1        0.109545   310467.177393    ;  uncertainty r = 0.000018, k = 1.787242
        37        38     1        0.123186   686966.731055    ;  uncertainty r = 0.000072, k = 2.680802
        37        39     1        0.137811   298771.385596    ;  uncertainty r = 0.000045, k = 9.212105
        37        45     1        0.146984   258140.388965    ;  uncertainty r = 0.000056, k = 16.311437
        39        40     1        0.101647   424692.828955    ;  uncertainty r = 0.000066, k = 3.766809
        41        42     1        0.108342   336990.555469    ;  uncertainty r = 0.000029, k = 1.055163
        41        43     1        0.142924   296354.400342    ;  uncertainty r = 0.000056, k = 2.918581
        41        47     1        0.137283   429687.913086    ;  uncertainty r = 0.000081, k = 4.275961
        43        44     1        0.108162   337633.477734    ;  uncertainty r = 0.000020, k = 2.788518
        43        45     1        0.137185   417180.219971    ;  uncertainty r = 0.000050, k = 4.197828
        45        46     1        0.137716   274707.639746    ;  uncertainty r = 0.000075, k = 7.201893
        46        47     1        0.136674   280076.561621    ;  uncertainty r = 0.000072, k = 11.114933
        47        48     1        0.149006   245758.108594    ;  uncertainty r = 0.000033, k = 3.533232
        48        49     1        0.109505   310640.216846    ;  uncertainty r = 0.000024, k = 1.221200
        48        50     1        0.109505   310640.216846    ;  uncertainty r = 0.000024, k = 1.221194
        48        51     1        0.109505   310640.216846    ;  uncertainty r = 0.000024, k = 1.221191

[ angles ]
;       ai        aj        ak funct           theta             cth
         1         2         3     1      118.822838      267.089467    ;  uncertainty theta = 0.001517, k = 0.088668
         1         2         4     1      119.030411      500.309001    ;  uncertainty theta = 0.002816, k = 0.063705
         1         8         7     1      121.517860      497.192197    ;  uncertainty theta = 0.005044, k = 0.377053
         1         8         9     1      118.907059      282.784861    ;  uncertainty theta = 0.004148, k = 0.213053
         1        39        37     1      118.306381      435.707584    ;  uncertainty theta = 0.004662, k = 0.120766
         1        39        40     1      113.428627      314.768176    ;  uncertainty theta = 0.005438, k = 0.158622
         2         1         8     1      119.814270      389.463774    ;  uncertainty theta = 0.009893, k = 0.151932
         2         1        39     1      120.048080      509.134467    ;  uncertainty theta = 0.005115, k = 0.118649
         2         4         5     1      120.903763      275.815050    ;  uncertainty theta = 0.001858, k = 0.027756
         2         4         6     1      119.970238      493.726652    ;  uncertainty theta = 0.003644, k = 0.177066
         3         2         4     1      120.121536      310.793388    ;  uncertainty theta = 0.001593, k = 0.056045
         4         6         7     1      120.853561      372.238355    ;  uncertainty theta = 0.003256, k = 0.124390
         4         6        10     1      118.431229      539.530043    ;  uncertainty theta = 0.002472, k = 0.087125
         5         4         6     1      120.033646      276.011909    ;  uncertainty theta = 0.003508, k = 0.159315
         6         7         8     1      121.760925      430.096443    ;  uncertainty theta = 0.005131, k = 0.162437
         6         7        15     1      119.873428      415.570009    ;  uncertainty theta = 0.010487, k = 0.226411
         6        10        11     1      114.491371      452.983375    ;  uncertainty theta = 0.006776, k = 0.085134
         7         6        10     1      123.884865      500.014622    ;  uncertainty theta = 0.004236, k = 0.275542
         7         8         9     1      118.377930      275.589781    ;  uncertainty theta = 0.004797, k = 0.077240
         7        15        12     1      110.325989      540.413500    ;  uncertainty theta = 0.000882, k = 0.149475
         7        15        16     1      109.007324      467.510479    ;  uncertainty theta = 0.004300, k = 0.389592
         7        15        19     1      110.467285      613.310327    ;  uncertainty theta = 0.004389, k = 0.301474
         8         1        39     1      119.229630      505.375628    ;  uncertainty theta = 0.004303, k = 0.201266
         8         7        15     1      117.838547      395.627347    ;  uncertainty theta = 0.006542, k = 0.199013
        10        11        12     1      109.104774      651.855785    ;  uncertainty theta = 0.004859, k = 0.084503
        10        11        29     1      107.605125      619.338362    ;  uncertainty theta = 0.001081, k = 0.064685
        10        11        33     1      107.605125      619.338362    ;  uncertainty theta = 0.001081, k = 0.064685
        11        12        13     1      107.678444      386.201185    ;  uncertainty theta = 0.003165, k = 0.032000
        11        12        14     1      107.678444      386.201185    ;  uncertainty theta = 0.003165, k = 0.032000
        11        12        15     1      109.865982      530.115916    ;  uncertainty theta = 0.007007, k = 0.198499
        11        29        30     1      107.221069      387.594393    ;  uncertainty theta = 0.001065, k = 0.069193
        11        29        31     1      107.221069      387.594393    ;  uncertainty theta = 0.001065, k = 0.069193
        11        29        32     1      107.221069      387.594393    ;  uncertainty theta = 0.001065, k = 0.069193
        11        33        34     1      107.221069      387.594393    ;  uncertainty theta = 0.001065, k = 0.069193
        11        33        35     1      107.221069      387.594393    ;  uncertainty theta = 0.001065, k = 0.069193
        11        33        36     1      107.221069      387.594393    ;  uncertainty theta = 0.001065, k = 0.069193
        12        11        29     1      109.374954      548.046988    ;  uncertainty theta = 0.004356, k = 0.115347
        12        11        33     1      109.374954      548.046988    ;  uncertainty theta = 0.004356, k = 0.115347
        12        15        16     1      107.807640      449.058641    ;  uncertainty theta = 0.006959, k = 0.164889
        12        15        19     1      109.805885      627.619217    ;  uncertainty theta = 0.008012, k = 0.273827
        13        12        14     1      106.986496      321.844700    ;  uncertainty theta = 0.004263, k = 0.066652
        13        12        15     1      106.656738      397.491651    ;  uncertainty theta = 0.003074, k = 0.080928
        14        12        15     1      106.656738      397.491651    ;  uncertainty theta = 0.003074, k = 0.080928
        15        16        17     1      110.182816      536.716301    ;  uncertainty theta = 0.011663, k = 0.714488
        15        16        28     1      125.851418      424.735661    ;  uncertainty theta = 0.006639, k = 0.212514
        15        19        18     1      111.008682      602.050505    ;  uncertainty theta = 0.016377, k = 0.389973
        15        19        20     1      118.117897      280.370455    ;  uncertainty theta = 0.015496, k = 0.122423
        16        15        19     1      103.827660      815.855804    ;  uncertainty theta = 0.012091, k = 0.857398
        16        17        18     1      110.293701      728.609291    ;  uncertainty theta = 0.010426, k = 0.320486
        16        17        21     1      119.398109      397.513773    ;  uncertainty theta = 0.006832, k = 0.281808
        17        16        28     1      125.307961      629.051912    ;  uncertainty theta = 0.008036, k = 0.165829
        17        18        19     1      113.250023      720.106327    ;  uncertainty theta = 0.006756, k = 0.305315
        17        18        25     1      125.598953      549.524885    ;  uncertainty theta = 0.008546, k = 0.324469
        17        21        22     1      107.360855      470.851946    ;  uncertainty theta = 0.002522, k = 0.203983
        17        21        23     1      107.360855      470.851946    ;  uncertainty theta = 0.002522, k = 0.203983
        17        21        24     1      107.360855      470.851946    ;  uncertainty theta = 0.002522, k = 0.203983
        18        17        21     1      118.646042      371.786540    ;  uncertainty theta = 0.007230, k = 0.373049
        18        19        20     1      119.824707      355.581520    ;  uncertainty theta = 0.006083, k = 0.153034
        18        25        26     1      114.903091      371.138312    ;  uncertainty theta = 0.001582, k = 0.210952
        18        25        27     1      114.903091      371.138312    ;  uncertainty theta = 0.001582, k = 0.210952
        19        18        25     1      128.730377      637.313550    ;  uncertainty theta = 0.008927, k = 0.256741
        22        21        23     1      107.634499      325.466948    ;  uncertainty theta = 0.003233, k = 0.098676
        22        21        24     1      107.634499      325.466948    ;  uncertainty theta = 0.003233, k = 0.098676
        23        21        24     1      107.634499      325.466948    ;  uncertainty theta = 0.003233, k = 0.098676
        26        25        27     1      112.323524      263.743259    ;  uncertainty theta = 0.015210, k = 0.362876
        29        11        33     1      110.900230      580.347218    ;  uncertainty theta = 0.002949, k = 0.067890
        30        29        31     1      106.043396      316.610518    ;  uncertainty theta = 0.000878, k = 0.018252
        30        29        32     1      106.043396      316.610518    ;  uncertainty theta = 0.000878, k = 0.018252
        31        29        32     1      106.043396      316.610518    ;  uncertainty theta = 0.000878, k = 0.018252
        34        33        35     1      106.043396      316.610518    ;  uncertainty theta = 0.000878, k = 0.018252
        34        33        36     1      106.043396      316.610518    ;  uncertainty theta = 0.000878, k = 0.018252
        35        33        36     1      106.043396      316.610518    ;  uncertainty theta = 0.000878, k = 0.018252
        37        39        40     1      116.605263      339.243292    ;  uncertainty theta = 0.005188, k = 0.130611
        37        45        43     1      131.068665      277.121561    ;  uncertainty theta = 0.009609, k = 0.280169
        37        45        46     1      114.567116      369.762692    ;  uncertainty theta = 0.006248, k = 0.227907
        38        37        39     1      122.817062      743.412451    ;  uncertainty theta = 0.001775, k = 0.091421
        38        37        45     1      121.099976      489.516317    ;  uncertainty theta = 0.004527, k = 0.076969
        39        37        45     1      112.907654      454.699660    ;  uncertainty theta = 0.005161, k = 0.064763
        41        43        44     1      124.847656      239.815243    ;  uncertainty theta = 0.002271, k = 0.070205
        41        43        45     1      106.051392      752.123159    ;  uncertainty theta = 0.005358, k = 0.105765
        41        47        46     1      111.333946      638.880380    ;  uncertainty theta = 0.003548, k = 0.066227
        41        47        48     1      134.490952      339.154104    ;  uncertainty theta = 0.002525, k = 0.114730
        42        41        43     1      124.765381      244.994808    ;  uncertainty theta = 0.000854, k = 0.106122
        42        41        47     1      122.947632      240.462066    ;  uncertainty theta = 0.001645, k = 0.108263
        43        41        47     1      105.759567      744.352217    ;  uncertainty theta = 0.001859, k = 0.068592
        43        45        46     1      111.891357      613.476191    ;  uncertainty theta = 0.005885, k = 0.146493
        44        43        45     1      124.223557      230.744031    ;  uncertainty theta = 0.002375, k = 0.088469
        45        46        47     1      108.693947     1036.860907    ;  uncertainty theta = 0.002556, k = 0.058228
        46        47        48     1      115.606895      434.621108    ;  uncertainty theta = 0.002097, k = 0.091361
        47        48        49     1      109.227829      410.994430    ;  uncertainty theta = 0.000608, k = 0.037948
        47        48        50     1      109.227829      410.994430    ;  uncertainty theta = 0.000608, k = 0.037948
        47        48        51     1      109.227829      410.994430    ;  uncertainty theta = 0.000608, k = 0.037948
        49        48        50     1      106.857864      312.803095    ;  uncertainty theta = 0.000938, k = 0.022709
        49        48        51     1      106.857864      312.803095    ;  uncertainty theta = 0.000938, k = 0.022709
        50        48        51     1      106.857864      312.803095    ;  uncertainty theta = 0.000938, k = 0.022709

[ dihedrals ] ; propers for gromacs 4.5 or higher, use funct 9
;       ai        aj        ak        al funct           phase               k        pn
         1         2         4         5     9        0.000000        0.022423         1    ;  uncertainty k = 0.359544
         1         2         4         5     9      180.000000        8.721936         2    ;  uncertainty k = 0.375158
         1         2         4         5     9        0.000000        1.269605         3    ;  uncertainty k = 0.318705
         1         2         4         5     9      180.000000        1.745775         4    ;  uncertainty k = 0.100870
         1         2         4         6     9        0.000000       -0.208439         1    ;  uncertainty k = 0.162643
         1         2         4         6     9      180.000000       14.214603         2    ;  uncertainty k = 0.237683
         1         2         4         6     9        0.000000       -0.426286         3    ;  uncertainty k = 0.451793
         1         2         4         6     9      180.000000        0.850725         4    ;  uncertainty k = 0.288169
         1         8         7         6     9        0.000000       -0.259537         1    ;  uncertainty k = 0.289234
         1         8         7         6     9      180.000000       11.008579         2    ;  uncertainty k = 0.769191
         1         8         7         6     9        0.000000       -0.222747         3    ;  uncertainty k = 0.322297
         1         8         7         6     9      180.000000        1.018608         4    ;  uncertainty k = 0.487013
         1         8         7        15     9        0.000000        0.182575         1    ;  uncertainty k = 0.281423
         1         8         7        15     9      180.000000        8.460714         2    ;  uncertainty k = 0.638093
         1         8         7        15     9        0.000000        1.598428         3    ;  uncertainty k = 0.160951
         1         8         7        15     9      180.000000        1.876913         4    ;  uncertainty k = 0.239082
         1        39        37        38     9        0.000000        1.705130         1    ;  uncertainty k = 1.285912
         1        39        37        38     9      180.000000       10.706426         2    ;  uncertainty k = 0.132382
         1        39        37        38     9        0.000000        1.070269         3    ;  uncertainty k = 0.317374
         1        39        37        38     9      180.000000       -0.231432         4    ;  uncertainty k = 0.324752
         1        39        37        45     9        0.000000        6.568362         1    ;  uncertainty k = 1.033000
         1        39        37        45     9      180.000000       10.168109         2    ;  uncertainty k = 0.335615
         1        39        37        45     9        0.000000        1.138038         3    ;  uncertainty k = 0.308445
         1        39        37        45     9      180.000000       -1.251450         4    ;  uncertainty k = 0.552998
         2         1         8         7     9        0.000000        0.011018         1    ;  uncertainty k = 0.211812
         2         1         8         7     9      180.000000        8.714735         2    ;  uncertainty k = 0.376057
         2         1         8         7     9        0.000000        0.328798         3    ;  uncertainty k = 0.288272
         2         1         8         7     9      180.000000        1.422713         4    ;  uncertainty k = 0.373562
         2         1         8         9     9        0.000000        0.073606         1    ;  uncertainty k = 0.236013
         2         1         8         9     9      180.000000        7.178025         2    ;  uncertainty k = 0.467445
         2         1         8         9     9        0.000000        1.382313         3    ;  uncertainty k = 0.230239
         2         1         8         9     9      180.000000        1.523701         4    ;  uncertainty k = 0.134386
         2         1        39        37     9        0.000000        1.220740         1    ;  uncertainty k = 0.437161
         2         1        39        37     9      180.000000        4.139214         2    ;  uncertainty k = 0.136340
         2         1        39        37     9        0.000000        0.976629         3    ;  uncertainty k = 0.173697
         2         1        39        37     9      180.000000        0.320422         4    ;  uncertainty k = 0.070034
         2         1        39        40     9        0.000000        0.447956         1    ;  uncertainty k = 0.833491
         2         1        39        40     9      180.000000        3.620697         2    ;  uncertainty k = 0.140256
         2         1        39        40     9        0.000000        0.645148         3    ;  uncertainty k = 0.202723
         2         1        39        40     9      180.000000        0.491816         4    ;  uncertainty k = 0.069516
         2         4         6         7     9        0.000000        0.178023         1    ;  uncertainty k = 0.500080
         2         4         6         7     9      180.000000        7.809433         2    ;  uncertainty k = 0.690476
         2         4         6         7     9        0.000000        0.257024         3    ;  uncertainty k = 0.419106
         2         4         6         7     9      180.000000        1.337951         4    ;  uncertainty k = 0.211169
         2         4         6        10     9        0.000000        0.336309         1    ;  uncertainty k = 0.244569
         2         4         6        10     9      180.000000       11.396096         2    ;  uncertainty k = 0.387995
         2         4         6        10     9        0.000000        1.344172         3    ;  uncertainty k = 0.215825
         2         4         6        10     9      180.000000        1.562026         4    ;  uncertainty k = 0.175564
         3         2         1         8     9        0.000000        0.193259         1    ;  uncertainty k = 0.484707
         3         2         1         8     9      180.000000        6.477038         2    ;  uncertainty k = 0.353703
         3         2         1         8     9        0.000000        1.205660         3    ;  uncertainty k = 0.328172
         3         2         1         8     9      180.000000        1.493870         4    ;  uncertainty k = 0.178251
         3         2         1        39     9        0.000000       -0.196595         1    ;  uncertainty k = 0.301784
         3         2         1        39     9      180.000000        8.269537         2    ;  uncertainty k = 0.496336
         3         2         1        39     9        0.000000        0.771168         3    ;  uncertainty k = 0.224606
         3         2         1        39     9      180.000000        1.129973         4    ;  uncertainty k = 0.176978
         3         2         4         5     9        0.000000       -0.203692         1    ;  uncertainty k = 0.469801
         3         2         4         5     9      180.000000        8.071430         2    ;  uncertainty k = 0.322444
         3         2         4         5     9        0.000000       -0.353782         3    ;  uncertainty k = 0.428478
         3         2         4         5     9      180.000000        0.221160         4    ;  uncertainty k = 0.218247
         3         2         4         6     9        0.000000        0.324175         1    ;  uncertainty k = 0.409560
         3         2         4         6     9      180.000000        8.941164         2    ;  uncertainty k = 0.354633
         3         2         4         6     9        0.000000        1.350445         3    ;  uncertainty k = 0.324546
         3         2         4         6     9      180.000000        1.732857         4    ;  uncertainty k = 0.242593
         4         2         1         8     9        0.000000       -0.266200         1    ;  uncertainty k = 0.252982
         4         2         1         8     9      180.000000        9.088285         2    ;  uncertainty k = 0.297402
         4         2         1         8     9        0.000000        0.001024         3    ;  uncertainty k = 0.104007
         4         2         1         8     9      180.000000        1.291439         4    ;  uncertainty k = 0.180287
         4         2         1        39     9        0.000000        0.082378         1    ;  uncertainty k = 0.281648
         4         2         1        39     9      180.000000       10.371759         2    ;  uncertainty k = 0.439844
         4         2         1        39     9        0.000000        1.038993         3    ;  uncertainty k = 0.455420
         4         2         1        39     9      180.000000        1.628605         4    ;  uncertainty k = 0.228484
         4         6         7         8     9        0.000000       -0.078461         1    ;  uncertainty k = 0.132174
         4         6         7         8     9      180.000000        7.113125         2    ;  uncertainty k = 0.422695
         4         6         7         8     9        0.000000        0.379893         3    ;  uncertainty k = 0.261093
         4         6         7         8     9      180.000000        1.383076         4    ;  uncertainty k = 0.240588
         4         6         7        15     9        0.000000        0.382561         1    ;  uncertainty k = 0.220926
         4         6         7        15     9      180.000000        5.106673         2    ;  uncertainty k = 0.425940
         4         6         7        15     9        0.000000        1.462061         3    ;  uncertainty k = 0.251803
         4         6         7        15     9      180.000000        1.655825         4    ;  uncertainty k = 0.234062
         4         6        10        11     9        0.000000       -0.177152         1    ;  uncertainty k = 0.754302
         4         6        10        11     9      180.000000        0.682075         2    ;  uncertainty k = 0.574100
         4         6        10        11     9        0.000000        0.837216         3    ;  uncertainty k = 0.201083
         4         6        10        11     9      180.000000        0.263183         4    ;  uncertainty k = 0.183902
         5         4         6         7     9        0.000000        0.327119         1    ;  uncertainty k = 0.510003
         5         4         6         7     9      180.000000        5.684314         2    ;  uncertainty k = 0.546993
         5         4         6         7     9        0.000000        1.301417         3    ;  uncertainty k = 0.187381
         5         4         6         7     9      180.000000        1.377859         4    ;  uncertainty k = 0.151922
         5         4         6        10     9        0.000000       -0.139759         1    ;  uncertainty k = 0.627808
         5         4         6        10     9      180.000000        8.716170         2    ;  uncertainty k = 0.456978
         5         4         6        10     9        0.000000        0.771748         3    ;  uncertainty k = 0.290673
         5         4         6        10     9      180.000000        1.254498         4    ;  uncertainty k = 0.266886
         6         7         8         9     9        0.000000        0.259607         1    ;  uncertainty k = 0.590774
         6         7         8         9     9      180.000000        8.210741         2    ;  uncertainty k = 1.006327
         6         7         8         9     9        0.000000        1.314477         3    ;  uncertainty k = 0.289538
         6         7         8         9     9      180.000000        1.630851         4    ;  uncertainty k = 0.147414
         6         7        15        12     9        0.000000       -0.602454         1    ;  uncertainty k = 1.348016
         6         7        15        12     9      180.000000        0.652600         2    ;  uncertainty k = 0.699958
         6         7        15        12     9        0.000000        0.294132         3    ;  uncertainty k = 0.276764
         6         7        15        12     9      180.000000        0.256746         4    ;  uncertainty k = 0.216554
         6         7        15        16     9        0.000000        2.049251         1    ;  uncertainty k = 2.561075
         6         7        15        16     9      180.000000        0.566182         2    ;  uncertainty k = 1.070660
         6         7        15        16     9        0.000000        0.458094         3    ;  uncertainty k = 0.318003
         6         7        15        16     9      180.000000        0.331835         4    ;  uncertainty k = 0.200909
         6         7        15        19     9        0.000000       -1.832934         1    ;  uncertainty k = 1.662093
         6         7        15        19     9      180.000000        1.391173         2    ;  uncertainty k = 0.417390
         6         7        15        19     9        0.000000        0.620788         3    ;  uncertainty k = 0.460474
         6         7        15        19     9      180.000000        0.012310         4    ;  uncertainty k = 0.178211
         6        10        11        12     9        0.000000        4.475088         1    ;  uncertainty k = 0.581989
         6        10        11        12     9      180.000000       -1.691669         2    ;  uncertainty k = 1.214602
         6        10        11        12     9        0.000000       -0.447221         3    ;  uncertainty k = 0.487943
         6        10        11        12     9      180.000000        0.324078         4    ;  uncertainty k = 0.240602
         6        10        11        29     9        0.000000       -1.352121         1    ;  uncertainty k = 0.491095
         6        10        11        29     9      180.000000        1.144466         2    ;  uncertainty k = 0.713869
         6        10        11        29     9        0.000000        0.437507         3    ;  uncertainty k = 0.219856
         6        10        11        29     9      180.000000        0.164056         4    ;  uncertainty k = 0.182646
         6        10        11        33     9        0.000000       -1.352121         1    ;  uncertainty k = 0.491095
         6        10        11        33     9      180.000000        1.144466         2    ;  uncertainty k = 0.713869
         6        10        11        33     9        0.000000        0.437507         3    ;  uncertainty k = 0.219856
         6        10        11        33     9      180.000000        0.164056         4    ;  uncertainty k = 0.182646
         7         6        10        11     9        0.000000        4.534719         1    ;  uncertainty k = 1.774395
         7         6        10        11     9      180.000000       -1.917438         2    ;  uncertainty k = 1.312900
         7         6        10        11     9        0.000000       -0.494411         3    ;  uncertainty k = 0.670621
         7         6        10        11     9      180.000000        0.631880         4    ;  uncertainty k = 0.278328
         7         8         1        39     9        0.000000        0.011481         1    ;  uncertainty k = 0.208225
         7         8         1        39     9      180.000000       10.255909         2    ;  uncertainty k = 0.476321
         7         8         1        39     9        0.000000        1.387306         3    ;  uncertainty k = 0.329582
         7         8         1        39     9      180.000000        1.615800         4    ;  uncertainty k = 0.370734
         7        15        12        11     9        0.000000        2.446353         1    ;  uncertainty k = 2.010555
         7        15        12        11     9      180.000000       -1.135521         2    ;  uncertainty k = 0.462439
         7        15        12        11     9        0.000000        0.341287         3    ;  uncertainty k = 0.221418
         7        15        12        11     9      180.000000       -0.306720         4    ;  uncertainty k = 0.241132
         7        15        12        13     9        0.000000       -0.173641         1    ;  uncertainty k = 0.104142
         7        15        12        13     9      180.000000        0.078578         2    ;  uncertainty k = 0.483312
         7        15        12        13     9        0.000000        0.446622         3    ;  uncertainty k = 0.217089
         7        15        12        13     9      180.000000       -0.093476         4    ;  uncertainty k = 0.135779
         7        15        12        14     9        0.000000       -0.173641         1    ;  uncertainty k = 0.104142
         7        15        12        14     9      180.000000        0.078578         2    ;  uncertainty k = 0.483312
         7        15        12        14     9        0.000000        0.446622         3    ;  uncertainty k = 0.217089
         7        15        12        14     9      180.000000       -0.093476         4    ;  uncertainty k = 0.135779
         7        15        16        17     9        0.000000       -2.839508         1    ;  uncertainty k = 2.855442
         7        15        16        17     9      180.000000        2.486244         2    ;  uncertainty k = 1.209531
         7        15        16        17     9        0.000000        1.452433         3    ;  uncertainty k = 0.184491
         7        15        16        17     9      180.000000        0.669222         4    ;  uncertainty k = 0.466685
         7        15        16        28     9        0.000000       -0.996327         1    ;  uncertainty k = 2.372476
         7        15        16        28     9      180.000000        3.083783         2    ;  uncertainty k = 0.534067
         7        15        16        28     9        0.000000        0.221813         3    ;  uncertainty k = 0.310740
         7        15        16        28     9      180.000000        0.144493         4    ;  uncertainty k = 0.275806
         7        15        19        18     9        0.000000        0.848063         1    ;  uncertainty k = 1.545248
         7        15        19        18     9      180.000000        0.601076         2    ;  uncertainty k = 0.626810
         7        15        19        18     9        0.000000        0.831721         3    ;  uncertainty k = 0.387103
         7        15        19        18     9      180.000000        0.385398         4    ;  uncertainty k = 0.137863
         7        15        19        20     9        0.000000        0.934382         1    ;  uncertainty k = 2.588493
         7        15        19        20     9      180.000000       -1.063716         2    ;  uncertainty k = 1.301168
         7        15        19        20     9        0.000000        0.526910         3    ;  uncertainty k = 0.513397
         7        15        19        20     9      180.000000       -0.033912         4    ;  uncertainty k = 0.119260
         8         1        39        37     9        0.000000        0.829566         1    ;  uncertainty k = 0.681563
         8         1        39        37     9      180.000000        4.568003         2    ;  uncertainty k = 0.243698
         8         1        39        37     9        0.000000        0.845481         3    ;  uncertainty k = 0.219369
         8         1        39        37     9      180.000000        0.276247         4    ;  uncertainty k = 0.070799
         8         1        39        40     9        0.000000        0.804093         1    ;  uncertainty k = 1.186467
         8         1        39        40     9      180.000000        3.795960         2    ;  uncertainty k = 0.284563
         8         1        39        40     9        0.000000        0.656158         3    ;  uncertainty k = 0.363558
         8         1        39        40     9      180.000000        0.402476         4    ;  uncertainty k = 0.131537
         8         7         6        10     9        0.000000        0.563910         1    ;  uncertainty k = 0.350872
         8         7         6        10     9      180.000000        8.473195         2    ;  uncertainty k = 0.180384
         8         7         6        10     9        0.000000        1.583337         3    ;  uncertainty k = 0.347044
         8         7         6        10     9      180.000000        1.570769         4    ;  uncertainty k = 0.168647
         8         7        15        12     9        0.000000       -0.576901         1    ;  uncertainty k = 1.190439
         8         7        15        12     9      180.000000        1.158272         2    ;  uncertainty k = 0.488619
         8         7        15        12     9        0.000000       -0.311348         3    ;  uncertainty k = 0.328967
         8         7        15        12     9      180.000000        0.171777         4    ;  uncertainty k = 0.166969
         8         7        15        16     9        0.000000        0.728283         1    ;  uncertainty k = 2.035580
         8         7        15        16     9      180.000000        0.390609         2    ;  uncertainty k = 0.712798
         8         7        15        16     9        0.000000        0.154963         3    ;  uncertainty k = 0.304522
         8         7        15        16     9      180.000000        0.285822         4    ;  uncertainty k = 0.115084
         8         7        15        19     9        0.000000       -0.473486         1    ;  uncertainty k = 0.884706
         8         7        15        19     9      180.000000        1.932198         2    ;  uncertainty k = 0.324179
         8         7        15        19     9        0.000000       -0.050800         3    ;  uncertainty k = 0.293325
         8         7        15        19     9      180.000000        0.072418         4    ;  uncertainty k = 0.207804
         9         8         1        39     9        0.000000       -0.161667         1    ;  uncertainty k = 0.404688
         9         8         1        39     9      180.000000        8.745898         2    ;  uncertainty k = 0.605907
         9         8         1        39     9        0.000000        0.833903         3    ;  uncertainty k = 0.164737
         9         8         1        39     9      180.000000        1.234007         4    ;  uncertainty k = 0.179818
         9         8         7        15     9        0.000000       -0.307860         1    ;  uncertainty k = 0.290890
         9         8         7        15     9      180.000000        7.110656         2    ;  uncertainty k = 0.285523
         9         8         7        15     9        0.000000        0.982401         3    ;  uncertainty k = 0.321557
         9         8         7        15     9      180.000000        1.228275         4    ;  uncertainty k = 0.235999
        10         6         7        15     9        0.000000        0.484709         1    ;  uncertainty k = 0.935242
        10         6         7        15     9      180.000000        5.817677         2    ;  uncertainty k = 0.679719
        10         6         7        15     9        0.000000        1.753836         3    ;  uncertainty k = 0.434956
        10         6         7        15     9      180.000000        1.051361         4    ;  uncertainty k = 0.437573
        10        11        12        13     9        0.000000       -1.286357         1    ;  uncertainty k = 0.418982
        10        11        12        13     9      180.000000       -0.843338         2    ;  uncertainty k = 0.564486
        10        11        12        13     9        0.000000        0.398057         3    ;  uncertainty k = 0.233267
        10        11        12        13     9      180.000000       -0.189590         4    ;  uncertainty k = 0.165011
        10        11        12        14     9        0.000000       -1.286357         1    ;  uncertainty k = 0.418982
        10        11        12        14     9      180.000000       -0.843338         2    ;  uncertainty k = 0.564486
        10        11        12        14     9        0.000000        0.398057         3    ;  uncertainty k = 0.233267
        10        11        12        14     9      180.000000       -0.189590         4    ;  uncertainty k = 0.165011
        10        11        12        15     9        0.000000        7.492384         1    ;  uncertainty k = 0.684133
        10        11        12        15     9      180.000000       -4.252882         2    ;  uncertainty k = 2.005320
        10        11        12        15     9        0.000000       -0.275093         3    ;  uncertainty k = 0.556329
        10        11        12        15     9      180.000000       -0.018729         4    ;  uncertainty k = 0.399209
        10        11        29        30     9        0.000000       -0.556685         1    ;  uncertainty k = 0.641512
        10        11        29        30     9      180.000000       -2.127823         2    ;  uncertainty k = 0.599046
        10        11        29        30     9        0.000000        0.863808         3    ;  uncertainty k = 0.110663
        10        11        29        30     9      180.000000       -0.195070         4    ;  uncertainty k = 0.150407
        10        11        29        31     9        0.000000       -0.556685         1    ;  uncertainty k = 0.641512
        10        11        29        31     9      180.000000       -2.127823         2    ;  uncertainty k = 0.599046
        10        11        29        31     9        0.000000        0.863808         3    ;  uncertainty k = 0.110663
        10        11        29        31     9      180.000000       -0.195070         4    ;  uncertainty k = 0.150407
        10        11        29        32     9        0.000000       -0.556685         1    ;  uncertainty k = 0.641512
        10        11        29        32     9      180.000000       -2.127823         2    ;  uncertainty k = 0.599046
        10        11        29        32     9        0.000000        0.863808         3    ;  uncertainty k = 0.110663
        10        11        29        32     9      180.000000       -0.195070         4    ;  uncertainty k = 0.150407
        10        11        33        34     9        0.000000       -0.556685         1    ;  uncertainty k = 0.641512
        10        11        33        34     9      180.000000       -2.127823         2    ;  uncertainty k = 0.599046
        10        11        33        34     9        0.000000        0.863808         3    ;  uncertainty k = 0.110663
        10        11        33        34     9      180.000000       -0.195070         4    ;  uncertainty k = 0.150407
        10        11        33        35     9        0.000000       -0.556685         1    ;  uncertainty k = 0.641512
        10        11        33        35     9      180.000000       -2.127823         2    ;  uncertainty k = 0.599046
        10        11        33        35     9        0.000000        0.863808         3    ;  uncertainty k = 0.110663
        10        11        33        35     9      180.000000       -0.195070         4    ;  uncertainty k = 0.150407
        10        11        33        36     9        0.000000       -0.556685         1    ;  uncertainty k = 0.641512
        10        11        33        36     9      180.000000       -2.127823         2    ;  uncertainty k = 0.599046
        10        11        33        36     9        0.000000        0.863808         3    ;  uncertainty k = 0.110663
        10        11        33        36     9      180.000000       -0.195070         4    ;  uncertainty k = 0.150407
        11        12        15        16     9        0.000000       -1.225095         1    ;  uncertainty k = 1.331133
        11        12        15        16     9      180.000000       -0.522962         2    ;  uncertainty k = 0.493502
        11        12        15        16     9        0.000000        0.431328         3    ;  uncertainty k = 0.247978
        11        12        15        16     9      180.000000       -0.079838         4    ;  uncertainty k = 0.226464
        11        12        15        19     9        0.000000       -2.980261         1    ;  uncertainty k = 1.018244
        11        12        15        19     9      180.000000       -1.350877         2    ;  uncertainty k = 1.012822
        11        12        15        19     9        0.000000        1.195588         3    ;  uncertainty k = 0.509902
        11        12        15        19     9      180.000000        0.003063         4    ;  uncertainty k = 0.228298
        12        11        29        30     9        0.000000       -0.810618         1    ;  uncertainty k = 0.476463
        12        11        29        30     9      180.000000       -0.740441         2    ;  uncertainty k = 0.208398
        12        11        29        30     9        0.000000        0.585176         3    ;  uncertainty k = 0.093112
        12        11        29        30     9      180.000000       -0.179618         4    ;  uncertainty k = 0.029902
        12        11        29        31     9        0.000000       -0.810618         1    ;  uncertainty k = 0.476463
        12        11        29        31     9      180.000000       -0.740441         2    ;  uncertainty k = 0.208398
        12        11        29        31     9        0.000000        0.585176         3    ;  uncertainty k = 0.093112
        12        11        29        31     9      180.000000       -0.179618         4    ;  uncertainty k = 0.029902
        12        11        29        32     9        0.000000       -0.810618         1    ;  uncertainty k = 0.476463
        12        11        29        32     9      180.000000       -0.740441         2    ;  uncertainty k = 0.208398
        12        11        29        32     9        0.000000        0.585176         3    ;  uncertainty k = 0.093112
        12        11        29        32     9      180.000000       -0.179618         4    ;  uncertainty k = 0.029902
        12        11        33        34     9        0.000000       -0.810618         1    ;  uncertainty k = 0.476463
        12        11        33        34     9      180.000000       -0.740441         2    ;  uncertainty k = 0.208398
        12        11        33        34     9        0.000000        0.585176         3    ;  uncertainty k = 0.093112
        12        11        33        34     9      180.000000       -0.179618         4    ;  uncertainty k = 0.029902
        12        11        33        35     9        0.000000       -0.810618         1    ;  uncertainty k = 0.476463
        12        11        33        35     9      180.000000       -0.740441         2    ;  uncertainty k = 0.208398
        12        11        33        35     9        0.000000        0.585176         3    ;  uncertainty k = 0.093112
        12        11        33        35     9      180.000000       -0.179618         4    ;  uncertainty k = 0.029902
        12        11        33        36     9        0.000000       -0.810618         1    ;  uncertainty k = 0.476463
        12        11        33        36     9      180.000000       -0.740441         2    ;  uncertainty k = 0.208398
        12        11        33        36     9        0.000000        0.585176         3    ;  uncertainty k = 0.093112
        12        11        33        36     9      180.000000       -0.179618         4    ;  uncertainty k = 0.029902
        12        15        16        17     9        0.000000       -3.062427         1    ;  uncertainty k = 1.269873
        12        15        16        17     9      180.000000        2.891489         2    ;  uncertainty k = 0.265734
        12        15        16        17     9        0.000000        0.863612         3    ;  uncertainty k = 0.091221
        12        15        16        17     9      180.000000        0.588217         4    ;  uncertainty k = 0.336281
        12        15        16        28     9        0.000000       -0.572514         1    ;  uncertainty k = 2.044991
        12        15        16        28     9      180.000000        3.918781         2    ;  uncertainty k = 1.063166
        12        15        16        28     9        0.000000        0.166053         3    ;  uncertainty k = 0.379613
        12        15        16        28     9      180.000000        0.060215         4    ;  uncertainty k = 0.333804
        12        15        19        18     9        0.000000       -0.711071         1    ;  uncertainty k = 0.364437
        12        15        19        18     9      180.000000        1.462011         2    ;  uncertainty k = 0.668195
        12        15        19        18     9        0.000000        0.368203         3    ;  uncertainty k = 0.246621
        12        15        19        18     9      180.000000        0.276983         4    ;  uncertainty k = 0.146766
        12        15        19        20     9        0.000000        1.018554         1    ;  uncertainty k = 3.220195
        12        15        19        20     9      180.000000       -0.453049         2    ;  uncertainty k = 0.881298
        12        15        19        20     9        0.000000        0.406923         3    ;  uncertainty k = 0.482980
        12        15        19        20     9      180.000000        0.077056         4    ;  uncertainty k = 0.078677
        13        12        11        29     9        0.000000       -0.868529         1    ;  uncertainty k = 0.359708
        13        12        11        29     9      180.000000        0.339049         2    ;  uncertainty k = 0.271426
        13        12        11        29     9        0.000000        0.030221         3    ;  uncertainty k = 0.169820
        13        12        11        29     9      180.000000       -0.198172         4    ;  uncertainty k = 0.102797
        13        12        11        33     9        0.000000       -0.868529         1    ;  uncertainty k = 0.359708
        13        12        11        33     9      180.000000        0.339049         2    ;  uncertainty k = 0.271426
        13        12        11        33     9        0.000000        0.030221         3    ;  uncertainty k = 0.169820
        13        12        11        33     9      180.000000       -0.198172         4    ;  uncertainty k = 0.102797
        13        12        15        16     9        0.000000        0.640482         1    ;  uncertainty k = 0.452162
        13        12        15        16     9      180.000000       -1.086082         2    ;  uncertainty k = 0.431735
        13        12        15        16     9        0.000000        0.083142         3    ;  uncertainty k = 0.203153
        13        12        15        16     9      180.000000       -0.053621         4    ;  uncertainty k = 0.095485
        13        12        15        19     9        0.000000       -1.020338         1    ;  uncertainty k = 0.671255
        13        12        15        19     9      180.000000       -0.205238         2    ;  uncertainty k = 0.424912
        13        12        15        19     9        0.000000        0.531235         3    ;  uncertainty k = 0.232442
        13        12        15        19     9      180.000000       -0.287620         4    ;  uncertainty k = 0.131421
        14        12        11        29     9        0.000000       -0.868529         1    ;  uncertainty k = 0.359708
        14        12        11        29     9      180.000000        0.339049         2    ;  uncertainty k = 0.271426
        14        12        11        29     9        0.000000        0.030221         3    ;  uncertainty k = 0.169820
        14        12        11        29     9      180.000000       -0.198172         4    ;  uncertainty k = 0.102797
        14        12        11        33     9        0.000000       -0.868529         1    ;  uncertainty k = 0.359708
        14        12        11        33     9      180.000000        0.339049         2    ;  uncertainty k = 0.271426
        14        12        11        33     9        0.000000        0.030221         3    ;  uncertainty k = 0.169820
        14        12        11        33     9      180.000000       -0.198172         4    ;  uncertainty k = 0.102797
        14        12        15        16     9        0.000000        0.640482         1    ;  uncertainty k = 0.452162
        14        12        15        16     9      180.000000       -1.086082         2    ;  uncertainty k = 0.431735
        14        12        15        16     9        0.000000        0.083142         3    ;  uncertainty k = 0.203153
        14        12        15        16     9      180.000000       -0.053621         4    ;  uncertainty k = 0.095485
        14        12        15        19     9        0.000000       -1.020338         1    ;  uncertainty k = 0.671255
        14        12        15        19     9      180.000000       -0.205238         2    ;  uncertainty k = 0.424912
        14        12        15        19     9        0.000000        0.531235         3    ;  uncertainty k = 0.232442
        14        12        15        19     9      180.000000       -0.287620         4    ;  uncertainty k = 0.131421
        15        12        11        29     9        0.000000       -0.391755         1    ;  uncertainty k = 0.963300
        15        12        11        29     9      180.000000       -0.296183         2    ;  uncertainty k = 0.213588
        15        12        11        29     9        0.000000        0.101908         3    ;  uncertainty k = 0.258312
        15        12        11        29     9      180.000000       -0.158168         4    ;  uncertainty k = 0.061347
        15        12        11        33     9        0.000000       -0.391755         1    ;  uncertainty k = 0.963300
        15        12        11        33     9      180.000000       -0.296183         2    ;  uncertainty k = 0.213588
        15        12        11        33     9        0.000000        0.101908         3    ;  uncertainty k = 0.258312
        15        12        11        33     9      180.000000       -0.158168         4    ;  uncertainty k = 0.061347
        15        16        17        18     9        0.000000        3.161321         1    ;  uncertainty k = 2.092823
        15        16        17        18     9      180.000000        4.160126         2    ;  uncertainty k = 2.100753
        15        16        17        18     9        0.000000       -0.152724         3    ;  uncertainty k = 0.826003
        15        16        17        18     9      180.000000        0.626967         4    ;  uncertainty k = 0.355664
        15        16        17        21     9        0.000000        4.970881         1    ;  uncertainty k = 2.725849
        15        16        17        21     9      180.000000        3.668979         2    ;  uncertainty k = 2.648421
        15        16        17        21     9        0.000000        1.130211         3    ;  uncertainty k = 0.860831
        15        16        17        21     9      180.000000        0.324641         4    ;  uncertainty k = 0.592086
        15        19        18        17     9        0.000000        1.157266         1    ;  uncertainty k = 2.616329
        15        19        18        17     9      180.000000       15.378940         2    ;  uncertainty k = 0.477343
        15        19        18        17     9        0.000000       -0.706857         3    ;  uncertainty k = 1.013215
        15        19        18        17     9      180.000000       -0.605580         4    ;  uncertainty k = 0.201086
        15        19        18        25     9        0.000000        3.712014         1    ;  uncertainty k = 0.855685
        15        19        18        25     9      180.000000       11.333926         2    ;  uncertainty k = 0.617341
        15        19        18        25     9        0.000000        0.316473         3    ;  uncertainty k = 0.233976
        15        19        18        25     9      180.000000       -0.482478         4    ;  uncertainty k = 0.508869
        16        15        19        18     9        0.000000        1.074091         1    ;  uncertainty k = 0.682075
        16        15        19        18     9      180.000000        2.333562         2    ;  uncertainty k = 0.689222
        16        15        19        18     9        0.000000        0.176105         3    ;  uncertainty k = 0.631894
        16        15        19        18     9      180.000000        0.490723         4    ;  uncertainty k = 0.342588
        16        15        19        20     9        0.000000        1.880662         1    ;  uncertainty k = 2.130509
        16        15        19        20     9      180.000000       -0.797312         2    ;  uncertainty k = 0.762780
        16        15        19        20     9        0.000000        0.061311         3    ;  uncertainty k = 0.477432
        16        15        19        20     9      180.000000        0.021519         4    ;  uncertainty k = 0.239393
        16        17        18        19     9        0.000000       -0.598871         1    ;  uncertainty k = 1.517512
        16        17        18        19     9      180.000000        9.023777         2    ;  uncertainty k = 0.890262
        16        17        18        19     9        0.000000       -1.321226         3    ;  uncertainty k = 1.261849
        16        17        18        19     9      180.000000       -0.043685         4    ;  uncertainty k = 0.510427
        16        17        18        25     9        0.000000       -0.742539         1    ;  uncertainty k = 0.884320
        16        17        18        25     9      180.000000        6.821150         2    ;  uncertainty k = 1.300514
        16        17        18        25     9        0.000000        0.216631         3    ;  uncertainty k = 0.558836
        16        17        18        25     9      180.000000       -0.098970         4    ;  uncertainty k = 0.493923
        16        17        21        22     9        0.000000        0.297431         1    ;  uncertainty k = 0.338022
        16        17        21        22     9      180.000000        0.087168         2    ;  uncertainty k = 0.381934
        16        17        21        22     9        0.000000        0.347193         3    ;  uncertainty k = 0.232215
        16        17        21        22     9      180.000000        0.291096         4    ;  uncertainty k = 0.074538
        16        17        21        23     9        0.000000        0.297431         1    ;  uncertainty k = 0.338022
        16        17        21        23     9      180.000000        0.087168         2    ;  uncertainty k = 0.381934
        16        17        21        23     9        0.000000        0.347193         3    ;  uncertainty k = 0.232215
        16        17        21        23     9      180.000000        0.291096         4    ;  uncertainty k = 0.074538
        16        17        21        24     9        0.000000        0.297431         1    ;  uncertainty k = 0.338022
        16        17        21        24     9      180.000000        0.087168         2    ;  uncertainty k = 0.381934
        16        17        21        24     9        0.000000        0.347193         3    ;  uncertainty k = 0.232215
        16        17        21        24     9      180.000000        0.291096         4    ;  uncertainty k = 0.074538
        17        16        15        19     9        0.000000       -0.745830         1    ;  uncertainty k = 2.405986
        17        16        15        19     9      180.000000        6.962261         2    ;  uncertainty k = 1.233869
        17        16        15        19     9        0.000000        0.627173         3    ;  uncertainty k = 0.585941
        17        16        15        19     9      180.000000        0.294886         4    ;  uncertainty k = 0.846326
        17        18        19        20     9        0.000000        4.051322         1    ;  uncertainty k = 3.391115
        17        18        19        20     9      180.000000       10.697180         2    ;  uncertainty k = 0.526601
        17        18        19        20     9        0.000000        1.093668         3    ;  uncertainty k = 0.752546
        17        18        19        20     9      180.000000       -0.389374         4    ;  uncertainty k = 0.265720
        17        18        25        26     9        0.000000        8.080941         1    ;  uncertainty k = 2.061712
        17        18        25        26     9      180.000000        9.353073         2    ;  uncertainty k = 0.455751
        17        18        25        26     9        0.000000        0.960301         3    ;  uncertainty k = 0.478476
        17        18        25        26     9      180.000000       -0.922267         4    ;  uncertainty k = 0.215681
        17        18        25        27     9        0.000000        8.080941         1    ;  uncertainty k = 2.061712
        17        18        25        27     9      180.000000        9.353073         2    ;  uncertainty k = 0.455751
        17        18        25        27     9        0.000000        0.960301         3    ;  uncertainty k = 0.478476
        17        18        25        27     9      180.000000       -0.922267         4    ;  uncertainty k = 0.215681
        18        17        16        28     9        0.000000       -0.225774         1    ;  uncertainty k = 3.237560
        18        17        16        28     9      180.000000        7.660703         2    ;  uncertainty k = 0.931236
        18        17        16        28     9        0.000000        0.373526         3    ;  uncertainty k = 0.816132
        18        17        16        28     9      180.000000        0.053274         4    ;  uncertainty k = 0.298389
        18        17        21        22     9        0.000000       -0.260671         1    ;  uncertainty k = 0.510831
        18        17        21        22     9      180.000000       -1.123799         2    ;  uncertainty k = 0.505443
        18        17        21        22     9        0.000000        0.381297         3    ;  uncertainty k = 0.163929
        18        17        21        22     9      180.000000        0.194836         4    ;  uncertainty k = 0.041789
        18        17        21        23     9        0.000000       -0.260671         1    ;  uncertainty k = 0.510831
        18        17        21        23     9      180.000000       -1.123799         2    ;  uncertainty k = 0.505443
        18        17        21        23     9        0.000000        0.381297         3    ;  uncertainty k = 0.163929
        18        17        21        23     9      180.000000        0.194836         4    ;  uncertainty k = 0.041789
        18        17        21        24     9        0.000000       -0.260671         1    ;  uncertainty k = 0.510831
        18        17        21        24     9      180.000000       -1.123799         2    ;  uncertainty k = 0.505443
        18        17        21        24     9        0.000000        0.381297         3    ;  uncertainty k = 0.163929
        18        17        21        24     9      180.000000        0.194836         4    ;  uncertainty k = 0.041789
        19        15        16        28     9        0.000000        0.037778         1    ;  uncertainty k = 2.207366
        19        15        16        28     9      180.000000        4.141394         2    ;  uncertainty k = 1.310182
        19        15        16        28     9        0.000000        0.411243         3    ;  uncertainty k = 0.210108
        19        15        16        28     9      180.000000        0.445779         4    ;  uncertainty k = 0.161492
        19        18        17        21     9        0.000000       -0.380136         1    ;  uncertainty k = 2.913081
        19        18        17        21     9      180.000000        8.267784         2    ;  uncertainty k = 0.403615
        19        18        17        21     9        0.000000        0.435757         3    ;  uncertainty k = 0.320054
        19        18        17        21     9      180.000000       -0.156996         4    ;  uncertainty k = 0.291188
        19        18        25        26     9        0.000000        6.366443         1    ;  uncertainty k = 1.644722
        19        18        25        26     9      180.000000       10.049531         2    ;  uncertainty k = 0.349760
        19        18        25        26     9        0.000000        1.357511         3    ;  uncertainty k = 0.507490
        19        18        25        26     9      180.000000       -0.656591         4    ;  uncertainty k = 0.287459
        19        18        25        27     9        0.000000        6.366443         1    ;  uncertainty k = 1.644722
        19        18        25        27     9      180.000000       10.049531         2    ;  uncertainty k = 0.349760
        19        18        25        27     9        0.000000        1.357511         3    ;  uncertainty k = 0.507490
        19        18        25        27     9      180.000000       -0.656591         4    ;  uncertainty k = 0.287459
        20        19        18        25     9        0.000000        1.886192         1    ;  uncertainty k = 2.633103
        20        19        18        25     9      180.000000        7.784175         2    ;  uncertainty k = 1.209625
        20        19        18        25     9        0.000000        0.956054         3    ;  uncertainty k = 0.197633
        20        19        18        25     9      180.000000       -0.247909         4    ;  uncertainty k = 0.316191
        21        17        16        28     9        0.000000       -0.743118         1    ;  uncertainty k = 3.324160
        21        17        16        28     9      180.000000        8.127734         2    ;  uncertainty k = 0.445128
        21        17        16        28     9        0.000000        0.693460         3    ;  uncertainty k = 0.571372
        21        17        16        28     9      180.000000        0.151177         4    ;  uncertainty k = 0.263311
        21        17        18        25     9        0.000000       -0.067505         1    ;  uncertainty k = 0.784520
        21        17        18        25     9      180.000000        6.890792         2    ;  uncertainty k = 0.817474
        21        17        18        25     9        0.000000        0.975121         3    ;  uncertainty k = 0.584566
        21        17        18        25     9      180.000000       -0.011356         4    ;  uncertainty k = 0.268200
        29        11        33        34     9        0.000000       -1.168308         1    ;  uncertainty k = 0.299692
        29        11        33        34     9      180.000000        0.150758         2    ;  uncertainty k = 0.296599
        29        11        33        34     9        0.000000        0.668939         3    ;  uncertainty k = 0.064920
        29        11        33        34     9      180.000000       -0.104414         4    ;  uncertainty k = 0.091599
        29        11        33        35     9        0.000000       -1.168308         1    ;  uncertainty k = 0.299692
        29        11        33        35     9      180.000000        0.150758         2    ;  uncertainty k = 0.296599
        29        11        33        35     9        0.000000        0.668939         3    ;  uncertainty k = 0.064920
        29        11        33        35     9      180.000000       -0.104414         4    ;  uncertainty k = 0.091599
        29        11        33        36     9        0.000000       -1.168308         1    ;  uncertainty k = 0.299692
        29        11        33        36     9      180.000000        0.150758         2    ;  uncertainty k = 0.296599
        29        11        33        36     9        0.000000        0.668939         3    ;  uncertainty k = 0.064920
        29        11        33        36     9      180.000000       -0.104414         4    ;  uncertainty k = 0.091599
        30        29        11        33     9        0.000000       -1.168308         1    ;  uncertainty k = 0.299692
        30        29        11        33     9      180.000000        0.150758         2    ;  uncertainty k = 0.296599
        30        29        11        33     9        0.000000        0.668939         3    ;  uncertainty k = 0.064920
        30        29        11        33     9      180.000000       -0.104414         4    ;  uncertainty k = 0.091599
        31        29        11        33     9        0.000000       -1.168308         1    ;  uncertainty k = 0.299692
        31        29        11        33     9      180.000000        0.150758         2    ;  uncertainty k = 0.296599
        31        29        11        33     9        0.000000        0.668939         3    ;  uncertainty k = 0.064920
        31        29        11        33     9      180.000000       -0.104414         4    ;  uncertainty k = 0.091599
        32        29        11        33     9        0.000000       -1.168308         1    ;  uncertainty k = 0.299692
        32        29        11        33     9      180.000000        0.150758         2    ;  uncertainty k = 0.296599
        32        29        11        33     9        0.000000        0.668939         3    ;  uncertainty k = 0.064920
        32        29        11        33     9      180.000000       -0.104414         4    ;  uncertainty k = 0.091599
        37        45        43        41     9        0.000000        1.030486         1    ;  uncertainty k = 0.856801
        37        45        43        41     9      180.000000       12.083772         2    ;  uncertainty k = 0.666016
        37        45        43        41     9        0.000000        1.743208         3    ;  uncertainty k = 0.438007
        37        45        43        41     9      180.000000        0.956690         4    ;  uncertainty k = 0.336675
        37        45        43        44     9        0.000000       -0.108480         1    ;  uncertainty k = 1.332015
        37        45        43        44     9      180.000000        7.243958         2    ;  uncertainty k = 0.649540
        37        45        43        44     9        0.000000        1.491004         3    ;  uncertainty k = 0.244342
        37        45        43        44     9      180.000000        0.512483         4    ;  uncertainty k = 0.364107
        37        45        46        47     9        0.000000        1.458230         1    ;  uncertainty k = 0.905322
        37        45        46        47     9      180.000000        4.901780         2    ;  uncertainty k = 1.390732
        37        45        46        47     9        0.000000        1.938784         3    ;  uncertainty k = 0.648602
        37        45        46        47     9      180.000000        0.575887         4    ;  uncertainty k = 0.362114
        38        37        39        40     9        0.000000        1.482789         1    ;  uncertainty k = 1.269998
        38        37        39        40     9      180.000000       10.308527         2    ;  uncertainty k = 0.280153
        38        37        39        40     9        0.000000        1.839605         3    ;  uncertainty k = 0.305387
        38        37        39        40     9      180.000000       -0.445798         4    ;  uncertainty k = 0.250656
        38        37        45        43     9        0.000000       -0.966663         1    ;  uncertainty k = 0.490595
        38        37        45        43     9      180.000000        2.986572         2    ;  uncertainty k = 0.182224
        38        37        45        43     9        0.000000        0.396272         3    ;  uncertainty k = 0.232046
        38        37        45        43     9      180.000000        0.258007         4    ;  uncertainty k = 0.067869
        38        37        45        46     9        0.000000        0.335495         1    ;  uncertainty k = 0.448548
        38        37        45        46     9      180.000000        7.295567         2    ;  uncertainty k = 0.236760
        38        37        45        46     9        0.000000        1.246882         3    ;  uncertainty k = 0.341537
        38        37        45        46     9      180.000000        0.146038         4    ;  uncertainty k = 0.086165
        39        37        45        43     9        0.000000        1.230308         1    ;  uncertainty k = 0.536860
        39        37        45        43     9      180.000000        2.340347         2    ;  uncertainty k = 0.331586
        39        37        45        43     9        0.000000        0.392021         3    ;  uncertainty k = 0.239282
        39        37        45        43     9      180.000000       -0.368544         4    ;  uncertainty k = 0.128686
        39        37        45        46     9        0.000000        3.041901         1    ;  uncertainty k = 0.874525
        39        37        45        46     9      180.000000        4.933406         2    ;  uncertainty k = 0.371846
        39        37        45        46     9        0.000000        0.552536         3    ;  uncertainty k = 0.401931
        39        37        45        46     9      180.000000       -0.321084         4    ;  uncertainty k = 0.071611
        40        39        37        45     9        0.000000       -0.323509         1    ;  uncertainty k = 0.447332
        40        39        37        45     9      180.000000        4.698622         2    ;  uncertainty k = 1.096817
        40        39        37        45     9        0.000000        2.875653         3    ;  uncertainty k = 0.505959
        40        39        37        45     9      180.000000        0.114212         4    ;  uncertainty k = 0.162246
        41        43        45        46     9        0.000000       -0.314204         1    ;  uncertainty k = 0.432034
        41        43        45        46     9      180.000000       22.670405         2    ;  uncertainty k = 0.484197
        41        43        45        46     9        0.000000       -8.431294         3    ;  uncertainty k = 1.393267
        41        43        45        46     9      180.000000        1.371943         4    ;  uncertainty k = 0.777025
        41        47        46        45     9        0.000000       -0.659694         1    ;  uncertainty k = 0.859330
        41        47        46        45     9      180.000000       14.183055         2    ;  uncertainty k = 0.592095
        41        47        46        45     9        0.000000       -5.856155         3    ;  uncertainty k = 0.752075
        41        47        46        45     9      180.000000        1.321645         4    ;  uncertainty k = 0.342570
        41        47        48        49     9        0.000000        0.474000         1    ;  uncertainty k = 0.319735
        41        47        48        49     9      180.000000        0.638385         2    ;  uncertainty k = 0.249582
        41        47        48        49     9        0.000000        0.010740         3    ;  uncertainty k = 0.039370
        41        47        48        49     9      180.000000        0.008748         4    ;  uncertainty k = 0.071681
        41        47        48        50     9        0.000000        0.474000         1    ;  uncertainty k = 0.319735
        41        47        48        50     9      180.000000        0.638385         2    ;  uncertainty k = 0.249582
        41        47        48        50     9        0.000000        0.010740         3    ;  uncertainty k = 0.039370
        41        47        48        50     9      180.000000        0.008748         4    ;  uncertainty k = 0.071681
        41        47        48        51     9        0.000000        0.474000         1    ;  uncertainty k = 0.319735
        41        47        48        51     9      180.000000        0.638385         2    ;  uncertainty k = 0.249582
        41        47        48        51     9        0.000000        0.010740         3    ;  uncertainty k = 0.039370
        41        47        48        51     9      180.000000        0.008748         4    ;  uncertainty k = 0.071681
        42        41        43        44     9        0.000000       -0.448930         1    ;  uncertainty k = 1.223094
        42        41        43        44     9      180.000000        4.665687         2    ;  uncertainty k = 0.644040
        42        41        43        44     9        0.000000        1.435099         3    ;  uncertainty k = 0.428294
        42        41        43        44     9      180.000000        0.030469         4    ;  uncertainty k = 0.153583
        42        41        43        45     9        0.000000        0.120153         1    ;  uncertainty k = 0.444487
        42        41        43        45     9      180.000000        7.835150         2    ;  uncertainty k = 0.657553
        42        41        43        45     9        0.000000        1.374171         3    ;  uncertainty k = 0.324006
        42        41        43        45     9      180.000000        0.411018         4    ;  uncertainty k = 0.201838
        42        41        47        46     9        0.000000        0.563680         1    ;  uncertainty k = 0.996757
        42        41        47        46     9      180.000000       16.063507         2    ;  uncertainty k = 0.393330
        42        41        47        46     9        0.000000        1.944908         3    ;  uncertainty k = 0.334726
        42        41        47        46     9      180.000000        0.912802         4    ;  uncertainty k = 0.323543
        42        41        47        48     9        0.000000        0.347124         1    ;  uncertainty k = 0.547516
        42        41        47        48     9      180.000000        6.199894         2    ;  uncertainty k = 0.723421
        42        41        47        48     9        0.000000        1.092176         3    ;  uncertainty k = 0.435069
        42        41        47        48     9      180.000000        0.441738         4    ;  uncertainty k = 0.124787
        43        41        47        46     9        0.000000       -0.206467         1    ;  uncertainty k = 0.554837
        43        41        47        46     9      180.000000       21.923285         2    ;  uncertainty k = 0.477521
        43        41        47        46     9        0.000000       -7.972381         3    ;  uncertainty k = 0.838668
        43        41        47        46     9      180.000000        1.483008         4    ;  uncertainty k = 0.736992
        43        41        47        48     9        0.000000        0.294773         1    ;  uncertainty k = 1.285684
        43        41        47        48     9      180.000000       13.346220         2    ;  uncertainty k = 0.431195
        43        41        47        48     9        0.000000        2.344496         3    ;  uncertainty k = 0.855042
        43        41        47        48     9      180.000000        0.906143         4    ;  uncertainty k = 0.355236
        43        45        46        47     9        0.000000       -0.451722         1    ;  uncertainty k = 0.637633
        43        45        46        47     9      180.000000       13.718390         2    ;  uncertainty k = 0.398356
        43        45        46        47     9        0.000000       -6.107835         3    ;  uncertainty k = 0.610129
        43        45        46        47     9      180.000000        1.463688         4    ;  uncertainty k = 0.371132
        44        43        41        47     9        0.000000       -0.068183         1    ;  uncertainty k = 0.538542
        44        43        41        47     9      180.000000        7.696178         2    ;  uncertainty k = 0.349699
        44        43        41        47     9        0.000000        1.145905         3    ;  uncertainty k = 0.465284
        44        43        41        47     9      180.000000        0.486396         4    ;  uncertainty k = 0.264128
        44        43        45        46     9        0.000000        0.918445         1    ;  uncertainty k = 1.323756
        44        43        45        46     9      180.000000       15.808625         2    ;  uncertainty k = 0.321916
        44        43        45        46     9        0.000000        1.378288         3    ;  uncertainty k = 0.581666
        44        43        45        46     9      180.000000        1.092791         4    ;  uncertainty k = 0.295850
        45        43        41        47     9        0.000000       -0.269194         1    ;  uncertainty k = 0.449263
        45        43        41        47     9      180.000000       13.004817         2    ;  uncertainty k = 0.685294
        45        43        41        47     9        0.000000       -7.961594         3    ;  uncertainty k = 0.600043
        45        43        41        47     9      180.000000        1.875278         4    ;  uncertainty k = 0.457042
        45        46        47        48     9        0.000000        0.782268         1    ;  uncertainty k = 1.092901
        45        46        47        48     9      180.000000       10.034183         2    ;  uncertainty k = 0.292607
        45        46        47        48     9        0.000000        1.845160         3    ;  uncertainty k = 0.451608
        45        46        47        48     9      180.000000        0.349564         4    ;  uncertainty k = 0.139322
        46        47        48        49     9        0.000000        0.166032         1    ;  uncertainty k = 0.413502
        46        47        48        49     9      180.000000        0.033538         2    ;  uncertainty k = 0.148665
        46        47        48        49     9        0.000000        0.813324         3    ;  uncertainty k = 0.056578
        46        47        48        49     9      180.000000        0.226154         4    ;  uncertainty k = 0.057992
        46        47        48        50     9        0.000000        0.166032         1    ;  uncertainty k = 0.413502
        46        47        48        50     9      180.000000        0.033538         2    ;  uncertainty k = 0.148665
        46        47        48        50     9        0.000000        0.813324         3    ;  uncertainty k = 0.056578
        46        47        48        50     9      180.000000        0.226154         4    ;  uncertainty k = 0.057992
        46        47        48        51     9        0.000000        0.166032         1    ;  uncertainty k = 0.413502
        46        47        48        51     9      180.000000        0.033538         2    ;  uncertainty k = 0.148665
        46        47        48        51     9        0.000000        0.813324         3    ;  uncertainty k = 0.056578
        46        47        48        51     9      180.000000        0.226154         4    ;  uncertainty k = 0.057992

[ dihedrals ] ; impropers
;       ai        aj        ak        al funct           phase               k        pn
         1         2         8        39     4      180.000000       16.036581         2    ;  uncertainty k = 0.141434
         1         8        39         2     4      180.000000       16.036581         2    ;  uncertainty k = 0.141434
         1        39         2         8     4      180.000000       16.036581         2    ;  uncertainty k = 0.141434
         2         1         3         4     4      180.000000        3.672788         2    ;  uncertainty k = 0.336128
         2         3         4         1     4      180.000000        3.672788         2    ;  uncertainty k = 0.336128
         2         4         1         3     4      180.000000        3.672788         2    ;  uncertainty k = 0.336128
         4         2         5         6     4      180.000000        1.737157         2    ;  uncertainty k = 0.170160
         4         5         6         2     4      180.000000        1.737157         2    ;  uncertainty k = 0.170160
         4         6         2         5     4      180.000000        1.737157         2    ;  uncertainty k = 0.170160
         6         4         7        10     4      180.000000       20.403076         2    ;  uncertainty k = 0.116320
         6         7        10         4     4      180.000000       20.403076         2    ;  uncertainty k = 0.116320
         6        10         4         7     4      180.000000       20.403076         2    ;  uncertainty k = 0.116320
         7         6         8        15     4      180.000000       11.434335         2    ;  uncertainty k = 0.273965
         7         8        15         6     4      180.000000       11.434335         2    ;  uncertainty k = 0.273965
         7        15         6         8     4      180.000000       11.434335         2    ;  uncertainty k = 0.273965
         8         1         7         9     4      180.000000        3.559719         2    ;  uncertainty k = 0.275652
         8         7         9         1     4      180.000000        3.559719         2    ;  uncertainty k = 0.275652
         8         9         1         7     4      180.000000        3.559719         2    ;  uncertainty k = 0.275652
        16        15        17        28     4      180.000000       50.503103         2    ;  uncertainty k = 0.072863
        16        17        28        15     4      180.000000       50.503103         2    ;  uncertainty k = 0.072863
        16        28        15        17     4      180.000000       50.503103         2    ;  uncertainty k = 0.072863
        17        16        18        21     4      180.000000        2.066646         2    ;  uncertainty k = 0.825300
        17        18        21        16     4      180.000000        2.066646         2    ;  uncertainty k = 0.825300
        17        21        16        18     4      180.000000        2.066646         2    ;  uncertainty k = 0.825300
        18        17        19        25     4      180.000000       30.892449         2    ;  uncertainty k = 0.146917
        18        19        25        17     4      180.000000       30.892449         2    ;  uncertainty k = 0.146917
        18        25        17        19     4      180.000000       30.892449         2    ;  uncertainty k = 0.146917
        25        18        26        27     4      180.000000        0.184047         2    ;  uncertainty k = 0.411542
        25        26        27        18     4      180.000000        0.184047         2    ;  uncertainty k = 0.411542
        25        27        18        26     4      180.000000        0.184047         2    ;  uncertainty k = 0.411542
        37        38        39        45     4      180.000000       52.419950         2    ;  uncertainty k = 0.030716
        37        39        45        38     4      180.000000       52.419950         2    ;  uncertainty k = 0.030716
        37        45        38        39     4      180.000000       52.419950         2    ;  uncertainty k = 0.030716
        39         1        37        40     4      180.000000        0.840886         2    ;  uncertainty k = 0.965969
        39        37        40         1     4      180.000000        0.840886         2    ;  uncertainty k = 0.965969
        39        40         1        37     4      180.000000        0.840886         2    ;  uncertainty k = 0.965969
        43        41        44        45     4      180.000000        1.241459         2    ;  uncertainty k = 0.934702
        43        44        45        41     4      180.000000        1.241459         2    ;  uncertainty k = 0.934702
        43        45        41        44     4      180.000000        1.241459         2    ;  uncertainty k = 0.934702
        45        37        43        46     4      180.000000        0.617094         2    ;  uncertainty k = 0.850898
        45        43        46        37     4      180.000000        0.617094         2    ;  uncertainty k = 0.850898
        45        46        37        43     4      180.000000        0.617094         2    ;  uncertainty k = 0.850898
        47        41        46        48     4      180.000000        8.501890         2    ;  uncertainty k = 0.215898
        47        46        48        41     4      180.000000        8.501890         2    ;  uncertainty k = 0.215898
        47        48        41        46     4      180.000000        8.501890         2    ;  uncertainty k = 0.215898

[ pairs ]
;       ai        aj funct
         1         5     1
         1         6     1
         1        15     1
         1        38     1
         1        45     1
         2         7     1
         2         9     1
         2        10     1
         2        37     1
         2        40     1
         3         5     1
         3         6     1
         3         8     1
         3        39     1
         4         8     1
         4        11     1
         4        15     1
         4        39     1
         5         7     1
         5        10     1
         6         9     1
         6        12     1
         6        16     1
         6        19     1
         6        29     1
         6        33     1
         7        11     1
         7        13     1
         7        14     1
         7        17     1
         7        18     1
         7        20     1
         7        28     1
         7        39     1
         8        10     1
         8        12     1
         8        16     1
         8        19     1
         8        37     1
         8        40     1
         9        15     1
         9        39     1
        10        13     1
        10        14     1
        10        15     1
        10        30     1
        10        31     1
        10        32     1
        10        34     1
        10        35     1
        10        36     1
        11        16     1
        11        19     1
        12        17     1
        12        18     1
        12        20     1
        12        28     1
        12        30     1
        12        31     1
        12        32     1
        12        34     1
        12        35     1
        12        36     1
        13        16     1
        13        19     1
        13        29     1
        13        33     1
        14        16     1
        14        19     1
        14        29     1
        14        33     1
        15        21     1
        15        25     1
        15        29     1
        15        33     1
        16        20     1
        16        22     1
        16        23     1
        16        24     1
        16        25     1
        17        20     1
        17        26     1
        17        27     1
        18        22     1
        18        23     1
        18        24     1
        18        28     1
        19        21     1
        19        26     1
        19        27     1
        19        28     1
        20        25     1
        21        25     1
        21        28     1
        29        34     1
        29        35     1
        29        36     1
        30        33     1
        31        33     1
        32        33     1
        37        41     1
        37        44     1
        37        47     1
        38        40     1
        38        43     1
        38        46     1
        39        43     1
        39        46     1
        40        45     1
        41        49     1
        41        50     1
        41        51     1
        42        44     1
        42        45     1
        42        46     1
        42        48     1
        43        48     1
        44        46     1
        44        47     1
        45        48     1
        46        49     1
        46        50     1
        46        51     1
