; ITP file created by ByteFF-ML, 2026-03-15 01:37:03.413336

[ atomtypes ]
;name           bonded.type        at.num        mass        charge   ptype           sigma         epsilon
 f0bf                                   9      0.0000       0.00000       A     3.03340e-01     3.48471e-01
 c1bf                                   6      0.0000       0.00000       A     3.31429e-01     4.14140e-01
 c2bf                                   6      0.0000       0.00000       A     3.31384e-01     4.12247e-01
 n3bf                                   7      0.0000       0.00000       A     3.26977e-01     4.92628e-01
 c4bf                                   6      0.0000       0.00000       A     3.31228e-01     4.15270e-01
 o5bf                                   8      0.0000       0.00000       A     3.04781e-01     6.14498e-01
 n6bf                                   7      0.0000       0.00000       A     3.26853e-01     4.96156e-01
 c7bf                                   6      0.0000       0.00000       A     3.31219e-01     4.13182e-01
 c8bf                                   6      0.0000       0.00000       A     3.31241e-01     4.10680e-01
 o9bf                                   8      0.0000       0.00000       A     3.15771e-01     3.08069e-01
 c10bf                                  6      0.0000       0.00000       A     3.31565e-01     4.14191e-01
 c11bf                                  6      0.0000       0.00000       A     3.31517e-01     4.13744e-01
 c12bf                                  6      0.0000       0.00000       A     3.31517e-01     4.13099e-01
 c13bf                                  6      0.0000       0.00000       A     3.31541e-01     4.12704e-01
 c14bf                                  6      0.0000       0.00000       A     3.31517e-01     4.13099e-01
 c15bf                                  6      0.0000       0.00000       A     3.31517e-01     4.13744e-01
 n16bf                                  7      0.0000       0.00000       A     3.38247e-01     3.91955e-01
 c17bf                                  6      0.0000       0.00000       A     3.31514e-01     4.12560e-01
 c18bf                                  6      0.0000       0.00000       A     3.31481e-01     4.12981e-01
 c19bf                                  6      0.0000       0.00000       A     3.31584e-01     4.13224e-01
 c20bf                                  6      0.0000       0.00000       A     3.31630e-01     4.12592e-01
 c21bf                                  6      0.0000       0.00000       A     3.31461e-01     4.12675e-01
 c22bf                                  6      0.0000       0.00000       A     3.31486e-01     4.13545e-01
 f23bf                                  9      0.0000       0.00000       A     3.03414e-01     3.47611e-01
 c24bf                                  6      0.0000       0.00000       A     3.31555e-01     4.12916e-01
 h25bf                                  1      0.0000       0.00000       A     1.10655e-01     4.19367e-02
 h26bf                                  1      0.0000       0.00000       A     1.10974e-01     4.12520e-02
 h27bf                                  1      0.0000       0.00000       A     2.62525e-01     6.72392e-02
 h28bf                                  1      0.0000       0.00000       A     2.62489e-01     6.72695e-02
 h29bf                                  1      0.0000       0.00000       A     2.62457e-01     6.73477e-02
 h30bf                                  1      0.0000       0.00000       A     2.62489e-01     6.72695e-02
 h31bf                                  1      0.0000       0.00000       A     2.62525e-01     6.72408e-02
 h32bf                                  1      0.0000       0.00000       A     2.53538e-01     6.71594e-02
 h33bf                                  1      0.0000       0.00000       A     2.62506e-01     6.74387e-02
 h34bf                                  1      0.0000       0.00000       A     2.62621e-01     6.73062e-02
 h35bf                                  1      0.0000       0.00000       A     2.62616e-01     6.72520e-02
 h36bf                                  1      0.0000       0.00000       A     2.62554e-01     6.71881e-02
 h37bf                                  1      0.0000       0.00000       A     2.62508e-01     6.71562e-02

[ moleculetype ]
;name             nrexcl
 11a                   3

[ atoms ]
;       nr            type      resi   res      atom      cgnr      charge          mass ; qtot
         1            f0bf         1   UNL        f0         1    -0.17864       18.9980 ; qtot   -0.179
         2            c1bf         1   UNL        c1         2     0.14722       12.0110 ; qtot   -0.031
         3            c2bf         1   UNL        c2         3    -0.06639       12.0110 ; qtot   -0.098
         4            n3bf         1   UNL        n3         4    -0.15983       14.0070 ; qtot   -0.258
         5            c4bf         1   UNL        c4         5     0.66117       12.0110 ; qtot    0.404
         6            o5bf         1   UNL        o5         6    -0.59150       15.9990 ; qtot   -0.188
         7            n6bf         1   UNL        n6         7    -0.14979       14.0070 ; qtot   -0.338
         8            c7bf         1   UNL        c7         8    -0.06788       12.0110 ; qtot   -0.406
         9            c8bf         1   UNL        c8         9     0.51939       12.0110 ; qtot    0.114
        10            o9bf         1   UNL        o9        10    -0.38526       15.9990 ; qtot   -0.272
        11           c10bf         1   UNL       c10        11     0.10554       12.0110 ; qtot   -0.166
        12           c11bf         1   UNL       c11        12    -0.11725       12.0110 ; qtot   -0.283
        13           c12bf         1   UNL       c12        13    -0.09603       12.0110 ; qtot   -0.379
        14           c13bf         1   UNL       c13        14    -0.12548       12.0110 ; qtot   -0.505
        15           c14bf         1   UNL       c14        15    -0.09603       12.0110 ; qtot   -0.601
        16           c15bf         1   UNL       c15        16    -0.11725       12.0110 ; qtot   -0.718
        17           n16bf         1   UNL       n16        17    -0.70598       14.0070 ; qtot   -1.424
        18           c17bf         1   UNL       c17        18     0.34178       12.0110 ; qtot   -1.082
        19           c18bf         1   UNL       c18        19    -0.15962       12.0110 ; qtot   -1.242
        20           c19bf         1   UNL       c19        20    -0.08259       12.0110 ; qtot   -1.324
        21           c20bf         1   UNL       c20        21    -0.09351       12.0110 ; qtot   -1.418
        22           c21bf         1   UNL       c21        22    -0.13392       12.0110 ; qtot   -1.552
        23           c22bf         1   UNL       c22        23     0.17293       12.0110 ; qtot   -1.379
        24           f23bf         1   UNL       f23        24    -0.17328       18.9980 ; qtot   -1.552
        25           c24bf         1   UNL       c24        25    -0.16279       12.0110 ; qtot   -1.715
        26           h25bf         1   UNL       h25        26     0.16511        1.0080 ; qtot   -1.550
        27           h26bf         1   UNL       h26        27     0.17579        1.0080 ; qtot   -1.374
        28           h27bf         1   UNL       h27        28     0.13201        1.0080 ; qtot   -1.242
        29           h28bf         1   UNL       h28        29     0.11814        1.0080 ; qtot   -1.124
        30           h29bf         1   UNL       h29        30     0.11589        1.0080 ; qtot   -1.008
        31           h30bf         1   UNL       h30        31     0.11814        1.0080 ; qtot   -0.890
        32           h31bf         1   UNL       h31        32     0.13201        1.0080 ; qtot   -0.758
        33           h32bf         1   UNL       h32        33     0.02910        1.0080 ; qtot   -0.729
        34           h33bf         1   UNL       h33        34     0.12997        1.0080 ; qtot   -0.599
        35           h34bf         1   UNL       h34        35     0.15134        1.0080 ; qtot   -0.447
        36           h35bf         1   UNL       h35        36     0.15051        1.0080 ; qtot   -0.297
        37           h36bf         1   UNL       h36        37     0.14037        1.0080 ; qtot   -0.157
        38           h37bf         1   UNL       h37        38     0.15661        1.0080 ; qtot    0.000

[ bonds ]
;       ai        aj funct               r               k
         1         2     1        0.135888   285413.511035
         2         3     1        0.140308   266715.775830
         2        25     1        0.138764   323912.925146
         3         4     1        0.140773   255765.846387
         3        21     1        0.140394   286496.616455
         4         5     1        0.139043   236995.202734
         4        26     1        0.101162   417452.675391
         5         6     1        0.122634   597571.730273
         5         7     1        0.138736   242389.099902
         7         8     1        0.140423   262254.059766
         7        27     1        0.101419   408858.186768
         8         9     1        0.141455   241784.559912
         8        20     1        0.139669   302796.953369
         9        10     1        0.137981   226841.980029
         9        17     1        0.131650   340496.647363
        10        11     1        0.139404   222620.414941
        11        12     1        0.139503   301279.002051
        11        16     1        0.139503   301279.002051
        12        13     1        0.139784   314316.666797
        12        28     1        0.108482   323705.768115
        13        14     1        0.139957   305826.650488
        13        29     1        0.108616   319976.252051
        14        15     1        0.139957   305826.650488
        14        30     1        0.108588   320939.997021
        15        16     1        0.139784   314316.666797
        15        31     1        0.108616   319976.252051
        16        32     1        0.108482   323705.793652
        17        18     1        0.134429   311714.895020
        18        19     1        0.139139   305686.196387
        18        33     1        0.108728   317581.203174
        19        20     1        0.140003   313082.688135
        19        34     1        0.108503   324361.765381
        20        35     1        0.108193   330892.395898
        21        22     1        0.139704   321843.040283
        21        36     1        0.108217   330973.527295
        22        23     1        0.139062   307879.425488
        22        37     1        0.108453   326108.554736
        23        24     1        0.135537   293055.414404
        23        25     1        0.139270   308111.634424
        25        38     1        0.108389   328686.628076

[ angles ]
;       ai        aj        ak funct           theta             cth
         1         2         3     1      118.070778      408.412341
         1         2        25     1      118.542099      555.436981
         2         3         4     1      117.896133      465.848811
         2         3        21     1      117.366394      485.137149
         2        25        23     1      117.403702      736.110753
         2        25        38     1      120.908669      429.970864
         3         2        25     1      123.285889      603.356473
         3         4         5     1      125.835693      474.200180
         3         4        26     1      114.951538      443.905763
         3        21        22     1      120.847473      745.602386
         3        21        36     1      118.967445      449.668977
         4         3        21     1      124.743919      612.000529
         4         5         6     1      124.329651      554.576253
         4         5         7     1      112.700821      550.207236
         5         4        26     1      116.933777      448.974623
         5         7         8     1      126.219688      451.027839
         5         7        27     1      117.654404      437.032322
         6         5         7     1      124.056229      550.030073
         7         8         9     1      117.626160      431.158851
         7         8        20     1      125.502136      569.232127
         8         7        27     1      114.048378      434.130349
         8         9        10     1      116.902634      364.883987
         8         9        17     1      124.298561      669.115423
         8        20        19     1      118.717087      830.537407
         8        20        35     1      119.480087      442.212844
         9         8        20     1      116.875977      643.692912
         9        10        11     1      118.971512      469.679633
         9        17        18     1      118.202881      715.701304
        10         9        17     1      119.248276      575.625151
        10        11        12     1      119.416283      502.532007
        10        11        16     1      119.416283      502.532007
        11        12        13     1      119.114395      696.773581
        11        12        28     1      119.616737      410.153748
        11        16        15     1      119.114395      696.773581
        11        16        32     1      119.616737      410.153812
        12        11        16     1      121.248672      632.959218
        12        13        14     1      120.421608      703.054880
        12        13        29     1      119.520187      426.419674
        13        12        28     1      121.379883      420.313911
        13        14        15     1      119.545815      682.752878
        13        14        30     1      120.249374      432.587556
        14        13        29     1      120.114525      427.363845
        14        15        16     1      120.421608      703.054880
        14        15        31     1      120.114540      427.363813
        15        14        30     1      120.249374      432.587492
        15        16        32     1      121.379883      420.313911
        16        15        31     1      119.520187      426.419674
        17        18        19     1      122.499290      661.638094
        17        18        33     1      116.190018      392.705103
        18        19        20     1      119.055466      724.682896
        18        19        34     1      120.600418      442.820723
        19        18        33     1      121.265182      408.189083
        19        20        35     1      121.786964      385.096928
        20        19        34     1      120.423500      439.039347
        21        22        23     1      119.095474      680.692672
        21        22        37     1      121.047348      426.517736
        22        21        36     1      120.405579      381.630202
        22        23        24     1      119.320351      579.892211
        22        23        25     1      122.138992      546.835189
        23        22        37     1      119.912819      446.276819
        23        25        38     1      121.557022      435.516311
        24        23        25     1      118.491798      581.824859

[ dihedrals ] ; propers for gromacs 4.5 or higher, use funct 9
;       ai        aj        ak        al funct           phase               k        pn
         1         2         3         4     9        0.000000        0.212026         1
         1         2         3         4     9      180.000000       19.970574         2
         1         2         3         4     9        0.000000        0.461763         3
         1         2         3         4     9      180.000000       -0.714402         4
         1         2         3        21     9        0.000000        0.569199         1
         1         2         3        21     9      180.000000       17.912070         2
         1         2         3        21     9        0.000000        0.479188         3
         1         2         3        21     9      180.000000       -0.148207         4
         1         2        25        23     9        0.000000        0.487932         1
         1         2        25        23     9      180.000000       22.982926         2
         1         2        25        23     9        0.000000        0.666141         3
         1         2        25        23     9      180.000000       -0.463496         4
         1         2        25        38     9        0.000000        0.215158         1
         1         2        25        38     9      180.000000       15.933714         2
         1         2        25        38     9        0.000000        0.239840         3
         1         2        25        38     9      180.000000        0.312645         4
         2         3         4         5     9        0.000000       -1.547959         1
         2         3         4         5     9      180.000000        1.879857         2
         2         3         4         5     9        0.000000        0.398422         3
         2         3         4         5     9      180.000000       -0.171109         4
         2         3         4        26     9        0.000000        0.029920         1
         2         3         4        26     9      180.000000        1.489283         2
         2         3         4        26     9        0.000000        0.129288         3
         2         3         4        26     9      180.000000       -0.671668         4
         2         3        21        22     9        0.000000        0.002129         1
         2         3        21        22     9      180.000000       17.123935         2
         2         3        21        22     9        0.000000       -1.175799         3
         2         3        21        22     9      180.000000       -0.355843         4
         2         3        21        36     9        0.000000        0.012013         1
         2         3        21        36     9      180.000000       13.149331         2
         2         3        21        36     9        0.000000       -0.527817         3
         2         3        21        36     9      180.000000        0.069930         4
         2        25        23        22     9        0.000000       -0.108744         1
         2        25        23        22     9      180.000000       17.017086         2
         2        25        23        22     9        0.000000       -1.295116         3
         2        25        23        22     9      180.000000       -0.342328         4
         2        25        23        24     9        0.000000        0.265172         1
         2        25        23        24     9      180.000000       22.425269         2
         2        25        23        24     9        0.000000        0.569511         3
         2        25        23        24     9      180.000000       -0.704767         4
         3         2        25        23     9        0.000000       -0.192976         1
         3         2        25        23     9      180.000000       17.087411         2
         3         2        25        23     9        0.000000       -1.467659         3
         3         2        25        23     9      180.000000       -0.236671         4
         3         2        25        38     9        0.000000        0.024704         1
         3         2        25        38     9      180.000000       12.253357         2
         3         2        25        38     9        0.000000       -0.542039         3
         3         2        25        38     9      180.000000        0.125134         4
         3         4         5         6     9        0.000000       -3.186776         1
         3         4         5         6     9      180.000000        4.970688         2
         3         4         5         6     9        0.000000       -0.710736         3
         3         4         5         6     9      180.000000       -0.192240         4
         3         4         5         7     9        0.000000        5.871383         1
         3         4         5         7     9      180.000000        6.264910         2
         3         4         5         7     9        0.000000       -0.005788         3
         3         4         5         7     9      180.000000       -0.113599         4
         3        21        22        23     9        0.000000       -0.061827         1
         3        21        22        23     9      180.000000       18.709352         2
         3        21        22        23     9        0.000000       -1.811185         3
         3        21        22        23     9      180.000000       -0.427110         4
         3        21        22        37     9        0.000000        0.084548         1
         3        21        22        37     9      180.000000       14.480533         2
         3        21        22        37     9        0.000000       -0.605870         3
         3        21        22        37     9      180.000000       -0.012354         4
         4         3         2        25     9        0.000000       -0.004763         1
         4         3         2        25     9      180.000000       13.879188         2
         4         3         2        25     9        0.000000       -0.164968         3
         4         3         2        25     9      180.000000       -0.068897         4
         4         3        21        22     9        0.000000        0.345412         1
         4         3        21        22     9      180.000000       17.284844         2
         4         3        21        22     9        0.000000        0.266650         3
         4         3        21        22     9      180.000000       -0.291108         4
         4         3        21        36     9        0.000000       -0.031862         1
         4         3        21        36     9      180.000000       13.743311         2
         4         3        21        36     9        0.000000       -0.104833         3
         4         3        21        36     9      180.000000        0.201800         4
         4         5         7         8     9        0.000000        5.652654         1
         4         5         7         8     9      180.000000        6.637303         2
         4         5         7         8     9        0.000000        0.065031         3
         4         5         7         8     9      180.000000       -0.204078         4
         4         5         7        27     9        0.000000        4.520114         1
         4         5         7        27     9      180.000000        6.955878         2
         4         5         7        27     9        0.000000       -0.244708         3
         4         5         7        27     9      180.000000        0.130109         4
         5         4         3        21     9        0.000000        0.037020         1
         5         4         3        21     9      180.000000        1.870517         2
         5         4         3        21     9        0.000000       -0.384131         3
         5         4         3        21     9      180.000000        0.250743         4
         5         7         8         9     9        0.000000       -1.674583         1
         5         7         8         9     9      180.000000        1.888939         2
         5         7         8         9     9        0.000000        0.296416         3
         5         7         8         9     9      180.000000       -0.062636         4
         5         7         8        20     9        0.000000       -0.418978         1
         5         7         8        20     9      180.000000        1.868920         2
         5         7         8        20     9        0.000000       -0.411079         3
         5         7         8        20     9      180.000000        0.466012         4
         6         5         4        26     9        0.000000       -2.070061         1
         6         5         4        26     9      180.000000        5.396445         2
         6         5         4        26     9        0.000000        0.007259         3
         6         5         4        26     9      180.000000        0.005756         4
         6         5         7         8     9        0.000000       -2.527559         1
         6         5         7         8     9      180.000000        4.982852         2
         6         5         7         8     9        0.000000       -0.700781         3
         6         5         7         8     9      180.000000       -0.190937         4
         6         5         7        27     9        0.000000       -2.197597         1
         6         5         7        27     9      180.000000        5.206706         2
         6         5         7        27     9        0.000000       -0.156254         3
         6         5         7        27     9      180.000000       -0.061739         4
         7         5         4        26     9        0.000000        4.935768         1
         7         5         4        26     9      180.000000        6.793674         2
         7         5         4        26     9        0.000000       -0.414756         3
         7         5         4        26     9      180.000000        0.171770         4
         7         8         9        10     9        0.000000        0.074136         1
         7         8         9        10     9      180.000000       15.962561         2
         7         8         9        10     9        0.000000        0.331134         3
         7         8         9        10     9      180.000000       -0.379359         4
         7         8         9        17     9        0.000000        0.220829         1
         7         8         9        17     9      180.000000       12.478479         2
         7         8         9        17     9        0.000000       -0.109574         3
         7         8         9        17     9      180.000000       -0.329487         4
         7         8        20        19     9        0.000000        0.334774         1
         7         8        20        19     9      180.000000       18.629020         2
         7         8        20        19     9        0.000000        0.316336         3
         7         8        20        19     9      180.000000       -0.464756         4
         7         8        20        35     9        0.000000        0.246514         1
         7         8        20        35     9      180.000000       14.352632         2
         7         8        20        35     9        0.000000       -0.128549         3
         7         8        20        35     9      180.000000        0.162568         4
         8         9        10        11     9        0.000000        3.290438         1
         8         9        10        11     9      180.000000        2.910513         2
         8         9        10        11     9        0.000000        0.012972         3
         8         9        10        11     9      180.000000       -0.086176         4
         8         9        17        18     9        0.000000        0.158667         1
         8         9        17        18     9      180.000000       23.115477         2
         8         9        17        18     9        0.000000       -0.233633         3
         8         9        17        18     9      180.000000       -0.071711         4
         8        20        19        18     9        0.000000        0.066168         1
         8        20        19        18     9      180.000000       18.396385         2
         8        20        19        18     9        0.000000       -2.102023         3
         8        20        19        18     9      180.000000       -0.535985         4
         8        20        19        34     9        0.000000        0.126273         1
         8        20        19        34     9      180.000000       15.018723         2
         8        20        19        34     9        0.000000       -0.647982         3
         8        20        19        34     9      180.000000       -0.080099         4
         9         8         7        27     9        0.000000        1.738829         1
         9         8         7        27     9      180.000000        1.587693         2
         9         8         7        27     9        0.000000        0.489558         3
         9         8         7        27     9      180.000000       -0.381082         4
         9         8        20        19     9        0.000000        0.030816         1
         9         8        20        19     9      180.000000       17.824406         2
         9         8        20        19     9        0.000000       -1.212316         3
         9         8        20        19     9      180.000000       -0.515062         4
         9         8        20        35     9        0.000000        0.112899         1
         9         8        20        35     9      180.000000       13.626115         2
         9         8        20        35     9        0.000000       -0.408094         3
         9         8        20        35     9      180.000000        0.036470         4
         9        10        11        12     9        0.000000        0.157251         1
         9        10        11        12     9      180.000000        3.596616         2
         9        10        11        12     9        0.000000       -0.526607         3
         9        10        11        12     9      180.000000        0.448616         4
         9        10        11        16     9        0.000000        0.157251         1
         9        10        11        16     9      180.000000        3.596616         2
         9        10        11        16     9        0.000000       -0.526607         3
         9        10        11        16     9      180.000000        0.448616         4
         9        17        18        19     9        0.000000        0.056122         1
         9        17        18        19     9      180.000000       22.227408         2
         9        17        18        19     9        0.000000       -1.099500         3
         9        17        18        19     9      180.000000       -0.344180         4
         9        17        18        33     9        0.000000        1.036487         1
         9        17        18        33     9      180.000000       19.807959         2
         9        17        18        33     9        0.000000        0.288466         3
         9        17        18        33     9      180.000000       -0.599442         4
        10         9         8        20     9        0.000000        0.365231         1
        10         9         8        20     9      180.000000       12.924325         2
        10         9         8        20     9        0.000000        0.264962         3
        10         9         8        20     9      180.000000       -0.063777         4
        10         9        17        18     9        0.000000        0.950315         1
        10         9        17        18     9      180.000000       29.929997         2
        10         9        17        18     9        0.000000        1.346924         3
        10         9        17        18     9      180.000000       -0.727342         4
        10        11        12        13     9        0.000000        0.660994         1
        10        11        12        13     9      180.000000       18.817169         2
        10        11        12        13     9        0.000000        0.627656         3
        10        11        12        13     9      180.000000       -0.416136         4
        10        11        12        28     9        0.000000        0.142393         1
        10        11        12        28     9      180.000000       14.116409         2
        10        11        12        28     9        0.000000        0.188712         3
        10        11        12        28     9      180.000000        0.251220         4
        10        11        16        15     9        0.000000        0.660994         1
        10        11        16        15     9      180.000000       18.817169         2
        10        11        16        15     9        0.000000        0.627656         3
        10        11        16        15     9      180.000000       -0.416136         4
        10        11        16        32     9        0.000000        0.142393         1
        10        11        16        32     9      180.000000       14.116408         2
        10        11        16        32     9        0.000000        0.188712         3
        10        11        16        32     9      180.000000        0.251220         4
        11        10         9        17     9        0.000000       -1.677185         1
        11        10         9        17     9      180.000000        4.252056         2
        11        10         9        17     9        0.000000       -0.779594         3
        11        10         9        17     9      180.000000       -0.063737         4
        11        12        13        14     9        0.000000       -0.076958         1
        11        12        13        14     9      180.000000       18.879575         2
        11        12        13        14     9        0.000000       -1.526817         3
        11        12        13        14     9      180.000000       -0.486702         4
        11        12        13        29     9        0.000000        0.074716         1
        11        12        13        29     9      180.000000       14.995904         2
        11        12        13        29     9        0.000000       -0.484518         3
        11        12        13        29     9      180.000000       -0.010221         4
        11        16        15        14     9        0.000000       -0.076958         1
        11        16        15        14     9      180.000000       18.879575         2
        11        16        15        14     9        0.000000       -1.526817         3
        11        16        15        14     9      180.000000       -0.486702         4
        11        16        15        31     9        0.000000        0.074716         1
        11        16        15        31     9      180.000000       14.995904         2
        11        16        15        31     9        0.000000       -0.484517         3
        11        16        15        31     9      180.000000       -0.010221         4
        12        11        16        15     9        0.000000       -0.000711         1
        12        11        16        15     9      180.000000       17.130387         2
        12        11        16        15     9        0.000000       -1.006225         3
        12        11        16        15     9      180.000000       -0.259291         4
        12        11        16        32     9        0.000000        0.094886         1
        12        11        16        32     9      180.000000       13.069821         2
        12        11        16        32     9        0.000000       -0.521681         3
        12        11        16        32     9      180.000000        0.173217         4
        12        13        14        15     9        0.000000       -0.008959         1
        12        13        14        15     9      180.000000       18.821829         2
        12        13        14        15     9        0.000000       -1.675046         3
        12        13        14        15     9      180.000000       -0.384406         4
        12        13        14        30     9        0.000000        0.068621         1
        12        13        14        30     9      180.000000       14.876561         2
        12        13        14        30     9        0.000000       -0.860041         3
        12        13        14        30     9      180.000000        0.076374         4
        13        12        11        16     9        0.000000       -0.000711         1
        13        12        11        16     9      180.000000       17.130387         2
        13        12        11        16     9        0.000000       -1.006225         3
        13        12        11        16     9      180.000000       -0.259291         4
        13        14        15        16     9        0.000000       -0.008959         1
        13        14        15        16     9      180.000000       18.821829         2
        13        14        15        16     9        0.000000       -1.675046         3
        13        14        15        16     9      180.000000       -0.384406         4
        13        14        15        31     9        0.000000        0.011380         1
        13        14        15        31     9      180.000000       14.405274         2
        13        14        15        31     9        0.000000       -0.823960         3
        13        14        15        31     9      180.000000        0.144629         4
        14        13        12        28     9        0.000000        0.081389         1
        14        13        12        28     9      180.000000       14.085677         2
        14        13        12        28     9        0.000000       -0.605986         3
        14        13        12        28     9      180.000000        0.138354         4
        14        15        16        32     9        0.000000        0.081389         1
        14        15        16        32     9      180.000000       14.085676         2
        14        15        16        32     9        0.000000       -0.605986         3
        14        15        16        32     9      180.000000        0.138355         4
        15        14        13        29     9        0.000000        0.011380         1
        15        14        13        29     9      180.000000       14.405273         2
        15        14        13        29     9        0.000000       -0.823961         3
        15        14        13        29     9      180.000000        0.144629         4
        16        11        12        28     9        0.000000        0.094886         1
        16        11        12        28     9      180.000000       13.069822         2
        16        11        12        28     9        0.000000       -0.521681         3
        16        11        12        28     9      180.000000        0.173217         4
        16        15        14        30     9        0.000000        0.068621         1
        16        15        14        30     9      180.000000       14.876561         2
        16        15        14        30     9        0.000000       -0.860041         3
        16        15        14        30     9      180.000000        0.076374         4
        17         9         8        20     9        0.000000        0.040752         1
        17         9         8        20     9      180.000000       10.972651         2
        17         9         8        20     9        0.000000       -0.517360         3
        17         9         8        20     9      180.000000       -0.118747         4
        17        18        19        20     9        0.000000        0.100605         1
        17        18        19        20     9      180.000000       20.168024         2
        17        18        19        20     9        0.000000       -1.195336         3
        17        18        19        20     9      180.000000       -0.567771         4
        17        18        19        34     9        0.000000        0.174483         1
        17        18        19        34     9      180.000000       15.688093         2
        17        18        19        34     9        0.000000       -0.259874         3
        17        18        19        34     9      180.000000       -0.156477         4
        18        19        20        35     9        0.000000        0.167050         1
        18        19        20        35     9      180.000000       14.479788         2
        18        19        20        35     9        0.000000       -0.751910         3
        18        19        20        35     9      180.000000        0.148426         4
        20         8         7        27     9        0.000000        0.403978         1
        20         8         7        27     9      180.000000        2.149404         2
        20         8         7        27     9        0.000000        0.432386         3
        20         8         7        27     9      180.000000       -0.165766         4
        20        19        18        33     9        0.000000        0.082490         1
        20        19        18        33     9      180.000000       14.362334         2
        20        19        18        33     9        0.000000       -0.749614         3
        20        19        18        33     9      180.000000        0.097546         4
        21         3         2        25     9        0.000000       -0.025937         1
        21         3         2        25     9      180.000000       13.978817         2
        21         3         2        25     9        0.000000       -1.033596         3
        21         3         2        25     9      180.000000       -0.049359         4
        21         3         4        26     9        0.000000       -0.073581         1
        21         3         4        26     9      180.000000        1.819212         2
        21         3         4        26     9        0.000000       -0.146560         3
        21         3         4        26     9      180.000000       -0.432516         4
        21        22        23        24     9        0.000000        0.593154         1
        21        22        23        24     9      180.000000       22.506046         2
        21        22        23        24     9        0.000000        0.499228         3
        21        22        23        24     9      180.000000       -0.620614         4
        21        22        23        25     9        0.000000       -0.015296         1
        21        22        23        25     9      180.000000       17.109331         2
        21        22        23        25     9        0.000000       -1.218488         3
        21        22        23        25     9      180.000000       -0.336679         4
        22        23        25        38     9        0.000000        0.178904         1
        22        23        25        38     9      180.000000       12.111718         2
        22        23        25        38     9        0.000000       -0.475121         3
        22        23        25        38     9      180.000000        0.184205         4
        23        22        21        36     9        0.000000        0.161270         1
        23        22        21        36     9      180.000000       14.750787         2
        23        22        21        36     9        0.000000       -0.605994         3
        23        22        21        36     9      180.000000        0.092699         4
        24        23        22        37     9        0.000000        0.231350         1
        24        23        22        37     9      180.000000       15.680366         2
        24        23        22        37     9        0.000000        0.302158         3
        24        23        22        37     9      180.000000        0.167355         4
        24        23        25        38     9        0.000000        0.276795         1
        24        23        25        38     9      180.000000       14.674730         2
        24        23        25        38     9        0.000000        0.279358         3
        24        23        25        38     9      180.000000        0.262107         4
        25        23        22        37     9        0.000000        0.110557         1
        25        23        22        37     9      180.000000       13.020769         2
        25        23        22        37     9        0.000000       -0.535367         3
        25        23        22        37     9      180.000000        0.135349         4
        28        12        13        29     9        0.000000       -0.113480         1
        28        12        13        29     9      180.000000       12.043601         2
        28        12        13        29     9        0.000000       -0.652925         3
        28        12        13        29     9      180.000000        0.223545         4
        29        13        14        30     9        0.000000       -0.081051         1
        29        13        14        30     9      180.000000       11.751569         2
        29        13        14        30     9        0.000000       -0.614548         3
        29        13        14        30     9      180.000000        0.267313         4
        30        14        15        31     9        0.000000       -0.081052         1
        30        14        15        31     9      180.000000       11.751569         2
        30        14        15        31     9        0.000000       -0.614548         3
        30        14        15        31     9      180.000000        0.267313         4
        31        15        16        32     9        0.000000       -0.113482         1
        31        15        16        32     9      180.000000       12.043602         2
        31        15        16        32     9        0.000000       -0.652925         3
        31        15        16        32     9      180.000000        0.223544         4
        33        18        19        34     9        0.000000       -0.153197         1
        33        18        19        34     9      180.000000       12.054830         2
        33        18        19        34     9        0.000000       -0.693173         3
        33        18        19        34     9      180.000000        0.290661         4
        34        19        20        35     9        0.000000       -0.114528         1
        34        19        20        35     9      180.000000       11.840302         2
        34        19        20        35     9        0.000000       -0.671560         3
        34        19        20        35     9      180.000000        0.313357         4
        36        21        22        37     9        0.000000       -0.178549         1
        36        21        22        37     9      180.000000       12.068912         2
        36        21        22        37     9        0.000000       -0.803074         3
        36        21        22        37     9      180.000000        0.249230         4

[ dihedrals ] ; impropers
;       ai        aj        ak        al funct           phase               k        pn
         5         4         6         7     4      180.000000       20.368551         2
         5         6         7         4     4      180.000000       20.368551         2
         5         7         4         6     4      180.000000       20.368551         2
        12        11        13        28     4      180.000000        0.677204         2
        12        13        28        11     4      180.000000        0.677204         2
        12        28        11        13     4      180.000000        0.677204         2
        13        12        14        29     4      180.000000        2.379684         2
        13        14        29        12     4      180.000000        2.379684         2
        13        29        12        14     4      180.000000        2.379684         2
        15        14        16        31     4      180.000000        2.379684         2
        15        16        31        14     4      180.000000        2.379684         2
        15        31        14        16     4      180.000000        2.379684         2
        16        11        15        32     4      180.000000        0.677204         2
        16        15        32        11     4      180.000000        0.677204         2
        16        32        11        15     4      180.000000        0.677204         2
        18        17        19        33     4      180.000000        0.546116         2
        18        19        33        17     4      180.000000        0.546116         2
        18        33        17        19     4      180.000000        0.546116         2
        23        22        24        25     4      180.000000        0.530766         2
        23        24        25        22     4      180.000000        0.530766         2
        23        25        22        24     4      180.000000        0.530766         2

[ pairs ]
;       ai        aj funct
         1         4     1
         1        21     1
         1        23     1
         1        38     1
         2         5     1
         2        22     1
         2        24     1
         2        26     1
         2        36     1
         3         6     1
         3         7     1
         3        23     1
         3        37     1
         3        38     1
         4         8     1
         4        22     1
         4        25     1
         4        27     1
         4        36     1
         5         9     1
         5        20     1
         5        21     1
         6         8     1
         6        26     1
         6        27     1
         7        10     1
         7        17     1
         7        19     1
         7        26     1
         7        35     1
         8        11     1
         8        18     1
         8        34     1
         9        12     1
         9        16     1
         9        19     1
         9        27     1
         9        33     1
         9        35     1
        10        13     1
        10        15     1
        10        18     1
        10        20     1
        10        28     1
        10        32     1
        11        14     1
        11        17     1
        11        29     1
        11        31     1
        12        15     1
        12        30     1
        12        32     1
        13        16     1
        13        31     1
        14        28     1
        14        32     1
        15        29     1
        16        28     1
        16        30     1
        17        20     1
        17        34     1
        18        35     1
        20        27     1
        20        33     1
        21        24     1
        21        25     1
        21        26     1
        22        38     1
        23        36     1
        24        37     1
        24        38     1
        25        37     1
        28        29     1
        29        30     1
        30        31     1
        31        32     1
        33        34     1
        34        35     1
        36        37     1
