; ITP file created by ByteFF-ML, 2026-03-15 01:39:02.291014

[ atomtypes ]
;name           bonded.type        at.num        mass        charge   ptype           sigma         epsilon
 f0bf                                   9      0.0000       0.00000       A     3.03340e-01     3.48471e-01
 c1bf                                   6      0.0000       0.00000       A     3.31429e-01     4.14140e-01
 c2bf                                   6      0.0000       0.00000       A     3.31384e-01     4.12247e-01
 n3bf                                   7      0.0000       0.00000       A     3.26977e-01     4.92628e-01
 c4bf                                   6      0.0000       0.00000       A     3.31228e-01     4.15270e-01
 o5bf                                   8      0.0000       0.00000       A     3.04781e-01     6.14498e-01
 n6bf                                   7      0.0000       0.00000       A     3.26853e-01     4.96156e-01
 c7bf                                   6      0.0000       0.00000       A     3.31219e-01     4.13182e-01
 c8bf                                   6      0.0000       0.00000       A     3.31208e-01     4.10333e-01
 o9bf                                   8      0.0000       0.00000       A     3.15742e-01     3.05642e-01
 c10bf                                  6      0.0000       0.00000       A     3.31255e-01     4.12866e-01
 c11bf                                  6      0.0000       0.00000       A     3.31338e-01     4.11687e-01
 c12bf                                  6      0.0000       0.00000       A     3.40026e-01     4.53091e-01
 c13bf                                  6      0.0000       0.00000       A     3.39784e-01     4.50368e-01
 c14bf                                  6      0.0000       0.00000       A     3.39784e-01     4.50368e-01
 c15bf                                  6      0.0000       0.00000       A     3.39784e-01     4.50368e-01
 c16bf                                  6      0.0000       0.00000       A     3.31544e-01     4.12464e-01
 c17bf                                  6      0.0000       0.00000       A     3.31490e-01     4.13128e-01
 c18bf                                  6      0.0000       0.00000       A     3.31526e-01     4.13154e-01
 c19bf                                  6      0.0000       0.00000       A     3.31485e-01     4.13340e-01
 n20bf                                  7      0.0000       0.00000       A     3.38247e-01     3.91955e-01
 c21bf                                  6      0.0000       0.00000       A     3.31514e-01     4.12560e-01
 c22bf                                  6      0.0000       0.00000       A     3.31481e-01     4.12981e-01
 c23bf                                  6      0.0000       0.00000       A     3.31584e-01     4.13224e-01
 c24bf                                  6      0.0000       0.00000       A     3.31630e-01     4.12592e-01
 c25bf                                  6      0.0000       0.00000       A     3.31461e-01     4.12675e-01
 c26bf                                  6      0.0000       0.00000       A     3.31486e-01     4.13545e-01
 f27bf                                  9      0.0000       0.00000       A     3.03414e-01     3.47611e-01
 c28bf                                  6      0.0000       0.00000       A     3.31555e-01     4.12916e-01
 h29bf                                  1      0.0000       0.00000       A     1.10655e-01     4.19367e-02
 h30bf                                  1      0.0000       0.00000       A     1.10974e-01     4.12520e-02
 h31bf                                  1      0.0000       0.00000       A     2.59968e-01     8.75795e-02
 h32bf                                  1      0.0000       0.00000       A     2.59968e-01     8.75795e-02
 h33bf                                  1      0.0000       0.00000       A     2.59968e-01     8.75795e-02
 h34bf                                  1      0.0000       0.00000       A     2.59968e-01     8.75795e-02
 h35bf                                  1      0.0000       0.00000       A     2.59968e-01     8.75795e-02
 h36bf                                  1      0.0000       0.00000       A     2.59968e-01     8.75795e-02
 h37bf                                  1      0.0000       0.00000       A     2.59968e-01     8.75795e-02
 h38bf                                  1      0.0000       0.00000       A     2.59968e-01     8.75795e-02
 h39bf                                  1      0.0000       0.00000       A     2.59968e-01     8.75795e-02
 h40bf                                  1      0.0000       0.00000       A     2.62611e-01     6.81170e-02
 h41bf                                  1      0.0000       0.00000       A     2.62458e-01     6.72983e-02
 h42bf                                  1      0.0000       0.00000       A     2.62489e-01     6.72695e-02
 h43bf                                  1      0.0000       0.00000       A     2.62444e-01     6.72089e-02
 h44bf                                  1      0.0000       0.00000       A     2.53538e-01     6.71594e-02
 h45bf                                  1      0.0000       0.00000       A     2.62506e-01     6.74387e-02
 h46bf                                  1      0.0000       0.00000       A     2.62621e-01     6.73062e-02
 h47bf                                  1      0.0000       0.00000       A     2.62616e-01     6.72520e-02
 h48bf                                  1      0.0000       0.00000       A     2.62554e-01     6.71881e-02
 h49bf                                  1      0.0000       0.00000       A     2.62508e-01     6.71562e-02

[ moleculetype ]
;name             nrexcl
 11b                   3

[ atoms ]
;       nr            type      resi   res      atom      cgnr      charge          mass ; qtot
         1            f0bf         1   UNL        f0         1    -0.17864       18.9980 ; qtot   -0.179
         2            c1bf         1   UNL        c1         2     0.14722       12.0110 ; qtot   -0.031
         3            c2bf         1   UNL        c2         3    -0.06639       12.0110 ; qtot   -0.098
         4            n3bf         1   UNL        n3         4    -0.15983       14.0070 ; qtot   -0.258
         5            c4bf         1   UNL        c4         5     0.66117       12.0110 ; qtot    0.404
         6            o5bf         1   UNL        o5         6    -0.59150       15.9990 ; qtot   -0.188
         7            n6bf         1   UNL        n6         7    -0.14979       14.0070 ; qtot   -0.338
         8            c7bf         1   UNL        c7         8    -0.06851       12.0110 ; qtot   -0.406
         9            c8bf         1   UNL        c8         9     0.51998       12.0110 ; qtot    0.114
        10            o9bf         1   UNL        o9        10    -0.38057       15.9990 ; qtot   -0.267
        11           c10bf         1   UNL       c10        11     0.11071       12.0110 ; qtot   -0.156
        12           c11bf         1   UNL       c11        12    -0.06786       12.0110 ; qtot   -0.224
        13           c12bf         1   UNL       c12        13     0.00260       12.0110 ; qtot   -0.221
        14           c13bf         1   UNL       c13        14    -0.08869       12.0110 ; qtot   -0.310
        15           c14bf         1   UNL       c14        15    -0.08869       12.0110 ; qtot   -0.399
        16           c15bf         1   UNL       c15        16    -0.08869       12.0110 ; qtot   -0.487
        17           c16bf         1   UNL       c16        17    -0.09398       12.0110 ; qtot   -0.581
        18           c17bf         1   UNL       c17        18    -0.12422       12.0110 ; qtot   -0.706
        19           c18bf         1   UNL       c18        19    -0.10124       12.0110 ; qtot   -0.807
        20           c19bf         1   UNL       c19        20    -0.11683       12.0110 ; qtot   -0.924
        21           n20bf         1   UNL       n20        21    -0.70674       14.0070 ; qtot   -1.630
        22           c21bf         1   UNL       c21        22     0.34178       12.0110 ; qtot   -1.289
        23           c22bf         1   UNL       c22        23    -0.15962       12.0110 ; qtot   -1.448
        24           c23bf         1   UNL       c23        24    -0.08259       12.0110 ; qtot   -1.531
        25           c24bf         1   UNL       c24        25    -0.09351       12.0110 ; qtot   -1.624
        26           c25bf         1   UNL       c25        26    -0.13392       12.0110 ; qtot   -1.758
        27           c26bf         1   UNL       c26        27     0.17293       12.0110 ; qtot   -1.585
        28           f27bf         1   UNL       f27        28    -0.17328       18.9980 ; qtot   -1.759
        29           c28bf         1   UNL       c28        29    -0.16279       12.0110 ; qtot   -1.921
        30           h29bf         1   UNL       h29        30     0.16511        1.0080 ; qtot   -1.756
        31           h30bf         1   UNL       h30        31     0.17579        1.0080 ; qtot   -1.581
        32           h31bf         1   UNL       h31        32     0.03755        1.0080 ; qtot   -1.543
        33           h32bf         1   UNL       h32        33     0.03755        1.0080 ; qtot   -1.505
        34           h33bf         1   UNL       h33        34     0.03755        1.0080 ; qtot   -1.468
        35           h34bf         1   UNL       h34        35     0.03755        1.0080 ; qtot   -1.430
        36           h35bf         1   UNL       h35        36     0.03755        1.0080 ; qtot   -1.393
        37           h36bf         1   UNL       h36        37     0.03755        1.0080 ; qtot   -1.355
        38           h37bf         1   UNL       h37        38     0.03755        1.0080 ; qtot   -1.318
        39           h38bf         1   UNL       h38        39     0.03755        1.0080 ; qtot   -1.280
        40           h39bf         1   UNL       h39        40     0.03755        1.0080 ; qtot   -1.243
        41           h40bf         1   UNL       h40        41     0.11854        1.0080 ; qtot   -1.124
        42           h41bf         1   UNL       h41        42     0.11707        1.0080 ; qtot   -1.007
        43           h42bf         1   UNL       h42        43     0.11856        1.0080 ; qtot   -0.888
        44           h43bf         1   UNL       h43        44     0.13056        1.0080 ; qtot   -0.758
        45           h44bf         1   UNL       h44        45     0.02910        1.0080 ; qtot   -0.729
        46           h45bf         1   UNL       h45        46     0.12997        1.0080 ; qtot   -0.599
        47           h46bf         1   UNL       h46        47     0.15134        1.0080 ; qtot   -0.448
        48           h47bf         1   UNL       h47        48     0.15051        1.0080 ; qtot   -0.297
        49           h48bf         1   UNL       h48        49     0.14037        1.0080 ; qtot   -0.157
        50           h49bf         1   UNL       h49        50     0.15662        1.0080 ; qtot    0.000

[ bonds ]
;       ai        aj funct               r               k
         1         2     1        0.135888   285413.511035
         2         3     1        0.140308   266715.775830
         2        29     1        0.138764   323912.925146
         3         4     1        0.140773   255765.846387
         3        25     1        0.140394   286496.616455
         4         5     1        0.139043   236995.202734
         4        30     1        0.101162   417452.675391
         5         6     1        0.122634   597571.730273
         5         7     1        0.138736   242389.099902
         7         8     1        0.140423   262254.059766
         7        31     1        0.101419   408858.186768
         8         9     1        0.141493   241216.997656
         8        24     1        0.139669   302796.953369
         9        10     1        0.137663   229905.896875
         9        21     1        0.131662   340536.893848
        10        11     1        0.140037   213875.129687
        11        12     1        0.140637   264626.457227
        11        20     1        0.139477   301838.520117
        12        13     1        0.154074   154117.553174
        12        17     1        0.140460   285776.112451
        13        14     1        0.154643   167727.147021
        13        15     1        0.154643   167727.147021
        13        16     1        0.154643   167727.147021
        14        32     1        0.109358   300126.563379
        14        33     1        0.109358   300126.563379
        14        34     1        0.109358   300126.563379
        15        35     1        0.109358   300126.563379
        15        36     1        0.109358   300126.563379
        15        37     1        0.109358   300126.563379
        16        38     1        0.109358   300126.563379
        16        39     1        0.109358   300126.563379
        16        40     1        0.109358   300126.563379
        17        18     1        0.139724   313549.583105
        17        41     1        0.108432   321056.216406
        18        19     1        0.139644   310884.734668
        18        42     1        0.108597   320113.718311
        19        20     1        0.139712   313962.160645
        19        43     1        0.108603   320355.937793
        20        44     1        0.108489   322366.959619
        21        22     1        0.134429   311714.895020
        22        23     1        0.139139   305686.170850
        22        45     1        0.108728   317581.203174
        23        24     1        0.140003   313082.713672
        23        46     1        0.108503   324361.739844
        24        47     1        0.108193   330892.395898
        25        26     1        0.139704   321843.065820
        25        48     1        0.108217   330973.527295
        26        27     1        0.139062   307879.425488
        26        49     1        0.108453   326108.554736
        27        28     1        0.135537   293055.414404
        27        29     1        0.139270   308111.634424
        29        50     1        0.108389   328686.628076

[ angles ]
;       ai        aj        ak funct           theta             cth
         1         2         3     1      118.070778      408.412341
         1         2        29     1      118.542099      555.436981
         2         3         4     1      117.896133      465.848779
         2         3        25     1      117.366394      485.137213
         2        29        27     1      117.403702      736.110753
         2        29        50     1      120.908669      429.970864
         3         2        29     1      123.285889      603.356473
         3         4         5     1      125.835678      474.200180
         3         4        30     1      114.951523      443.905763
         3        25        26     1      120.847473      745.602386
         3        25        48     1      118.967445      449.668977
         4         3        25     1      124.743919      612.000529
         4         5         6     1      124.329651      554.576253
         4         5         7     1      112.700821      550.207236
         5         4        30     1      116.933777      448.974623
         5         7         8     1      126.219688      451.027839
         5         7        31     1      117.654404      437.032322
         6         5         7     1      124.056229      550.029945
         7         8         9     1      117.570358      431.330364
         7         8        24     1      125.502136      569.232191
         8         7        31     1      114.048378      434.130349
         8         9        10     1      117.118675      362.481104
         8         9        21     1      124.240524      669.889964
         8        24        23     1      118.717087      830.537535
         8        24        47     1      119.480087      442.212908
         9         8        24     1      116.908203      645.538096
         9        10        11     1      119.146523      455.886242
         9        21        22     1      118.225052      718.638965
        10         9        21     1      119.259598      570.701660
        10        11        12     1      119.750610      417.072453
        10        11        20     1      117.316177      496.941774
        11        12        13     1      122.997574      478.825908
        11        12        17     1      116.001907      690.525097
        11        20        19     1      119.745117      680.162138
        11        20        44     1      119.102554      397.245633
        12        11        20     1      122.352585      652.146461
        12        13        14     1      110.513222      621.430937
        12        13        15     1      110.513222      621.430937
        12        13        16     1      110.513222      621.430937
        12        17        18     1      122.479416      701.606096
        12        17        41     1      119.045700      386.005985
        13        12        17     1      121.360046      477.205483
        13        14        32     1      110.917320      475.023752
        13        14        33     1      110.917320      475.023752
        13        14        34     1      110.917320      475.023752
        13        15        35     1      110.917320      475.023752
        13        15        36     1      110.917320      475.023752
        13        15        37     1      110.917320      475.023752
        13        16        38     1      110.917320      475.023752
        13        16        39     1      110.917320      475.023752
        13        16        40     1      110.917320      475.023752
        14        13        15     1      108.242996      568.694444
        14        13        16     1      108.242996      568.694444
        15        13        16     1      108.242996      568.694444
        17        18        19     1      119.784180      703.986155
        17        18        42     1      119.846458      433.781065
        18        17        41     1      118.546585      425.325888
        18        19        20     1      119.495224      703.985197
        18        19        43     1      120.649620      419.172178
        19        18        42     1      120.401512      433.041351
        19        20        44     1      121.269363      424.147126
        20        19        43     1      119.866898      428.281169
        21        22        23     1      122.499290      661.638094
        21        22        45     1      116.190018      392.705071
        22        23        24     1      119.055466      724.682896
        22        23        46     1      120.600418      442.820723
        23        22        45     1      121.265182      408.189083
        23        24        47     1      121.786964      385.096928
        24        23        46     1      120.423500      439.039411
        25        26        27     1      119.095474      680.692608
        25        26        49     1      121.047348      426.517736
        26        25        48     1      120.405594      381.630202
        26        27        28     1      119.320351      579.892275
        26        27        29     1      122.138992      546.835189
        27        26        49     1      119.912819      446.276883
        27        29        50     1      121.557022      435.516311
        28        27        29     1      118.491798      581.824859
        32        14        33     1      107.976624      360.978533
        32        14        34     1      107.976624      360.978533
        33        14        34     1      107.976624      360.978533
        35        15        36     1      107.976624      360.978533
        35        15        37     1      107.976624      360.978533
        36        15        37     1      107.976624      360.978533
        38        16        39     1      107.976624      360.978533
        38        16        40     1      107.976624      360.978533
        39        16        40     1      107.976624      360.978565

[ dihedrals ] ; propers for gromacs 4.5 or higher, use funct 9
;       ai        aj        ak        al funct           phase               k        pn
         1         2         3         4     9        0.000000        0.212026         1
         1         2         3         4     9      180.000000       19.970574         2
         1         2         3         4     9        0.000000        0.461763         3
         1         2         3         4     9      180.000000       -0.714402         4
         1         2         3        25     9        0.000000        0.569198         1
         1         2         3        25     9      180.000000       17.912068         2
         1         2         3        25     9        0.000000        0.479188         3
         1         2         3        25     9      180.000000       -0.148207         4
         1         2        29        27     9        0.000000        0.487932         1
         1         2        29        27     9      180.000000       22.982926         2
         1         2        29        27     9        0.000000        0.666141         3
         1         2        29        27     9      180.000000       -0.463496         4
         1         2        29        50     9        0.000000        0.215158         1
         1         2        29        50     9      180.000000       15.933714         2
         1         2        29        50     9        0.000000        0.239840         3
         1         2        29        50     9      180.000000        0.312645         4
         2         3         4         5     9        0.000000       -1.547959         1
         2         3         4         5     9      180.000000        1.879857         2
         2         3         4         5     9        0.000000        0.398422         3
         2         3         4         5     9      180.000000       -0.171109         4
         2         3         4        30     9        0.000000        0.029920         1
         2         3         4        30     9      180.000000        1.489283         2
         2         3         4        30     9        0.000000        0.129288         3
         2         3         4        30     9      180.000000       -0.671668         4
         2         3        25        26     9        0.000000        0.002129         1
         2         3        25        26     9      180.000000       17.123935         2
         2         3        25        26     9        0.000000       -1.175798         3
         2         3        25        26     9      180.000000       -0.355843         4
         2         3        25        48     9        0.000000        0.012014         1
         2         3        25        48     9      180.000000       13.149332         2
         2         3        25        48     9        0.000000       -0.527817         3
         2         3        25        48     9      180.000000        0.069929         4
         2        29        27        26     9        0.000000       -0.108746         1
         2        29        27        26     9      180.000000       17.017086         2
         2        29        27        26     9        0.000000       -1.295117         3
         2        29        27        26     9      180.000000       -0.342328         4
         2        29        27        28     9        0.000000        0.265172         1
         2        29        27        28     9      180.000000       22.425269         2
         2        29        27        28     9        0.000000        0.569511         3
         2        29        27        28     9      180.000000       -0.704767         4
         3         2        29        27     9        0.000000       -0.192976         1
         3         2        29        27     9      180.000000       17.087411         2
         3         2        29        27     9        0.000000       -1.467659         3
         3         2        29        27     9      180.000000       -0.236671         4
         3         2        29        50     9        0.000000        0.024704         1
         3         2        29        50     9      180.000000       12.253357         2
         3         2        29        50     9        0.000000       -0.542039         3
         3         2        29        50     9      180.000000        0.125134         4
         3         4         5         6     9        0.000000       -3.186776         1
         3         4         5         6     9      180.000000        4.970688         2
         3         4         5         6     9        0.000000       -0.710736         3
         3         4         5         6     9      180.000000       -0.192240         4
         3         4         5         7     9        0.000000        5.871383         1
         3         4         5         7     9      180.000000        6.264910         2
         3         4         5         7     9        0.000000       -0.005788         3
         3         4         5         7     9      180.000000       -0.113599         4
         3        25        26        27     9        0.000000       -0.061827         1
         3        25        26        27     9      180.000000       18.709354         2
         3        25        26        27     9        0.000000       -1.811185         3
         3        25        26        27     9      180.000000       -0.427109         4
         3        25        26        49     9        0.000000        0.084549         1
         3        25        26        49     9      180.000000       14.480534         2
         3        25        26        49     9        0.000000       -0.605870         3
         3        25        26        49     9      180.000000       -0.012353         4
         4         3         2        29     9        0.000000       -0.004763         1
         4         3         2        29     9      180.000000       13.879188         2
         4         3         2        29     9        0.000000       -0.164968         3
         4         3         2        29     9      180.000000       -0.068897         4
         4         3        25        26     9        0.000000        0.345411         1
         4         3        25        26     9      180.000000       17.284844         2
         4         3        25        26     9        0.000000        0.266650         3
         4         3        25        26     9      180.000000       -0.291108         4
         4         3        25        48     9        0.000000       -0.031863         1
         4         3        25        48     9      180.000000       13.743311         2
         4         3        25        48     9        0.000000       -0.104833         3
         4         3        25        48     9      180.000000        0.201800         4
         4         5         7         8     9        0.000000        5.652654         1
         4         5         7         8     9      180.000000        6.637303         2
         4         5         7         8     9        0.000000        0.065031         3
         4         5         7         8     9      180.000000       -0.204078         4
         4         5         7        31     9        0.000000        4.520114         1
         4         5         7        31     9      180.000000        6.955878         2
         4         5         7        31     9        0.000000       -0.244708         3
         4         5         7        31     9      180.000000        0.130109         4
         5         4         3        25     9        0.000000        0.037021         1
         5         4         3        25     9      180.000000        1.870518         2
         5         4         3        25     9        0.000000       -0.384131         3
         5         4         3        25     9      180.000000        0.250744         4
         5         7         8         9     9        0.000000       -1.714031         1
         5         7         8         9     9      180.000000        1.875394         2
         5         7         8         9     9        0.000000        0.321365         3
         5         7         8         9     9      180.000000       -0.073705         4
         5         7         8        24     9        0.000000       -0.418978         1
         5         7         8        24     9      180.000000        1.868920         2
         5         7         8        24     9        0.000000       -0.411079         3
         5         7         8        24     9      180.000000        0.466012         4
         6         5         4        30     9        0.000000       -2.070061         1
         6         5         4        30     9      180.000000        5.396445         2
         6         5         4        30     9        0.000000        0.007259         3
         6         5         4        30     9      180.000000        0.005756         4
         6         5         7         8     9        0.000000       -2.527559         1
         6         5         7         8     9      180.000000        4.982852         2
         6         5         7         8     9        0.000000       -0.700781         3
         6         5         7         8     9      180.000000       -0.190937         4
         6         5         7        31     9        0.000000       -2.197597         1
         6         5         7        31     9      180.000000        5.206706         2
         6         5         7        31     9        0.000000       -0.156254         3
         6         5         7        31     9      180.000000       -0.061739         4
         7         5         4        30     9        0.000000        4.935768         1
         7         5         4        30     9      180.000000        6.793674         2
         7         5         4        30     9        0.000000       -0.414756         3
         7         5         4        30     9      180.000000        0.171770         4
         7         8         9        10     9        0.000000        0.135573         1
         7         8         9        10     9      180.000000       15.700744         2
         7         8         9        10     9        0.000000        0.281101         3
         7         8         9        10     9      180.000000       -0.360056         4
         7         8         9        21     9        0.000000        0.234046         1
         7         8         9        21     9      180.000000       12.396332         2
         7         8         9        21     9        0.000000       -0.098079         3
         7         8         9        21     9      180.000000       -0.323170         4
         7         8        24        23     9        0.000000        0.334774         1
         7         8        24        23     9      180.000000       18.629020         2
         7         8        24        23     9        0.000000        0.316336         3
         7         8        24        23     9      180.000000       -0.464756         4
         7         8        24        47     9        0.000000        0.246514         1
         7         8        24        47     9      180.000000       14.352632         2
         7         8        24        47     9        0.000000       -0.128549         3
         7         8        24        47     9      180.000000        0.162568         4
         8         9        10        11     9        0.000000        3.044136         1
         8         9        10        11     9      180.000000        3.433019         2
         8         9        10        11     9        0.000000       -0.041465         3
         8         9        10        11     9      180.000000       -0.210307         4
         8         9        21        22     9        0.000000        0.153022         1
         8         9        21        22     9      180.000000       23.194028         2
         8         9        21        22     9        0.000000       -0.202035         3
         8         9        21        22     9      180.000000       -0.076951         4
         8        24        23        22     9        0.000000        0.066168         1
         8        24        23        22     9      180.000000       18.396385         2
         8        24        23        22     9        0.000000       -2.102023         3
         8        24        23        22     9      180.000000       -0.535985         4
         8        24        23        46     9        0.000000        0.126273         1
         8        24        23        46     9      180.000000       15.018723         2
         8        24        23        46     9        0.000000       -0.647982         3
         8        24        23        46     9      180.000000       -0.080099         4
         9         8         7        31     9        0.000000        1.829921         1
         9         8         7        31     9      180.000000        1.552929         2
         9         8         7        31     9        0.000000        0.507373         3
         9         8         7        31     9      180.000000       -0.389573         4
         9         8        24        23     9        0.000000        0.032265         1
         9         8        24        23     9      180.000000       17.762490         2
         9         8        24        23     9        0.000000       -1.200441         3
         9         8        24        23     9      180.000000       -0.505589         4
         9         8        24        47     9        0.000000        0.124033         1
         9         8        24        47     9      180.000000       13.604566         2
         9         8        24        47     9        0.000000       -0.394720         3
         9         8        24        47     9      180.000000        0.035208         4
         9        10        11        12     9        0.000000       -0.062335         1
         9        10        11        12     9      180.000000        2.731475         2
         9        10        11        12     9        0.000000        0.252334         3
         9        10        11        12     9      180.000000        0.023681         4
         9        10        11        20     9        0.000000        0.018105         1
         9        10        11        20     9      180.000000        3.266155         2
         9        10        11        20     9        0.000000       -1.116922         3
         9        10        11        20     9      180.000000        0.463487         4
         9        21        22        23     9        0.000000        0.073192         1
         9        21        22        23     9      180.000000       22.238220         2
         9        21        22        23     9        0.000000       -1.107263         3
         9        21        22        23     9      180.000000       -0.348060         4
         9        21        22        45     9        0.000000        1.067232         1
         9        21        22        45     9      180.000000       19.818804         2
         9        21        22        45     9        0.000000        0.282233         3
         9        21        22        45     9      180.000000       -0.593203         4
        10         9         8        24     9        0.000000        0.396489         1
        10         9         8        24     9      180.000000       12.751311         2
        10         9         8        24     9        0.000000        0.237587         3
        10         9         8        24     9      180.000000       -0.055174         4
        10         9        21        22     9        0.000000        0.892029         1
        10         9        21        22     9      180.000000       29.800163         2
        10         9        21        22     9        0.000000        1.267221         3
        10         9        21        22     9      180.000000       -0.713333         4
        10        11        12        13     9        0.000000       -0.080874         1
        10        11        12        13     9      180.000000       15.639035         2
        10        11        12        13     9        0.000000        0.141131         3
        10        11        12        13     9      180.000000       -0.458068         4
        10        11        12        17     9        0.000000        0.557040         1
        10        11        12        17     9      180.000000       17.113682         2
        10        11        12        17     9        0.000000        0.396198         3
        10        11        12        17     9      180.000000       -0.414864         4
        10        11        20        19     9        0.000000        0.683589         1
        10        11        20        19     9      180.000000       19.785584         2
        10        11        20        19     9        0.000000        0.782651         3
        10        11        20        19     9      180.000000       -0.456757         4
        10        11        20        44     9        0.000000        0.175958         1
        10        11        20        44     9      180.000000       14.909059         2
        10        11        20        44     9        0.000000        0.214095         3
        10        11        20        44     9      180.000000        0.230273         4
        11        10         9        21     9        0.000000       -3.201006         1
        11        10         9        21     9      180.000000        4.917193         2
        11        10         9        21     9        0.000000       -0.451392         3
        11        10         9        21     9      180.000000       -0.108911         4
        11        12        13        14     9        0.000000        0.403573         1
        11        12        13        14     9      180.000000        0.050783         2
        11        12        13        14     9        0.000000        0.432833         3
        11        12        13        14     9      180.000000        0.162500         4
        11        12        13        15     9        0.000000        0.403573         1
        11        12        13        15     9      180.000000        0.050783         2
        11        12        13        15     9        0.000000        0.432833         3
        11        12        13        15     9      180.000000        0.162500         4
        11        12        13        16     9        0.000000        0.403573         1
        11        12        13        16     9      180.000000        0.050783         2
        11        12        13        16     9        0.000000        0.432833         3
        11        12        13        16     9      180.000000        0.162500         4
        11        12        17        18     9        0.000000       -0.179931         1
        11        12        17        18     9      180.000000       19.709896         2
        11        12        17        18     9        0.000000       -1.412088         3
        11        12        17        18     9      180.000000       -0.578603         4
        11        12        17        41     9        0.000000        0.059419         1
        11        12        17        41     9      180.000000       15.339234         2
        11        12        17        41     9        0.000000       -0.427821         3
        11        12        17        41     9      180.000000       -0.054551         4
        11        20        19        18     9        0.000000       -0.119128         1
        11        20        19        18     9      180.000000       19.051182         2
        11        20        19        18     9        0.000000       -1.610472         3
        11        20        19        18     9      180.000000       -0.561313         4
        11        20        19        43     9        0.000000        0.121161         1
        11        20        19        43     9      180.000000       14.648116         2
        11        20        19        43     9        0.000000       -0.492555         3
        11        20        19        43     9      180.000000       -0.054852         4
        12        11        20        19     9        0.000000        0.018624         1
        12        11        20        19     9      180.000000       17.752642         2
        12        11        20        19     9        0.000000       -1.105984         3
        12        11        20        19     9      180.000000       -0.366333         4
        12        11        20        44     9        0.000000        0.099280         1
        12        11        20        44     9      180.000000       13.242085         2
        12        11        20        44     9        0.000000       -0.366025         3
        12        11        20        44     9      180.000000        0.101855         4
        12        13        14        32     9        0.000000       -0.016331         1
        12        13        14        32     9      180.000000        0.024476         2
        12        13        14        32     9        0.000000        0.521594         3
        12        13        14        32     9      180.000000       -0.007648         4
        12        13        14        33     9        0.000000       -0.016331         1
        12        13        14        33     9      180.000000        0.024476         2
        12        13        14        33     9        0.000000        0.521594         3
        12        13        14        33     9      180.000000       -0.007648         4
        12        13        14        34     9        0.000000       -0.016331         1
        12        13        14        34     9      180.000000        0.024476         2
        12        13        14        34     9        0.000000        0.521594         3
        12        13        14        34     9      180.000000       -0.007648         4
        12        13        15        35     9        0.000000       -0.016331         1
        12        13        15        35     9      180.000000        0.024476         2
        12        13        15        35     9        0.000000        0.521594         3
        12        13        15        35     9      180.000000       -0.007648         4
        12        13        15        36     9        0.000000       -0.016331         1
        12        13        15        36     9      180.000000        0.024476         2
        12        13        15        36     9        0.000000        0.521594         3
        12        13        15        36     9      180.000000       -0.007648         4
        12        13        15        37     9        0.000000       -0.016331         1
        12        13        15        37     9      180.000000        0.024476         2
        12        13        15        37     9        0.000000        0.521594         3
        12        13        15        37     9      180.000000       -0.007648         4
        12        13        16        38     9        0.000000       -0.016331         1
        12        13        16        38     9      180.000000        0.024476         2
        12        13        16        38     9        0.000000        0.521594         3
        12        13        16        38     9      180.000000       -0.007648         4
        12        13        16        39     9        0.000000       -0.016329         1
        12        13        16        39     9      180.000000        0.024477         2
        12        13        16        39     9        0.000000        0.521593         3
        12        13        16        39     9      180.000000       -0.007648         4
        12        13        16        40     9        0.000000       -0.016329         1
        12        13        16        40     9      180.000000        0.024477         2
        12        13        16        40     9        0.000000        0.521593         3
        12        13        16        40     9      180.000000       -0.007648         4
        12        17        18        19     9        0.000000       -0.096785         1
        12        17        18        19     9      180.000000       18.862503         2
        12        17        18        19     9        0.000000       -1.878121         3
        12        17        18        19     9      180.000000       -0.464420         4
        12        17        18        42     9        0.000000        0.055879         1
        12        17        18        42     9      180.000000       14.685250         2
        12        17        18        42     9        0.000000       -0.818672         3
        12        17        18        42     9      180.000000       -0.081752         4
        13        12        11        20     9        0.000000        0.067549         1
        13        12        11        20     9      180.000000       11.797806         2
        13        12        11        20     9        0.000000        0.088336         3
        13        12        11        20     9      180.000000       -0.150688         4
        13        12        17        18     9        0.000000        0.188303         1
        13        12        17        18     9      180.000000       15.947137         2
        13        12        17        18     9        0.000000        0.063520         3
        13        12        17        18     9      180.000000       -0.396202         4
        13        12        17        41     9        0.000000        0.040287         1
        13        12        17        41     9      180.000000       12.851156         2
        13        12        17        41     9        0.000000       -0.377107         3
        13        12        17        41     9      180.000000        0.088721         4
        14        13        12        17     9        0.000000       -0.795417         1
        14        13        12        17     9      180.000000        0.190793         2
        14        13        12        17     9        0.000000       -0.761361         3
        14        13        12        17     9      180.000000        0.487841         4
        14        13        15        35     9        0.000000       -0.067317         1
        14        13        15        35     9      180.000000        0.044503         2
        14        13        15        35     9        0.000000        0.500654         3
        14        13        15        35     9      180.000000        0.037547         4
        14        13        15        36     9        0.000000       -0.067317         1
        14        13        15        36     9      180.000000        0.044503         2
        14        13        15        36     9        0.000000        0.500654         3
        14        13        15        36     9      180.000000        0.037547         4
        14        13        15        37     9        0.000000       -0.067317         1
        14        13        15        37     9      180.000000        0.044503         2
        14        13        15        37     9        0.000000        0.500654         3
        14        13        15        37     9      180.000000        0.037547         4
        14        13        16        38     9        0.000000       -0.067317         1
        14        13        16        38     9      180.000000        0.044503         2
        14        13        16        38     9        0.000000        0.500654         3
        14        13        16        38     9      180.000000        0.037547         4
        14        13        16        39     9        0.000000       -0.067318         1
        14        13        16        39     9      180.000000        0.044503         2
        14        13        16        39     9        0.000000        0.500654         3
        14        13        16        39     9      180.000000        0.037547         4
        14        13        16        40     9        0.000000       -0.067318         1
        14        13        16        40     9      180.000000        0.044503         2
        14        13        16        40     9        0.000000        0.500654         3
        14        13        16        40     9      180.000000        0.037547         4
        15        13        12        17     9        0.000000       -0.795417         1
        15        13        12        17     9      180.000000        0.190793         2
        15        13        12        17     9        0.000000       -0.761361         3
        15        13        12        17     9      180.000000        0.487841         4
        15        13        14        32     9        0.000000       -0.067317         1
        15        13        14        32     9      180.000000        0.044503         2
        15        13        14        32     9        0.000000        0.500654         3
        15        13        14        32     9      180.000000        0.037547         4
        15        13        14        33     9        0.000000       -0.067317         1
        15        13        14        33     9      180.000000        0.044503         2
        15        13        14        33     9        0.000000        0.500654         3
        15        13        14        33     9      180.000000        0.037547         4
        15        13        14        34     9        0.000000       -0.067317         1
        15        13        14        34     9      180.000000        0.044503         2
        15        13        14        34     9        0.000000        0.500654         3
        15        13        14        34     9      180.000000        0.037547         4
        15        13        16        38     9        0.000000       -0.067317         1
        15        13        16        38     9      180.000000        0.044503         2
        15        13        16        38     9        0.000000        0.500654         3
        15        13        16        38     9      180.000000        0.037547         4
        15        13        16        39     9        0.000000       -0.067318         1
        15        13        16        39     9      180.000000        0.044503         2
        15        13        16        39     9        0.000000        0.500654         3
        15        13        16        39     9      180.000000        0.037547         4
        15        13        16        40     9        0.000000       -0.067318         1
        15        13        16        40     9      180.000000        0.044503         2
        15        13        16        40     9        0.000000        0.500654         3
        15        13        16        40     9      180.000000        0.037547         4
        16        13        12        17     9        0.000000       -0.795417         1
        16        13        12        17     9      180.000000        0.190793         2
        16        13        12        17     9        0.000000       -0.761361         3
        16        13        12        17     9      180.000000        0.487841         4
        16        13        14        32     9        0.000000       -0.067317         1
        16        13        14        32     9      180.000000        0.044503         2
        16        13        14        32     9        0.000000        0.500654         3
        16        13        14        32     9      180.000000        0.037547         4
        16        13        14        33     9        0.000000       -0.067317         1
        16        13        14        33     9      180.000000        0.044503         2
        16        13        14        33     9        0.000000        0.500654         3
        16        13        14        33     9      180.000000        0.037547         4
        16        13        14        34     9        0.000000       -0.067317         1
        16        13        14        34     9      180.000000        0.044503         2
        16        13        14        34     9        0.000000        0.500654         3
        16        13        14        34     9      180.000000        0.037547         4
        16        13        15        35     9        0.000000       -0.067317         1
        16        13        15        35     9      180.000000        0.044503         2
        16        13        15        35     9        0.000000        0.500654         3
        16        13        15        35     9      180.000000        0.037547         4
        16        13        15        36     9        0.000000       -0.067317         1
        16        13        15        36     9      180.000000        0.044503         2
        16        13        15        36     9        0.000000        0.500654         3
        16        13        15        36     9      180.000000        0.037547         4
        16        13        15        37     9        0.000000       -0.067317         1
        16        13        15        37     9      180.000000        0.044503         2
        16        13        15        37     9        0.000000        0.500654         3
        16        13        15        37     9      180.000000        0.037547         4
        17        12        11        20     9        0.000000       -0.215023         1
        17        12        11        20     9      180.000000       16.811099         2
        17        12        11        20     9        0.000000       -1.033032         3
        17        12        11        20     9      180.000000       -0.428824         4
        17        18        19        20     9        0.000000        0.000675         1
        17        18        19        20     9      180.000000       18.895201         2
        17        18        19        20     9        0.000000       -1.852045         3
        17        18        19        20     9      180.000000       -0.377785         4
        17        18        19        43     9        0.000000        0.021229         1
        17        18        19        43     9      180.000000       14.228250         2
        17        18        19        43     9        0.000000       -0.859077         3
        17        18        19        43     9      180.000000        0.104060         4
        18        19        20        44     9        0.000000        0.113055         1
        18        19        20        44     9      180.000000       14.217237         2
        18        19        20        44     9        0.000000       -0.666601         3
        18        19        20        44     9      180.000000        0.116883         4
        19        18        17        41     9        0.000000        0.050644         1
        19        18        17        41     9      180.000000       14.611363         2
        19        18        17        41     9        0.000000       -0.847508         3
        19        18        17        41     9      180.000000        0.165081         4
        20        19        18        42     9        0.000000        0.105070         1
        20        19        18        42     9      180.000000       14.938427         2
        20        19        18        42     9        0.000000       -0.842905         3
        20        19        18        42     9      180.000000        0.051416         4
        21         9         8        24     9        0.000000        0.070432         1
        21         9         8        24     9      180.000000       10.895454         2
        21         9         8        24     9        0.000000       -0.483942         3
        21         9         8        24     9      180.000000       -0.111193         4
        21        22        23        24     9        0.000000        0.100605         1
        21        22        23        24     9      180.000000       20.168024         2
        21        22        23        24     9        0.000000       -1.195336         3
        21        22        23        24     9      180.000000       -0.567771         4
        21        22        23        46     9        0.000000        0.174483         1
        21        22        23        46     9      180.000000       15.688093         2
        21        22        23        46     9        0.000000       -0.259874         3
        21        22        23        46     9      180.000000       -0.156477         4
        22        23        24        47     9        0.000000        0.167050         1
        22        23        24        47     9      180.000000       14.479788         2
        22        23        24        47     9        0.000000       -0.751910         3
        22        23        24        47     9      180.000000        0.148426         4
        24         8         7        31     9        0.000000        0.403978         1
        24         8         7        31     9      180.000000        2.149404         2
        24         8         7        31     9        0.000000        0.432386         3
        24         8         7        31     9      180.000000       -0.165766         4
        24        23        22        45     9        0.000000        0.082490         1
        24        23        22        45     9      180.000000       14.362334         2
        24        23        22        45     9        0.000000       -0.749614         3
        24        23        22        45     9      180.000000        0.097546         4
        25         3         2        29     9        0.000000       -0.025937         1
        25         3         2        29     9      180.000000       13.978819         2
        25         3         2        29     9        0.000000       -1.033595         3
        25         3         2        29     9      180.000000       -0.049359         4
        25         3         4        30     9        0.000000       -0.073580         1
        25         3         4        30     9      180.000000        1.819212         2
        25         3         4        30     9        0.000000       -0.146560         3
        25         3         4        30     9      180.000000       -0.432516         4
        25        26        27        28     9        0.000000        0.593154         1
        25        26        27        28     9      180.000000       22.506046         2
        25        26        27        28     9        0.000000        0.499229         3
        25        26        27        28     9      180.000000       -0.620614         4
        25        26        27        29     9        0.000000       -0.015295         1
        25        26        27        29     9      180.000000       17.109327         2
        25        26        27        29     9        0.000000       -1.218488         3
        25        26        27        29     9      180.000000       -0.336680         4
        26        27        29        50     9        0.000000        0.178904         1
        26        27        29        50     9      180.000000       12.111718         2
        26        27        29        50     9        0.000000       -0.475121         3
        26        27        29        50     9      180.000000        0.184205         4
        27        26        25        48     9        0.000000        0.161270         1
        27        26        25        48     9      180.000000       14.750787         2
        27        26        25        48     9        0.000000       -0.605995         3
        27        26        25        48     9      180.000000        0.092699         4
        28        27        26        49     9        0.000000        0.231349         1
        28        27        26        49     9      180.000000       15.680368         2
        28        27        26        49     9        0.000000        0.302158         3
        28        27        26        49     9      180.000000        0.167355         4
        28        27        29        50     9        0.000000        0.276795         1
        28        27        29        50     9      180.000000       14.674730         2
        28        27        29        50     9        0.000000        0.279358         3
        28        27        29        50     9      180.000000        0.262107         4
        29        27        26        49     9        0.000000        0.110557         1
        29        27        26        49     9      180.000000       13.020768         2
        29        27        26        49     9        0.000000       -0.535366         3
        29        27        26        49     9      180.000000        0.135349         4
        41        17        18        42     9        0.000000       -0.321846         1
        41        17        18        42     9      180.000000       11.043441         2
        41        17        18        42     9        0.000000       -0.706909         3
        41        17        18        42     9      180.000000        0.279757         4
        42        18        19        43     9        0.000000       -0.065772         1
        42        18        19        43     9      180.000000       11.963653         2
        42        18        19        43     9        0.000000       -0.601318         3
        42        18        19        43     9      180.000000        0.209103         4
        43        19        20        44     9        0.000000       -0.071147         1
        43        19        20        44     9      180.000000       11.882004         2
        43        19        20        44     9        0.000000       -0.654703         3
        43        19        20        44     9      180.000000        0.218031         4
        45        22        23        46     9        0.000000       -0.153197         1
        45        22        23        46     9      180.000000       12.054830         2
        45        22        23        46     9        0.000000       -0.693173         3
        45        22        23        46     9      180.000000        0.290661         4
        46        23        24        47     9        0.000000       -0.114528         1
        46        23        24        47     9      180.000000       11.840302         2
        46        23        24        47     9        0.000000       -0.671560         3
        46        23        24        47     9      180.000000        0.313357         4
        48        25        26        49     9        0.000000       -0.178550         1
        48        25        26        49     9      180.000000       12.068912         2
        48        25        26        49     9        0.000000       -0.803074         3
        48        25        26        49     9      180.000000        0.249230         4

[ dihedrals ] ; impropers
;       ai        aj        ak        al funct           phase               k        pn
         5         4         6         7     4      180.000000       20.368551         2
         5         6         7         4     4      180.000000       20.368551         2
         5         7         4         6     4      180.000000       20.368551         2
        17        12        18        41     4      180.000000        0.467714         2
        17        18        41        12     4      180.000000        0.467714         2
        17        41        12        18     4      180.000000        0.467714         2
        18        17        19        42     4      180.000000        0.654727         2
        18        19        42        17     4      180.000000        0.654727         2
        18        42        17        19     4      180.000000        0.654727         2
        19        18        20        43     4      180.000000        1.021720         2
        19        20        43        18     4      180.000000        1.021720         2
        19        43        18        20     4      180.000000        1.021720         2
        22        21        23        45     4      180.000000        0.546116         2
        22        23        45        21     4      180.000000        0.546116         2
        22        45        21        23     4      180.000000        0.546116         2
        27        26        28        29     4      180.000000        0.530767         2
        27        28        29        26     4      180.000000        0.530767         2
        27        29        26        28     4      180.000000        0.530767         2

[ pairs ]
;       ai        aj funct
         1         4     1
         1        25     1
         1        27     1
         1        50     1
         2         5     1
         2        26     1
         2        28     1
         2        30     1
         2        48     1
         3         6     1
         3         7     1
         3        27     1
         3        49     1
         3        50     1
         4         8     1
         4        26     1
         4        29     1
         4        31     1
         4        48     1
         5         9     1
         5        24     1
         5        25     1
         6         8     1
         6        30     1
         6        31     1
         7        10     1
         7        21     1
         7        23     1
         7        30     1
         7        47     1
         8        11     1
         8        22     1
         8        46     1
         9        12     1
         9        20     1
         9        23     1
         9        31     1
         9        45     1
         9        47     1
        10        13     1
        10        17     1
        10        19     1
        10        22     1
        10        24     1
        10        44     1
        11        14     1
        11        15     1
        11        16     1
        11        18     1
        11        21     1
        11        41     1
        11        43     1
        12        19     1
        12        32     1
        12        33     1
        12        34     1
        12        35     1
        12        36     1
        12        37     1
        12        38     1
        12        39     1
        12        40     1
        12        42     1
        12        44     1
        13        18     1
        13        20     1
        13        41     1
        14        17     1
        14        35     1
        14        36     1
        14        37     1
        14        38     1
        14        39     1
        14        40     1
        15        17     1
        15        32     1
        15        33     1
        15        34     1
        15        38     1
        15        39     1
        15        40     1
        16        17     1
        16        32     1
        16        33     1
        16        34     1
        16        35     1
        16        36     1
        16        37     1
        17        20     1
        17        43     1
        18        44     1
        19        41     1
        20        42     1
        21        24     1
        21        46     1
        22        47     1
        24        31     1
        24        45     1
        25        28     1
        25        29     1
        25        30     1
        26        50     1
        27        48     1
        28        49     1
        28        50     1
        29        49     1
        41        42     1
        42        43     1
        43        44     1
        45        46     1
        46        47     1
        48        49     1
