; ITP file created by ByteFF-ML, 2026-03-15 01:42:16.507626

[ atomtypes ]
;name           bonded.type        at.num        mass        charge   ptype           sigma         epsilon
 f0bf                                   9      0.0000       0.00000       A     3.03340e-01     3.48471e-01
 c1bf                                   6      0.0000       0.00000       A     3.31429e-01     4.14140e-01
 c2bf                                   6      0.0000       0.00000       A     3.31384e-01     4.12247e-01
 n3bf                                   7      0.0000       0.00000       A     3.26977e-01     4.92628e-01
 c4bf                                   6      0.0000       0.00000       A     3.31228e-01     4.15270e-01
 o5bf                                   8      0.0000       0.00000       A     3.04781e-01     6.14498e-01
 n6bf                                   7      0.0000       0.00000       A     3.26853e-01     4.96156e-01
 c7bf                                   6      0.0000       0.00000       A     3.31219e-01     4.13182e-01
 c8bf                                   6      0.0000       0.00000       A     3.31208e-01     4.10333e-01
 o9bf                                   8      0.0000       0.00000       A     3.15527e-01     3.03110e-01
 c10bf                                  6      0.0000       0.00000       A     3.31302e-01     4.13760e-01
 c11bf                                  6      0.0000       0.00000       A     3.31444e-01     4.11385e-01
 c12bf                                  6      0.0000       0.00000       A     3.39804e-01     4.52763e-01
 c13bf                                  6      0.0000       0.00000       A     3.39812e-01     4.50401e-01
 c14bf                                  6      0.0000       0.00000       A     3.31557e-01     4.12574e-01
 c15bf                                  6      0.0000       0.00000       A     3.31513e-01     4.12973e-01
 c16bf                                  6      0.0000       0.00000       A     3.31526e-01     4.13154e-01
 c17bf                                  6      0.0000       0.00000       A     3.31475e-01     4.13460e-01
 n18bf                                  7      0.0000       0.00000       A     3.38247e-01     3.91955e-01
 c19bf                                  6      0.0000       0.00000       A     3.31514e-01     4.12560e-01
 c20bf                                  6      0.0000       0.00000       A     3.31481e-01     4.12981e-01
 c21bf                                  6      0.0000       0.00000       A     3.31584e-01     4.13224e-01
 c22bf                                  6      0.0000       0.00000       A     3.31630e-01     4.12592e-01
 c23bf                                  6      0.0000       0.00000       A     3.31461e-01     4.12675e-01
 c24bf                                  6      0.0000       0.00000       A     3.31486e-01     4.13545e-01
 f25bf                                  9      0.0000       0.00000       A     3.03414e-01     3.47611e-01
 c26bf                                  6      0.0000       0.00000       A     3.31555e-01     4.12916e-01
 h27bf                                  1      0.0000       0.00000       A     1.10655e-01     4.19367e-02
 h28bf                                  1      0.0000       0.00000       A     1.10974e-01     4.12520e-02
 h29bf                                  1      0.0000       0.00000       A     2.59932e-01     8.75093e-02
 h30bf                                  1      0.0000       0.00000       A     2.59932e-01     8.75093e-02
 h31bf                                  1      0.0000       0.00000       A     2.59988e-01     8.72651e-02
 h32bf                                  1      0.0000       0.00000       A     2.59988e-01     8.72651e-02
 h33bf                                  1      0.0000       0.00000       A     2.59988e-01     8.72651e-02
 h34bf                                  1      0.0000       0.00000       A     2.62450e-01     6.76271e-02
 h35bf                                  1      0.0000       0.00000       A     2.62458e-01     6.72983e-02
 h36bf                                  1      0.0000       0.00000       A     2.62489e-01     6.72695e-02
 h37bf                                  1      0.0000       0.00000       A     2.62444e-01     6.72089e-02
 h38bf                                  1      0.0000       0.00000       A     2.53538e-01     6.71594e-02
 h39bf                                  1      0.0000       0.00000       A     2.62506e-01     6.74387e-02
 h40bf                                  1      0.0000       0.00000       A     2.62621e-01     6.73062e-02
 h41bf                                  1      0.0000       0.00000       A     2.62616e-01     6.72520e-02
 h42bf                                  1      0.0000       0.00000       A     2.62554e-01     6.71881e-02
 h43bf                                  1      0.0000       0.00000       A     2.62508e-01     6.71562e-02

[ moleculetype ]
;name             nrexcl
 11e                   3

[ atoms ]
;       nr            type      resi   res      atom      cgnr      charge          mass ; qtot
         1            f0bf         1   UNL        f0         1    -0.17864       18.9980 ; qtot   -0.179
         2            c1bf         1   UNL        c1         2     0.14722       12.0110 ; qtot   -0.031
         3            c2bf         1   UNL        c2         3    -0.06639       12.0110 ; qtot   -0.098
         4            n3bf         1   UNL        n3         4    -0.15983       14.0070 ; qtot   -0.258
         5            c4bf         1   UNL        c4         5     0.66117       12.0110 ; qtot    0.404
         6            o5bf         1   UNL        o5         6    -0.59150       15.9990 ; qtot   -0.188
         7            n6bf         1   UNL        n6         7    -0.14979       14.0070 ; qtot   -0.338
         8            c7bf         1   UNL        c7         8    -0.06851       12.0110 ; qtot   -0.406
         9            c8bf         1   UNL        c8         9     0.51964       12.0110 ; qtot    0.113
        10            o9bf         1   UNL        o9        10    -0.38201       15.9990 ; qtot   -0.269
        11           c10bf         1   UNL       c10        11     0.10777       12.0110 ; qtot   -0.161
        12           c11bf         1   UNL       c11        12    -0.07858       12.0110 ; qtot   -0.239
        13           c12bf         1   UNL       c12        13    -0.03048       12.0110 ; qtot   -0.270
        14           c13bf         1   UNL       c13        14    -0.08962       12.0110 ; qtot   -0.360
        15           c14bf         1   UNL       c14        15    -0.09390       12.0110 ; qtot   -0.453
        16           c15bf         1   UNL       c15        16    -0.12383       12.0110 ; qtot   -0.577
        17           c16bf         1   UNL       c16        17    -0.10131       12.0110 ; qtot   -0.679
        18           c17bf         1   UNL       c17        18    -0.11566       12.0110 ; qtot   -0.794
        19           n18bf         1   UNL       n18        19    -0.70674       14.0070 ; qtot   -1.501
        20           c19bf         1   UNL       c19        20     0.34178       12.0110 ; qtot   -1.159
        21           c20bf         1   UNL       c20        21    -0.15962       12.0110 ; qtot   -1.319
        22           c21bf         1   UNL       c21        22    -0.08259       12.0110 ; qtot   -1.401
        23           c22bf         1   UNL       c22        23    -0.09351       12.0110 ; qtot   -1.495
        24           c23bf         1   UNL       c23        24    -0.13392       12.0110 ; qtot   -1.629
        25           c24bf         1   UNL       c24        25     0.17293       12.0110 ; qtot   -1.456
        26           f25bf         1   UNL       f25        26    -0.17328       18.9980 ; qtot   -1.629
        27           c26bf         1   UNL       c26        27    -0.16279       12.0110 ; qtot   -1.792
        28           h27bf         1   UNL       h27        28     0.16511        1.0080 ; qtot   -1.627
        29           h28bf         1   UNL       h28        29     0.17579        1.0080 ; qtot   -1.451
        30           h29bf         1   UNL       h29        30     0.04943        1.0080 ; qtot   -1.402
        31           h30bf         1   UNL       h30        31     0.04943        1.0080 ; qtot   -1.352
        32           h31bf         1   UNL       h31        32     0.03696        1.0080 ; qtot   -1.315
        33           h32bf         1   UNL       h32        33     0.03696        1.0080 ; qtot   -1.278
        34           h33bf         1   UNL       h33        34     0.03696        1.0080 ; qtot   -1.241
        35           h34bf         1   UNL       h34        35     0.11710        1.0080 ; qtot   -1.124
        36           h35bf         1   UNL       h35        36     0.11694        1.0080 ; qtot   -1.007
        37           h36bf         1   UNL       h36        37     0.11856        1.0080 ; qtot   -0.889
        38           h37bf         1   UNL       h37        38     0.13086        1.0080 ; qtot   -0.758
        39           h38bf         1   UNL       h38        39     0.02910        1.0080 ; qtot   -0.729
        40           h39bf         1   UNL       h39        40     0.12997        1.0080 ; qtot   -0.599
        41           h40bf         1   UNL       h40        41     0.15134        1.0080 ; qtot   -0.447
        42           h41bf         1   UNL       h41        42     0.15051        1.0080 ; qtot   -0.297
        43           h42bf         1   UNL       h42        43     0.14037        1.0080 ; qtot   -0.157
        44           h43bf         1   UNL       h43        44     0.15660        1.0080 ; qtot    0.000

[ bonds ]
;       ai        aj funct               r               k
         1         2     1        0.135888   285413.511035
         2         3     1        0.140308   266715.775830
         2        27     1        0.138764   323912.925146
         3         4     1        0.140773   255765.846387
         3        23     1        0.140394   286496.616455
         4         5     1        0.139043   236995.202734
         4        28     1        0.101162   417452.675391
         5         6     1        0.122634   597571.730273
         5         7     1        0.138736   242389.099902
         7         8     1        0.140423   262254.059766
         7        29     1        0.101419   408858.186768
         8         9     1        0.141493   241216.997656
         8        22     1        0.139669   302796.953369
         9        10     1        0.137711   230075.590967
         9        19     1        0.131662   340536.893848
        10        11     1        0.139943   216270.638232
        11        12     1        0.140201   274743.698145
        11        18     1        0.139332   304457.401758
        12        13     1        0.151196   198131.935889
        12        15     1        0.140143   295902.393506
        13        14     1        0.153896   184421.981201
        13        30     1        0.109421   297265.487793
        13        31     1        0.109421   297265.487793
        14        32     1        0.109414   299821.956738
        14        33     1        0.109414   299821.956738
        14        34     1        0.109414   299821.956738
        15        16     1        0.139878   309691.436621
        15        35     1        0.108682   315918.813965
        16        17     1        0.139760   308550.745020
        16        36     1        0.108595   320338.674707
        17        18     1        0.139764   312663.854004
        17        37     1        0.108603   320355.937793
        18        38     1        0.108502   322492.576660
        19        20     1        0.134429   311714.895020
        20        21     1        0.139139   305686.170850
        20        39     1        0.108728   317581.203174
        21        22     1        0.140003   313082.713672
        21        40     1        0.108503   324361.739844
        22        41     1        0.108193   330892.395898
        23        24     1        0.139704   321843.040283
        23        42     1        0.108217   330973.527295
        24        25     1        0.139062   307879.425488
        24        43     1        0.108453   326108.554736
        25        26     1        0.135537   293055.414404
        25        27     1        0.139270   308111.634424
        27        44     1        0.108389   328686.628076

[ angles ]
;       ai        aj        ak funct           theta             cth
         1         2         3     1      118.070778      408.412341
         1         2        27     1      118.542099      555.436981
         2         3         4     1      117.896133      465.848779
         2         3        23     1      117.366394      485.137213
         2        27        25     1      117.403702      736.110753
         2        27        44     1      120.908669      429.970864
         3         2        27     1      123.285889      603.356473
         3         4         5     1      125.835678      474.200180
         3         4        28     1      114.951523      443.905763
         3        23        24     1      120.847473      745.602386
         3        23        42     1      118.967445      449.668977
         4         3        23     1      124.743919      612.000593
         4         5         6     1      124.329651      554.576253
         4         5         7     1      112.700821      550.207236
         5         4        28     1      116.933777      448.974623
         5         7         8     1      126.219688      451.027839
         5         7        29     1      117.654404      437.032322
         6         5         7     1      124.056229      550.029945
         7         8         9     1      117.570358      431.330364
         7         8        22     1      125.502136      569.232191
         8         7        29     1      114.048378      434.130349
         8         9        10     1      117.007767      363.593373
         8         9        19     1      124.240524      669.889964
         8        22        21     1      118.717087      830.537535
         8        22        41     1      119.480087      442.212908
         9         8        22     1      116.908203      645.538096
         9        10        11     1      119.000832      455.036559
         9        19        20     1      118.225052      718.638965
        10         9        19     1      119.300598      572.987615
        10        11        12     1      118.795204      418.253257
        10        11        18     1      118.615845      494.956072
        11        12        13     1      121.353600      454.434394
        11        12        15     1      116.995529      680.206254
        11        18        17     1      119.360756      682.607444
        11        18        38     1      119.402481      396.665749
        12        11        18     1      122.255295      648.402529
        12        13        14     1      112.752762      590.533333
        12        13        30     1      109.273743      490.874221
        12        13        31     1      109.273743      490.874221
        12        15        16     1      121.621071      706.124951
        12        15        35     1      118.694519      384.094724
        13        12        15     1      121.680199      488.411103
        13        14        32     1      110.867226      501.946377
        13        14        33     1      110.867226      501.946377
        13        14        34     1      110.867226      501.946441
        14        13        30     1      109.399803      491.544474
        14        13        31     1      109.399803      491.544474
        15        16        17     1      119.646469      699.347722
        15        16        36     1      120.091812      432.546122
        16        15        35     1      119.699974      425.944620
        16        17        18     1      119.833252      705.892500
        16        17        37     1      120.460533      420.485169
        17        16        36     1      120.335388      429.327999
        17        18        38     1      121.332787      423.303189
        18        17        37     1      119.757690      428.620877
        19        20        21     1      122.499290      661.638094
        19        20        39     1      116.190018      392.705071
        20        21        22     1      119.055466      724.682960
        20        21        40     1      120.600418      442.820723
        21        20        39     1      121.265182      408.189115
        21        22        41     1      121.786972      385.096928
        22        21        40     1      120.423485      439.039411
        23        24        25     1      119.095474      680.692672
        23        24        43     1      121.047348      426.517736
        24        23        42     1      120.405579      381.630202
        24        25        26     1      119.320351      579.892275
        24        25        27     1      122.138992      546.835189
        25        24        43     1      119.912819      446.276819
        25        27        44     1      121.557022      435.516311
        26        25        27     1      118.491798      581.824859
        30        13        31     1      106.651138      358.523395
        32        14        33     1      108.050781      364.638671
        32        14        34     1      108.050781      364.638703
        33        14        34     1      108.050781      364.638703

[ dihedrals ] ; propers for gromacs 4.5 or higher, use funct 9
;       ai        aj        ak        al funct           phase               k        pn
         1         2         3         4     9        0.000000        0.212026         1
         1         2         3         4     9      180.000000       19.970574         2
         1         2         3         4     9        0.000000        0.461763         3
         1         2         3         4     9      180.000000       -0.714402         4
         1         2         3        23     9        0.000000        0.569199         1
         1         2         3        23     9      180.000000       17.912070         2
         1         2         3        23     9        0.000000        0.479188         3
         1         2         3        23     9      180.000000       -0.148207         4
         1         2        27        25     9        0.000000        0.487932         1
         1         2        27        25     9      180.000000       22.982926         2
         1         2        27        25     9        0.000000        0.666141         3
         1         2        27        25     9      180.000000       -0.463496         4
         1         2        27        44     9        0.000000        0.215158         1
         1         2        27        44     9      180.000000       15.933714         2
         1         2        27        44     9        0.000000        0.239840         3
         1         2        27        44     9      180.000000        0.312645         4
         2         3         4         5     9        0.000000       -1.547959         1
         2         3         4         5     9      180.000000        1.879857         2
         2         3         4         5     9        0.000000        0.398422         3
         2         3         4         5     9      180.000000       -0.171109         4
         2         3         4        28     9        0.000000        0.029920         1
         2         3         4        28     9      180.000000        1.489283         2
         2         3         4        28     9        0.000000        0.129288         3
         2         3         4        28     9      180.000000       -0.671668         4
         2         3        23        24     9        0.000000        0.002129         1
         2         3        23        24     9      180.000000       17.123935         2
         2         3        23        24     9        0.000000       -1.175799         3
         2         3        23        24     9      180.000000       -0.355843         4
         2         3        23        42     9        0.000000        0.012013         1
         2         3        23        42     9      180.000000       13.149331         2
         2         3        23        42     9        0.000000       -0.527817         3
         2         3        23        42     9      180.000000        0.069930         4
         2        27        25        24     9        0.000000       -0.108744         1
         2        27        25        24     9      180.000000       17.017086         2
         2        27        25        24     9        0.000000       -1.295116         3
         2        27        25        24     9      180.000000       -0.342328         4
         2        27        25        26     9        0.000000        0.265172         1
         2        27        25        26     9      180.000000       22.425269         2
         2        27        25        26     9        0.000000        0.569511         3
         2        27        25        26     9      180.000000       -0.704767         4
         3         2        27        25     9        0.000000       -0.192976         1
         3         2        27        25     9      180.000000       17.087411         2
         3         2        27        25     9        0.000000       -1.467659         3
         3         2        27        25     9      180.000000       -0.236671         4
         3         2        27        44     9        0.000000        0.024704         1
         3         2        27        44     9      180.000000       12.253357         2
         3         2        27        44     9        0.000000       -0.542039         3
         3         2        27        44     9      180.000000        0.125134         4
         3         4         5         6     9        0.000000       -3.186776         1
         3         4         5         6     9      180.000000        4.970688         2
         3         4         5         6     9        0.000000       -0.710736         3
         3         4         5         6     9      180.000000       -0.192240         4
         3         4         5         7     9        0.000000        5.871383         1
         3         4         5         7     9      180.000000        6.264910         2
         3         4         5         7     9        0.000000       -0.005788         3
         3         4         5         7     9      180.000000       -0.113599         4
         3        23        24        25     9        0.000000       -0.061827         1
         3        23        24        25     9      180.000000       18.709352         2
         3        23        24        25     9        0.000000       -1.811185         3
         3        23        24        25     9      180.000000       -0.427110         4
         3        23        24        43     9        0.000000        0.084548         1
         3        23        24        43     9      180.000000       14.480533         2
         3        23        24        43     9        0.000000       -0.605870         3
         3        23        24        43     9      180.000000       -0.012354         4
         4         3         2        27     9        0.000000       -0.004763         1
         4         3         2        27     9      180.000000       13.879188         2
         4         3         2        27     9        0.000000       -0.164968         3
         4         3         2        27     9      180.000000       -0.068897         4
         4         3        23        24     9        0.000000        0.345412         1
         4         3        23        24     9      180.000000       17.284844         2
         4         3        23        24     9        0.000000        0.266650         3
         4         3        23        24     9      180.000000       -0.291108         4
         4         3        23        42     9        0.000000       -0.031862         1
         4         3        23        42     9      180.000000       13.743311         2
         4         3        23        42     9        0.000000       -0.104833         3
         4         3        23        42     9      180.000000        0.201800         4
         4         5         7         8     9        0.000000        5.652654         1
         4         5         7         8     9      180.000000        6.637303         2
         4         5         7         8     9        0.000000        0.065031         3
         4         5         7         8     9      180.000000       -0.204078         4
         4         5         7        29     9        0.000000        4.520114         1
         4         5         7        29     9      180.000000        6.955878         2
         4         5         7        29     9        0.000000       -0.244708         3
         4         5         7        29     9      180.000000        0.130109         4
         5         4         3        23     9        0.000000        0.037020         1
         5         4         3        23     9      180.000000        1.870517         2
         5         4         3        23     9        0.000000       -0.384131         3
         5         4         3        23     9      180.000000        0.250743         4
         5         7         8         9     9        0.000000       -1.714031         1
         5         7         8         9     9      180.000000        1.875394         2
         5         7         8         9     9        0.000000        0.321365         3
         5         7         8         9     9      180.000000       -0.073705         4
         5         7         8        22     9        0.000000       -0.418978         1
         5         7         8        22     9      180.000000        1.868920         2
         5         7         8        22     9        0.000000       -0.411079         3
         5         7         8        22     9      180.000000        0.466012         4
         6         5         4        28     9        0.000000       -2.070061         1
         6         5         4        28     9      180.000000        5.396445         2
         6         5         4        28     9        0.000000        0.007259         3
         6         5         4        28     9      180.000000        0.005756         4
         6         5         7         8     9        0.000000       -2.527559         1
         6         5         7         8     9      180.000000        4.982852         2
         6         5         7         8     9        0.000000       -0.700781         3
         6         5         7         8     9      180.000000       -0.190937         4
         6         5         7        29     9        0.000000       -2.197597         1
         6         5         7        29     9      180.000000        5.206706         2
         6         5         7        29     9        0.000000       -0.156254         3
         6         5         7        29     9      180.000000       -0.061739         4
         7         5         4        28     9        0.000000        4.935768         1
         7         5         4        28     9      180.000000        6.793674         2
         7         5         4        28     9        0.000000       -0.414756         3
         7         5         4        28     9      180.000000        0.171770         4
         7         8         9        10     9        0.000000        0.130870         1
         7         8         9        10     9      180.000000       15.745083         2
         7         8         9        10     9        0.000000        0.316038         3
         7         8         9        10     9      180.000000       -0.359423         4
         7         8         9        19     9        0.000000        0.234046         1
         7         8         9        19     9      180.000000       12.396332         2
         7         8         9        19     9        0.000000       -0.098079         3
         7         8         9        19     9      180.000000       -0.323170         4
         7         8        22        21     9        0.000000        0.334774         1
         7         8        22        21     9      180.000000       18.629020         2
         7         8        22        21     9        0.000000        0.316336         3
         7         8        22        21     9      180.000000       -0.464756         4
         7         8        22        41     9        0.000000        0.246514         1
         7         8        22        41     9      180.000000       14.352632         2
         7         8        22        41     9        0.000000       -0.128549         3
         7         8        22        41     9      180.000000        0.162568         4
         8         9        10        11     9        0.000000        3.641454         1
         8         9        10        11     9      180.000000        3.179772         2
         8         9        10        11     9        0.000000       -0.008610         3
         8         9        10        11     9      180.000000       -0.163676         4
         8         9        19        20     9        0.000000        0.153022         1
         8         9        19        20     9      180.000000       23.194028         2
         8         9        19        20     9        0.000000       -0.202035         3
         8         9        19        20     9      180.000000       -0.076951         4
         8        22        21        20     9        0.000000        0.066168         1
         8        22        21        20     9      180.000000       18.396385         2
         8        22        21        20     9        0.000000       -2.102023         3
         8        22        21        20     9      180.000000       -0.535985         4
         8        22        21        40     9        0.000000        0.126273         1
         8        22        21        40     9      180.000000       15.018723         2
         8        22        21        40     9        0.000000       -0.647982         3
         8        22        21        40     9      180.000000       -0.080099         4
         9         8         7        29     9        0.000000        1.829921         1
         9         8         7        29     9      180.000000        1.552929         2
         9         8         7        29     9        0.000000        0.507373         3
         9         8         7        29     9      180.000000       -0.389573         4
         9         8        22        21     9        0.000000        0.032265         1
         9         8        22        21     9      180.000000       17.762490         2
         9         8        22        21     9        0.000000       -1.200441         3
         9         8        22        21     9      180.000000       -0.505589         4
         9         8        22        41     9        0.000000        0.124033         1
         9         8        22        41     9      180.000000       13.604566         2
         9         8        22        41     9        0.000000       -0.394720         3
         9         8        22        41     9      180.000000        0.035208         4
         9        10        11        12     9        0.000000       -0.093919         1
         9        10        11        12     9      180.000000        2.756801         2
         9        10        11        12     9        0.000000        0.249137         3
         9        10        11        12     9      180.000000        0.082752         4
         9        10        11        18     9        0.000000       -0.015800         1
         9        10        11        18     9      180.000000        3.382852         2
         9        10        11        18     9        0.000000       -0.997529         3
         9        10        11        18     9      180.000000        0.440017         4
         9        19        20        21     9        0.000000        0.073192         1
         9        19        20        21     9      180.000000       22.238220         2
         9        19        20        21     9        0.000000       -1.107263         3
         9        19        20        21     9      180.000000       -0.348060         4
         9        19        20        39     9        0.000000        1.067232         1
         9        19        20        39     9      180.000000       19.818804         2
         9        19        20        39     9        0.000000        0.282233         3
         9        19        20        39     9      180.000000       -0.593203         4
        10         9         8        22     9        0.000000        0.365148         1
        10         9         8        22     9      180.000000       12.693868         2
        10         9         8        22     9        0.000000        0.252334         3
        10         9         8        22     9      180.000000       -0.057317         4
        10         9        19        20     9        0.000000        0.919159         1
        10         9        19        20     9      180.000000       29.780298         2
        10         9        19        20     9        0.000000        1.288830         3
        10         9        19        20     9      180.000000       -0.732144         4
        10        11        12        13     9        0.000000       -0.002491         1
        10        11        12        13     9      180.000000       17.051623         2
        10        11        12        13     9        0.000000        0.024645         3
        10        11        12        13     9      180.000000       -0.432174         4
        10        11        12        15     9        0.000000        0.555921         1
        10        11        12        15     9      180.000000       18.002471         2
        10        11        12        15     9        0.000000        0.536562         3
        10        11        12        15     9      180.000000       -0.334958         4
        10        11        18        17     9        0.000000        0.636777         1
        10        11        18        17     9      180.000000       19.598842         2
        10        11        18        17     9        0.000000        0.664959         3
        10        11        18        17     9      180.000000       -0.414927         4
        10        11        18        38     9        0.000000        0.210604         1
        10        11        18        38     9      180.000000       14.666004         2
        10        11        18        38     9        0.000000        0.200984         3
        10        11        18        38     9      180.000000        0.254348         4
        11        10         9        19     9        0.000000       -3.155502         1
        11        10         9        19     9      180.000000        4.773090         2
        11        10         9        19     9        0.000000       -0.522450         3
        11        10         9        19     9      180.000000       -0.119793         4
        11        12        13        14     9        0.000000       -0.567897         1
        11        12        13        14     9      180.000000        0.303904         2
        11        12        13        14     9        0.000000        0.329278         3
        11        12        13        14     9      180.000000        0.009698         4
        11        12        13        30     9        0.000000        0.062865         1
        11        12        13        30     9      180.000000       -0.090502         2
        11        12        13        30     9        0.000000        0.078978         3
        11        12        13        30     9      180.000000        0.068033         4
        11        12        13        31     9        0.000000        0.062865         1
        11        12        13        31     9      180.000000       -0.090502         2
        11        12        13        31     9        0.000000        0.078978         3
        11        12        13        31     9      180.000000        0.068033         4
        11        12        15        16     9        0.000000       -0.130761         1
        11        12        15        16     9      180.000000       19.250124         2
        11        12        15        16     9        0.000000       -1.456824         3
        11        12        15        16     9      180.000000       -0.461289         4
        11        12        15        35     9        0.000000        0.207570         1
        11        12        15        35     9      180.000000       14.925885         2
        11        12        15        35     9        0.000000       -0.289513         3
        11        12        15        35     9      180.000000       -0.040573         4
        11        18        17        16     9        0.000000       -0.121816         1
        11        18        17        16     9      180.000000       18.819659         2
        11        18        17        16     9        0.000000       -1.587941         3
        11        18        17        16     9      180.000000       -0.495907         4
        11        18        17        37     9        0.000000        0.101868         1
        11        18        17        37     9      180.000000       14.862387         2
        11        18        17        37     9        0.000000       -0.457809         3
        11        18        17        37     9      180.000000       -0.034255         4
        12        11        18        17     9        0.000000        0.008137         1
        12        11        18        17     9      180.000000       17.720617         2
        12        11        18        17     9        0.000000       -1.124811         3
        12        11        18        17     9      180.000000       -0.336076         4
        12        11        18        38     9        0.000000        0.086332         1
        12        11        18        38     9      180.000000       13.251757         2
        12        11        18        38     9        0.000000       -0.464749         3
        12        11        18        38     9      180.000000        0.134261         4
        12        13        14        32     9        0.000000        0.006467         1
        12        13        14        32     9      180.000000        0.010059         2
        12        13        14        32     9        0.000000        0.613729         3
        12        13        14        32     9      180.000000        0.004456         4
        12        13        14        33     9        0.000000        0.006467         1
        12        13        14        33     9      180.000000        0.010059         2
        12        13        14        33     9        0.000000        0.613729         3
        12        13        14        33     9      180.000000        0.004456         4
        12        13        14        34     9        0.000000        0.006467         1
        12        13        14        34     9      180.000000        0.010060         2
        12        13        14        34     9        0.000000        0.613730         3
        12        13        14        34     9      180.000000        0.004456         4
        12        15        16        17     9        0.000000        0.005116         1
        12        15        16        17     9      180.000000       19.008567         2
        12        15        16        17     9        0.000000       -1.773276         3
        12        15        16        17     9      180.000000       -0.486662         4
        12        15        16        36     9        0.000000        0.058870         1
        12        15        16        36     9      180.000000       14.931997         2
        12        15        16        36     9        0.000000       -0.733687         3
        12        15        16        36     9      180.000000       -0.026649         4
        13        12        11        18     9        0.000000        0.043812         1
        13        12        11        18     9      180.000000       12.885876         2
        13        12        11        18     9        0.000000       -0.141066         3
        13        12        11        18     9      180.000000       -0.031799         4
        13        12        15        16     9        0.000000        0.125119         1
        13        12        15        16     9      180.000000       16.816346         2
        13        12        15        16     9        0.000000       -0.132929         3
        13        12        15        16     9      180.000000       -0.367642         4
        13        12        15        35     9        0.000000        0.045387         1
        13        12        15        35     9      180.000000       13.219781         2
        13        12        15        35     9        0.000000       -0.403093         3
        13        12        15        35     9      180.000000        0.178880         4
        14        13        12        15     9        0.000000       -0.579078         1
        14        13        12        15     9      180.000000        0.434190         2
        14        13        12        15     9        0.000000       -0.318963         3
        14        13        12        15     9      180.000000        0.209250         4
        15        12        11        18     9        0.000000       -0.139589         1
        15        12        11        18     9      180.000000       16.970121         2
        15        12        11        18     9        0.000000       -1.050695         3
        15        12        11        18     9      180.000000       -0.366496         4
        15        12        13        30     9        0.000000        0.055173         1
        15        12        13        30     9      180.000000       -0.105136         2
        15        12        13        30     9        0.000000       -0.197095         3
        15        12        13        30     9      180.000000        0.007357         4
        15        12        13        31     9        0.000000        0.055173         1
        15        12        13        31     9      180.000000       -0.105136         2
        15        12        13        31     9        0.000000       -0.197095         3
        15        12        13        31     9      180.000000        0.007357         4
        15        16        17        18     9        0.000000       -0.020264         1
        15        16        17        18     9      180.000000       19.045784         2
        15        16        17        18     9        0.000000       -1.739801         3
        15        16        17        18     9      180.000000       -0.392505         4
        15        16        17        37     9        0.000000        0.066083         1
        15        16        17        37     9      180.000000       14.417422         2
        15        16        17        37     9        0.000000       -0.801722         3
        15        16        17        37     9      180.000000        0.110885         4
        16        17        18        38     9        0.000000        0.119581         1
        16        17        18        38     9      180.000000       14.128166         2
        16        17        18        38     9        0.000000       -0.661144         3
        16        17        18        38     9      180.000000        0.111271         4
        17        16        15        35     9        0.000000        0.096283         1
        17        16        15        35     9      180.000000       14.248476         2
        17        16        15        35     9        0.000000       -0.793559         3
        17        16        15        35     9      180.000000        0.160701         4
        18        17        16        36     9        0.000000        0.136854         1
        18        17        16        36     9      180.000000       14.818278         2
        18        17        16        36     9        0.000000       -0.828046         3
        18        17        16        36     9      180.000000        0.082739         4
        19         9         8        22     9        0.000000        0.070432         1
        19         9         8        22     9      180.000000       10.895454         2
        19         9         8        22     9        0.000000       -0.483942         3
        19         9         8        22     9      180.000000       -0.111193         4
        19        20        21        22     9        0.000000        0.100605         1
        19        20        21        22     9      180.000000       20.168024         2
        19        20        21        22     9        0.000000       -1.195336         3
        19        20        21        22     9      180.000000       -0.567771         4
        19        20        21        40     9        0.000000        0.174483         1
        19        20        21        40     9      180.000000       15.688093         2
        19        20        21        40     9        0.000000       -0.259874         3
        19        20        21        40     9      180.000000       -0.156477         4
        20        21        22        41     9        0.000000        0.167050         1
        20        21        22        41     9      180.000000       14.479788         2
        20        21        22        41     9        0.000000       -0.751910         3
        20        21        22        41     9      180.000000        0.148426         4
        22         8         7        29     9        0.000000        0.403978         1
        22         8         7        29     9      180.000000        2.149404         2
        22         8         7        29     9        0.000000        0.432386         3
        22         8         7        29     9      180.000000       -0.165766         4
        22        21        20        39     9        0.000000        0.082490         1
        22        21        20        39     9      180.000000       14.362334         2
        22        21        20        39     9        0.000000       -0.749614         3
        22        21        20        39     9      180.000000        0.097546         4
        23         3         2        27     9        0.000000       -0.025937         1
        23         3         2        27     9      180.000000       13.978817         2
        23         3         2        27     9        0.000000       -1.033596         3
        23         3         2        27     9      180.000000       -0.049359         4
        23         3         4        28     9        0.000000       -0.073581         1
        23         3         4        28     9      180.000000        1.819212         2
        23         3         4        28     9        0.000000       -0.146560         3
        23         3         4        28     9      180.000000       -0.432516         4
        23        24        25        26     9        0.000000        0.593154         1
        23        24        25        26     9      180.000000       22.506046         2
        23        24        25        26     9        0.000000        0.499228         3
        23        24        25        26     9      180.000000       -0.620614         4
        23        24        25        27     9        0.000000       -0.015296         1
        23        24        25        27     9      180.000000       17.109331         2
        23        24        25        27     9        0.000000       -1.218488         3
        23        24        25        27     9      180.000000       -0.336679         4
        24        25        27        44     9        0.000000        0.178904         1
        24        25        27        44     9      180.000000       12.111718         2
        24        25        27        44     9        0.000000       -0.475121         3
        24        25        27        44     9      180.000000        0.184205         4
        25        24        23        42     9        0.000000        0.161270         1
        25        24        23        42     9      180.000000       14.750787         2
        25        24        23        42     9        0.000000       -0.605994         3
        25        24        23        42     9      180.000000        0.092699         4
        26        25        24        43     9        0.000000        0.231350         1
        26        25        24        43     9      180.000000       15.680366         2
        26        25        24        43     9        0.000000        0.302158         3
        26        25        24        43     9      180.000000        0.167355         4
        26        25        27        44     9        0.000000        0.276795         1
        26        25        27        44     9      180.000000       14.674730         2
        26        25        27        44     9        0.000000        0.279358         3
        26        25        27        44     9      180.000000        0.262107         4
        27        25        24        43     9        0.000000        0.110557         1
        27        25        24        43     9      180.000000       13.020769         2
        27        25        24        43     9        0.000000       -0.535367         3
        27        25        24        43     9      180.000000        0.135349         4
        30        13        14        32     9        0.000000       -0.004653         1
        30        13        14        32     9      180.000000        0.023688         2
        30        13        14        32     9        0.000000        0.541392         3
        30        13        14        32     9      180.000000       -0.002700         4
        30        13        14        33     9        0.000000       -0.004653         1
        30        13        14        33     9      180.000000        0.023688         2
        30        13        14        33     9        0.000000        0.541392         3
        30        13        14        33     9      180.000000       -0.002700         4
        30        13        14        34     9        0.000000       -0.004654         1
        30        13        14        34     9      180.000000        0.023688         2
        30        13        14        34     9        0.000000        0.541393         3
        30        13        14        34     9      180.000000       -0.002700         4
        31        13        14        32     9        0.000000       -0.004653         1
        31        13        14        32     9      180.000000        0.023688         2
        31        13        14        32     9        0.000000        0.541392         3
        31        13        14        32     9      180.000000       -0.002700         4
        31        13        14        33     9        0.000000       -0.004653         1
        31        13        14        33     9      180.000000        0.023688         2
        31        13        14        33     9        0.000000        0.541392         3
        31        13        14        33     9      180.000000       -0.002700         4
        31        13        14        34     9        0.000000       -0.004654         1
        31        13        14        34     9      180.000000        0.023688         2
        31        13        14        34     9        0.000000        0.541393         3
        31        13        14        34     9      180.000000       -0.002700         4
        35        15        16        36     9        0.000000       -0.155911         1
        35        15        16        36     9      180.000000       11.431584         2
        35        15        16        36     9        0.000000       -0.623141         3
        35        15        16        36     9      180.000000        0.257437         4
        36        16        17        37     9        0.000000       -0.069429         1
        36        16        17        37     9      180.000000       11.906661         2
        36        16        17        37     9        0.000000       -0.614166         3
        36        16        17        37     9      180.000000        0.234345         4
        37        17        18        38     9        0.000000       -0.058495         1
        37        17        18        38     9      180.000000       12.002262         2
        37        17        18        38     9        0.000000       -0.638029         3
        37        17        18        38     9      180.000000        0.183779         4
        39        20        21        40     9        0.000000       -0.153197         1
        39        20        21        40     9      180.000000       12.054830         2
        39        20        21        40     9        0.000000       -0.693173         3
        39        20        21        40     9      180.000000        0.290661         4
        40        21        22        41     9        0.000000       -0.114528         1
        40        21        22        41     9      180.000000       11.840301         2
        40        21        22        41     9        0.000000       -0.671560         3
        40        21        22        41     9      180.000000        0.313357         4
        42        23        24        43     9        0.000000       -0.178549         1
        42        23        24        43     9      180.000000       12.068912         2
        42        23        24        43     9        0.000000       -0.803074         3
        42        23        24        43     9      180.000000        0.249230         4

[ dihedrals ] ; impropers
;       ai        aj        ak        al funct           phase               k        pn
         5         4         6         7     4      180.000000       20.368551         2
         5         6         7         4     4      180.000000       20.368551         2
         5         7         4         6     4      180.000000       20.368551         2
        15        12        16        35     4      180.000000        1.761568         2
        15        16        35        12     4      180.000000        1.761568         2
        15        35        12        16     4      180.000000        1.761568         2
        16        15        17        36     4      180.000000        0.981126         2
        16        17        36        15     4      180.000000        0.981126         2
        16        36        15        17     4      180.000000        0.981126         2
        17        16        18        37     4      180.000000        2.559163         2
        17        18        37        16     4      180.000000        2.559163         2
        17        37        16        18     4      180.000000        2.559163         2
        18        11        17        38     4      180.000000        0.399486         2
        18        17        38        11     4      180.000000        0.399486         2
        18        38        11        17     4      180.000000        0.399486         2
        20        19        21        39     4      180.000000        0.546116         2
        20        21        39        19     4      180.000000        0.546116         2
        20        39        19        21     4      180.000000        0.546116         2
        25        24        26        27     4      180.000000        0.530766         2
        25        26        27        24     4      180.000000        0.530766         2
        25        27        24        26     4      180.000000        0.530766         2

[ pairs ]
;       ai        aj funct
         1         4     1
         1        23     1
         1        25     1
         1        44     1
         2         5     1
         2        24     1
         2        26     1
         2        28     1
         2        42     1
         3         6     1
         3         7     1
         3        25     1
         3        43     1
         3        44     1
         4         8     1
         4        24     1
         4        27     1
         4        29     1
         4        42     1
         5         9     1
         5        22     1
         5        23     1
         6         8     1
         6        28     1
         6        29     1
         7        10     1
         7        19     1
         7        21     1
         7        28     1
         7        41     1
         8        11     1
         8        20     1
         8        40     1
         9        12     1
         9        18     1
         9        21     1
         9        29     1
         9        39     1
         9        41     1
        10        13     1
        10        15     1
        10        17     1
        10        20     1
        10        22     1
        10        38     1
        11        14     1
        11        16     1
        11        19     1
        11        30     1
        11        31     1
        11        35     1
        11        37     1
        12        17     1
        12        32     1
        12        33     1
        12        34     1
        12        36     1
        12        38     1
        13        16     1
        13        18     1
        13        35     1
        14        15     1
        15        18     1
        15        30     1
        15        31     1
        15        37     1
        16        38     1
        17        35     1
        18        36     1
        19        22     1
        19        40     1
        20        41     1
        22        29     1
        22        39     1
        23        26     1
        23        27     1
        23        28     1
        24        44     1
        25        42     1
        26        43     1
        26        44     1
        27        43     1
        30        32     1
        30        33     1
        30        34     1
        31        32     1
        31        33     1
        31        34     1
        35        36     1
        36        37     1
        37        38     1
        39        40     1
        40        41     1
        42        43     1
