; ITP file created by ByteFF-ML, 2026-03-15 01:43:23.686617

[ atomtypes ]
;name           bonded.type        at.num        mass        charge   ptype           sigma         epsilon
 s0bf                                  16      0.0000       0.00000       A     3.52754e-01     1.17341e+00
 c1bf                                   6      0.0000       0.00000       A     3.31514e-01     4.12729e-01
 c2bf                                   6      0.0000       0.00000       A     3.31247e-01     4.11585e-01
 n3bf                                   7      0.0000       0.00000       A     3.27279e-01     4.89570e-01
 c4bf                                   6      0.0000       0.00000       A     3.31185e-01     4.14534e-01
 o5bf                                   8      0.0000       0.00000       A     3.04781e-01     6.14498e-01
 n6bf                                   7      0.0000       0.00000       A     3.27155e-01     4.89269e-01
 c7bf                                   6      0.0000       0.00000       A     3.31343e-01     4.11596e-01
 c8bf                                   6      0.0000       0.00000       A     3.31484e-01     4.12285e-01
 c9bf                                   6      0.0000       0.00000       A     3.31475e-01     4.12775e-01
 c10bf                                  6      0.0000       0.00000       A     3.31491e-01     4.12517e-01
 c11bf                                  6      0.0000       0.00000       A     3.39812e-01     4.50524e-01
 c12bf                                  6      0.0000       0.00000       A     3.31475e-01     4.12775e-01
 c13bf                                  6      0.0000       0.00000       A     3.31484e-01     4.12285e-01
 c14bf                                  6      0.0000       0.00000       A     3.31545e-01     4.12525e-01
 c15bf                                  6      0.0000       0.00000       A     3.31481e-01     4.12857e-01
 c16bf                                  6      0.0000       0.00000       A     3.31568e-01     4.12453e-01
 n17bf                                  7      0.0000       0.00000       A     3.38275e-01     3.89909e-01
 c18bf                                  6      0.0000       0.00000       A     3.31438e-01     4.13527e-01
 c19bf                                  6      0.0000       0.00000       A     3.31268e-01     4.11839e-01
 c20bf                                  6      0.0000       0.00000       A     3.40111e-01     4.54805e-01
 c21bf                                  6      0.0000       0.00000       A     3.39820e-01     4.50372e-01
 c22bf                                  6      0.0000       0.00000       A     3.39820e-01     4.50372e-01
 c23bf                                  6      0.0000       0.00000       A     3.39820e-01     4.50372e-01
 c24bf                                  6      0.0000       0.00000       A     3.31515e-01     4.13545e-01
 c25bf                                  6      0.0000       0.00000       A     3.31473e-01     4.13237e-01
 c26bf                                  6      0.0000       0.00000       A     3.31511e-01     4.12787e-01
 c27bf                                  6      0.0000       0.00000       A     3.31353e-01     4.13360e-01
 h28bf                                  1      0.0000       0.00000       A     1.10712e-01     4.08705e-02
 h29bf                                  1      0.0000       0.00000       A     1.10460e-01     4.18649e-02
 h30bf                                  1      0.0000       0.00000       A     2.62512e-01     6.75919e-02
 h31bf                                  1      0.0000       0.00000       A     2.62479e-01     6.73254e-02
 h32bf                                  1      0.0000       0.00000       A     2.59993e-01     8.72348e-02
 h33bf                                  1      0.0000       0.00000       A     2.59993e-01     8.72348e-02
 h34bf                                  1      0.0000       0.00000       A     2.59993e-01     8.72348e-02
 h35bf                                  1      0.0000       0.00000       A     2.62479e-01     6.73254e-02
 h36bf                                  1      0.0000       0.00000       A     2.62512e-01     6.75919e-02
 h37bf                                  1      0.0000       0.00000       A     2.62527e-01     6.72791e-02
 h38bf                                  1      0.0000       0.00000       A     2.62506e-01     6.74403e-02
 h39bf                                  1      0.0000       0.00000       A     2.53616e-01     6.72328e-02
 h40bf                                  1      0.0000       0.00000       A     2.59968e-01     8.75795e-02
 h41bf                                  1      0.0000       0.00000       A     2.59968e-01     8.75795e-02
 h42bf                                  1      0.0000       0.00000       A     2.59968e-01     8.75795e-02
 h43bf                                  1      0.0000       0.00000       A     2.59968e-01     8.75795e-02
 h44bf                                  1      0.0000       0.00000       A     2.59968e-01     8.75795e-02
 h45bf                                  1      0.0000       0.00000       A     2.59968e-01     8.75795e-02
 h46bf                                  1      0.0000       0.00000       A     2.59968e-01     8.75795e-02
 h47bf                                  1      0.0000       0.00000       A     2.59968e-01     8.75795e-02
 h48bf                                  1      0.0000       0.00000       A     2.59968e-01     8.75795e-02
 h49bf                                  1      0.0000       0.00000       A     2.62547e-01     6.79128e-02
 h50bf                                  1      0.0000       0.00000       A     2.62458e-01     6.72983e-02
 h51bf                                  1      0.0000       0.00000       A     2.62483e-01     6.73557e-02
 h52bf                                  1      0.0000       0.00000       A     2.62550e-01     6.76398e-02

[ moleculetype ]
;name             nrexcl
 13                    3

[ atoms ]
;       nr            type      resi   res      atom      cgnr      charge          mass ; qtot
         1            s0bf         1   UNL        s0         1    -0.17241       32.0670 ; qtot   -0.172
         2            c1bf         1   UNL        c1         2     0.39063       12.0110 ; qtot    0.218
         3            c2bf         1   UNL        c2         3    -0.02129       12.0110 ; qtot    0.197
         4            n3bf         1   UNL        n3         4    -0.15734       14.0070 ; qtot    0.040
         5            c4bf         1   UNL        c4         5     0.65988       12.0110 ; qtot    0.699
         6            o5bf         1   UNL        o5         6    -0.59610       15.9990 ; qtot    0.103
         7            n6bf         1   UNL        n6         7    -0.16518       14.0070 ; qtot   -0.062
         8            c7bf         1   UNL        c7         8    -0.01943       12.0110 ; qtot   -0.081
         9            c8bf         1   UNL        c8         9    -0.15052       12.0110 ; qtot   -0.232
        10            c9bf         1   UNL        c9        10    -0.08771       12.0110 ; qtot   -0.319
        11           c10bf         1   UNL       c10        11    -0.09874       12.0110 ; qtot   -0.418
        12           c11bf         1   UNL       c11        12    -0.04555       12.0110 ; qtot   -0.464
        13           c12bf         1   UNL       c12        13    -0.08771       12.0110 ; qtot   -0.551
        14           c13bf         1   UNL       c13        14    -0.15052       12.0110 ; qtot   -0.702
        15           c14bf         1   UNL       c14        15    -0.10043       12.0110 ; qtot   -0.802
        16           c15bf         1   UNL       c15        16    -0.13425       12.0110 ; qtot   -0.937
        17           c16bf         1   UNL       c16        17     0.30579       12.0110 ; qtot   -0.631
        18           n17bf         1   UNL       n17        18    -0.64012       14.0070 ; qtot   -1.271
        19           c18bf         1   UNL       c18        19    -0.10758       12.0110 ; qtot   -1.379
        20           c19bf         1   UNL       c19        20    -0.02101       12.0110 ; qtot   -1.400
        21           c20bf         1   UNL       c20        21    -0.00124       12.0110 ; qtot   -1.401
        22           c21bf         1   UNL       c21        22    -0.09004       12.0110 ; qtot   -1.491
        23           c22bf         1   UNL       c22        23    -0.09004       12.0110 ; qtot   -1.581
        24           c23bf         1   UNL       c23        24    -0.09004       12.0110 ; qtot   -1.671
        25           c24bf         1   UNL       c24        25    -0.11366       12.0110 ; qtot   -1.785
        26           c25bf         1   UNL       c25        26    -0.10085       12.0110 ; qtot   -1.885
        27           c26bf         1   UNL       c26        27    -0.12097       12.0110 ; qtot   -2.006
        28           c27bf         1   UNL       c27        28    -0.07852       12.0110 ; qtot   -2.085
        29           h28bf         1   UNL       h28        29     0.18266        1.0080 ; qtot   -1.902
        30           h29bf         1   UNL       h29        30     0.15557        1.0080 ; qtot   -1.747
        31           h30bf         1   UNL       h30        31     0.13019        1.0080 ; qtot   -1.617
        32           h31bf         1   UNL       h31        32     0.11466        1.0080 ; qtot   -1.502
        33           h32bf         1   UNL       h32        33     0.04333        1.0080 ; qtot   -1.459
        34           h33bf         1   UNL       h33        34     0.04333        1.0080 ; qtot   -1.415
        35           h34bf         1   UNL       h34        35     0.04333        1.0080 ; qtot   -1.372
        36           h35bf         1   UNL       h35        36     0.11466        1.0080 ; qtot   -1.257
        37           h36bf         1   UNL       h36        37     0.13019        1.0080 ; qtot   -1.127
        38           h37bf         1   UNL       h37        38     0.14826        1.0080 ; qtot   -0.979
        39           h38bf         1   UNL       h38        39     0.12840        1.0080 ; qtot   -0.850
        40           h39bf         1   UNL       h39        40     0.03018        1.0080 ; qtot   -0.820
        41           h40bf         1   UNL       h40        41     0.03811        1.0080 ; qtot   -0.782
        42           h41bf         1   UNL       h41        42     0.03811        1.0080 ; qtot   -0.744
        43           h42bf         1   UNL       h42        43     0.03811        1.0080 ; qtot   -0.706
        44           h43bf         1   UNL       h43        44     0.03811        1.0080 ; qtot   -0.668
        45           h44bf         1   UNL       h44        45     0.03811        1.0080 ; qtot   -0.630
        46           h45bf         1   UNL       h45        46     0.03811        1.0080 ; qtot   -0.592
        47           h46bf         1   UNL       h46        47     0.03811        1.0080 ; qtot   -0.553
        48           h47bf         1   UNL       h47        48     0.03811        1.0080 ; qtot   -0.515
        49           h48bf         1   UNL       h48        49     0.03811        1.0080 ; qtot   -0.477
        50           h49bf         1   UNL       h49        50     0.11616        1.0080 ; qtot   -0.361
        51           h50bf         1   UNL       h50        51     0.11717        1.0080 ; qtot   -0.244
        52           h51bf         1   UNL       h51        52     0.11911        1.0080 ; qtot   -0.125
        53           h52bf         1   UNL       h52        53     0.12476        1.0080 ; qtot    0.000

[ bonds ]
;       ai        aj funct               r               k
         1         2     1        0.180134   121910.584961
         1        19     1        0.180034   126858.731885
         2         3     1        0.141400   246134.193604
         2        18     1        0.132897   315001.827441
         3         4     1        0.140692   255525.414502
         3        15     1        0.140015   293307.312451
         4         5     1        0.139078   235593.751709
         4        29     1        0.101413   409186.542920
         5         6     1        0.122744   593334.408789
         5         7     1        0.138388   251122.842383
         7         8     1        0.141320   245803.002832
         7        30     1        0.101091   419225.921191
         8         9     1        0.140424   286001.605127
         8        14     1        0.140424   286001.605127
         9        10     1        0.139593   322563.161230
         9        31     1        0.108401   324479.542529
        10        11     1        0.140247   288832.163867
        10        32     1        0.108738   314730.367969
        11        12     1        0.151118   206418.127759
        11        13     1        0.140247   288832.163867
        12        33     1        0.109458   298881.910205
        12        34     1        0.109458   298881.910205
        12        35     1        0.109458   298881.910205
        13        14     1        0.139593   322563.161230
        13        36     1        0.108738   314730.367969
        14        37     1        0.108401   324479.542529
        15        16     1        0.139529   322068.864941
        15        38     1        0.108248   329493.243213
        16        17     1        0.139431   298451.252393
        16        39     1        0.108533   323436.045166
        17        18     1        0.134048   315553.939746
        17        40     1        0.108733   317719.639844
        19        20     1        0.141453   251016.199414
        19        28     1        0.140156   292745.930176
        20        21     1        0.154619   148513.868652
        20        25     1        0.140688   278143.581201
        21        22     1        0.154738   166238.180322
        21        23     1        0.154738   166238.180322
        21        24     1        0.154738   166238.180322
        22        41     1        0.109346   300443.861963
        22        42     1        0.109346   300443.861963
        22        43     1        0.109346   300443.861963
        23        44     1        0.109346   300443.861963
        23        45     1        0.109346   300443.861963
        23        46     1        0.109346   300443.861963
        24        47     1        0.109346   300443.861963
        24        48     1        0.109346   300443.861963
        24        49     1        0.109346   300443.861963
        25        26     1        0.139573   315538.336572
        25        50     1        0.108334   322839.447217
        26        27     1        0.139624   310761.952246
        26        51     1        0.108612   319951.940723
        27        28     1        0.139576   312437.186621
        27        52     1        0.108602   320552.956592
        28        53     1        0.108515   320773.929199

[ angles ]
;       ai        aj        ak funct           theta             cth
         1         2         3     1      120.533447      324.849077
         1         2        18     1      117.688148      428.084630
         1        19        20     1      123.307739      334.772096
         1        19        28     1      116.580116      392.812423
         2         1        19     1      101.747604      731.518031
         2         3         4     1      119.385086      504.640606
         2         3        15     1      117.326012      627.411600
         2        18        17     1      118.906860      593.645029
         3         2        18     1      123.086037      731.309393
         3         4         5     1      126.151588      466.036349
         3         4        29     1      114.239357      429.273510
         3        15        16     1      118.846252      817.152514
         3        15        38     1      119.402100      434.054440
         4         3        15     1      123.313278      550.967923
         4         5         6     1      123.684616      547.347463
         4         5         7     1      112.480957      546.084525
         5         4        29     1      117.179359      440.848811
         5         7         8     1      128.520508      461.876354
         5         7        30     1      116.280663      459.564958
         6         5         7     1      124.530212      547.076578
         7         8         9     1      120.599693      590.916389
         7         8        14     1      120.599693      590.916389
         8         7        30     1      114.712326      453.032406
         8         9        10     1      119.965233      736.046846
         8         9        31     1      119.761215      449.806239
         8        14        13     1      119.965233      736.046846
         8        14        37     1      119.761215      449.806303
         9         8        14     1      118.961853      491.480472
         9        10        11     1      121.755005      688.459911
         9        10        32     1      118.781799      437.300685
        10         9        31     1      120.344337      400.156066
        10        11        12     1      121.260826      492.309693
        10        11        13     1      117.519676      646.737446
        11        10        32     1      119.523361      418.274294
        11        12        33     1      111.289307      479.733816
        11        12        34     1      111.289307      479.733816
        11        12        35     1      111.289307      479.733816
        11        13        14     1      121.755005      688.459911
        11        13        36     1      119.523361      418.274294
        12        11        13     1      121.260826      492.309693
        13        14        37     1      120.344337      400.156066
        14        13        36     1      118.781799      437.300685
        15        16        17     1      118.925522      751.240788
        15        16        39     1      120.535141      435.362674
        16        15        38     1      121.672890      389.382023
        16        17        18     1      122.371559      670.250165
        16        17        40     1      121.250366      408.318013
        17        16        39     1      120.519791      440.261649
        18        17        40     1      116.262352      390.782989
        19        20        21     1      124.812355      437.350929
        19        20        25     1      116.210129      664.947001
        19        28        27     1      120.819725      624.119611
        19        28        53     1      119.099350      362.992357
        20        19        28     1      120.952438      697.440610
        20        21        22     1      110.851418      614.110660
        20        21        23     1      110.851418      614.110660
        20        21        24     1      110.851418      614.110660
        20        25        26     1      122.816452      692.407948
        20        25        50     1      119.128807      380.566741
        21        20        25     1      119.327515      476.625567
        21        22        41     1      111.006691      475.120921
        21        22        42     1      111.006691      475.120921
        21        22        43     1      111.006691      475.120921
        21        23        44     1      111.006691      475.120921
        21        23        45     1      111.006691      475.120921
        21        23        46     1      111.006691      475.120921
        21        24        47     1      111.006691      475.120921
        21        24        48     1      111.006691      475.120921
        21        24        49     1      111.006691      475.120921
        22        21        23     1      107.769669      568.668460
        22        21        24     1      107.769669      568.668460
        23        21        24     1      107.769669      568.668460
        25        26        27     1      119.897743      718.069679
        25        26        51     1      119.728004      430.396664
        26        25        50     1      118.043495      427.172699
        26        27        28     1      119.126266      709.532432
        26        27        52     1      120.793839      416.206107
        27        26        51     1      120.348717      430.593459
        27        28        53     1      120.184021      423.126919
        28        27        52     1      119.940353      429.026757
        33        12        34     1      107.633995      359.456202
        33        12        35     1      107.633995      359.456202
        34        12        35     1      107.633995      359.456202
        41        22        42     1      107.908470      361.107304
        41        22        43     1      107.908470      361.107304
        42        22        43     1      107.908470      361.107304
        44        23        45     1      107.908470      361.107304
        44        23        46     1      107.908470      361.107304
        45        23        46     1      107.908470      361.107304
        47        24        48     1      107.908470      361.107304
        47        24        49     1      107.908470      361.107304
        48        24        49     1      107.908470      361.107304

[ dihedrals ] ; propers for gromacs 4.5 or higher, use funct 9
;       ai        aj        ak        al funct           phase               k        pn
         1         2         3         4     9        0.000000       -0.111526         1
         1         2         3         4     9      180.000000       13.678699         2
         1         2         3         4     9        0.000000        0.100435         3
         1         2         3         4     9      180.000000       -0.542204         4
         1         2         3        15     9        0.000000        0.187922         1
         1         2         3        15     9      180.000000       11.313101         2
         1         2         3        15     9        0.000000        0.040286         3
         1         2         3        15     9      180.000000       -0.292335         4
         1         2        18        17     9        0.000000        0.749703         1
         1         2        18        17     9      180.000000       27.231199         2
         1         2        18        17     9        0.000000        1.111162         3
         1         2        18        17     9      180.000000       -0.762939         4
         1        19        20        21     9        0.000000       -0.211105         1
         1        19        20        21     9      180.000000       12.088588         2
         1        19        20        21     9        0.000000       -0.026927         3
         1        19        20        21     9      180.000000       -0.454312         4
         1        19        20        25     9        0.000000        0.137100         1
         1        19        20        25     9      180.000000       13.725644         2
         1        19        20        25     9        0.000000       -0.021813         3
         1        19        20        25     9      180.000000       -0.578028         4
         1        19        28        27     9        0.000000        0.040196         1
         1        19        28        27     9      180.000000       16.320243         2
         1        19        28        27     9        0.000000       -0.044509         3
         1        19        28        27     9      180.000000       -0.446816         4
         1        19        28        53     9        0.000000       -0.072980         1
         1        19        28        53     9      180.000000       12.999237         2
         1        19        28        53     9        0.000000       -0.083670         3
         1        19        28        53     9      180.000000        0.064517         4
         2         1        19        20     9        0.000000        0.654346         1
         2         1        19        20     9      180.000000        2.828927         2
         2         1        19        20     9        0.000000        0.781586         3
         2         1        19        20     9      180.000000        0.177231         4
         2         1        19        28     9        0.000000       -0.028549         1
         2         1        19        28     9      180.000000        3.219311         2
         2         1        19        28     9        0.000000       -1.498061         3
         2         1        19        28     9      180.000000        0.721063         4
         2         3         4         5     9        0.000000       -0.130630         1
         2         3         4         5     9      180.000000        1.713850         2
         2         3         4         5     9        0.000000        0.340195         3
         2         3         4         5     9      180.000000       -0.045745         4
         2         3         4        29     9        0.000000        2.125244         1
         2         3         4        29     9      180.000000        1.787156         2
         2         3         4        29     9        0.000000        0.549433         3
         2         3         4        29     9      180.000000       -0.404113         4
         2         3        15        16     9        0.000000       -0.017893         1
         2         3        15        16     9      180.000000       17.671281         2
         2         3        15        16     9        0.000000       -1.336369         3
         2         3        15        16     9      180.000000       -0.530299         4
         2         3        15        38     9        0.000000        0.163022         1
         2         3        15        38     9      180.000000       13.312574         2
         2         3        15        38     9        0.000000       -0.598577         3
         2         3        15        38     9      180.000000       -0.004751         4
         2        18        17        16     9        0.000000        0.163011         1
         2        18        17        16     9      180.000000       21.784792         2
         2        18        17        16     9        0.000000       -1.057140         3
         2        18        17        16     9      180.000000       -0.218159         4
         2        18        17        40     9        0.000000        0.962436         1
         2        18        17        40     9      180.000000       19.688499         2
         2        18        17        40     9        0.000000        0.134441         3
         2        18        17        40     9      180.000000       -0.421914         4
         3         2         1        19     9        0.000000        3.505070         1
         3         2         1        19     9      180.000000        0.299555         2
         3         2         1        19     9        0.000000        0.360720         3
         3         2         1        19     9      180.000000        0.109627         4
         3         2        18        17     9        0.000000        0.070559         1
         3         2        18        17     9      180.000000       26.306351         2
         3         2        18        17     9        0.000000       -0.596127         3
         3         2        18        17     9      180.000000       -0.205353         4
         3         4         5         6     9        0.000000       -2.260128         1
         3         4         5         6     9      180.000000        5.097717         2
         3         4         5         6     9        0.000000       -0.502212         3
         3         4         5         6     9      180.000000       -0.120442         4
         3         4         5         7     9        0.000000        6.142842         1
         3         4         5         7     9      180.000000        6.593128         2
         3         4         5         7     9        0.000000       -0.095065         3
         3         4         5         7     9      180.000000       -0.113773         4
         3        15        16        17     9        0.000000       -0.071738         1
         3        15        16        17     9      180.000000       18.580108         2
         3        15        16        17     9        0.000000       -2.121313         3
         3        15        16        17     9      180.000000       -0.535530         4
         3        15        16        39     9        0.000000        0.088305         1
         3        15        16        39     9      180.000000       14.844269         2
         3        15        16        39     9        0.000000       -0.517692         3
         3        15        16        39     9      180.000000       -0.029158         4
         4         3         2        18     9        0.000000        0.100941         1
         4         3         2        18     9      180.000000       14.693444         2
         4         3         2        18     9        0.000000        0.262080         3
         4         3         2        18     9      180.000000       -0.755461         4
         4         3        15        16     9        0.000000        0.361622         1
         4         3        15        16     9      180.000000       19.244137         2
         4         3        15        16     9        0.000000        0.192489         3
         4         3        15        16     9      180.000000       -0.462318         4
         4         3        15        38     9        0.000000        0.140226         1
         4         3        15        38     9      180.000000       14.675772         2
         4         3        15        38     9        0.000000       -0.066265         3
         4         3        15        38     9      180.000000        0.169648         4
         4         5         7         8     9        0.000000        6.161389         1
         4         5         7         8     9      180.000000        5.762795         2
         4         5         7         8     9        0.000000       -0.031345         3
         4         5         7         8     9      180.000000       -0.095859         4
         4         5         7        30     9        0.000000        4.769784         1
         4         5         7        30     9      180.000000        7.105238         2
         4         5         7        30     9        0.000000       -0.561914         3
         4         5         7        30     9      180.000000        0.398340         4
         5         4         3        15     9        0.000000       -0.093228         1
         5         4         3        15     9      180.000000        2.000479         2
         5         4         3        15     9        0.000000       -0.317483         3
         5         4         3        15     9      180.000000        0.390482         4
         5         7         8         9     9        0.000000        0.074324         1
         5         7         8         9     9      180.000000        1.897899         2
         5         7         8         9     9        0.000000       -0.169714         3
         5         7         8         9     9      180.000000        0.290099         4
         5         7         8        14     9        0.000000        0.074324         1
         5         7         8        14     9      180.000000        1.897899         2
         5         7         8        14     9        0.000000       -0.169714         3
         5         7         8        14     9      180.000000        0.290099         4
         6         5         4        29     9        0.000000       -2.078326         1
         6         5         4        29     9      180.000000        5.371890         2
         6         5         4        29     9        0.000000        0.042233         3
         6         5         4        29     9      180.000000       -0.021738         4
         6         5         7         8     9        0.000000       -3.527600         1
         6         5         7         8     9      180.000000        4.499845         2
         6         5         7         8     9        0.000000       -0.617083         3
         6         5         7         8     9      180.000000       -0.236546         4
         6         5         7        30     9        0.000000       -1.919851         1
         6         5         7        30     9      180.000000        5.955739         2
         6         5         7        30     9        0.000000        0.166426         3
         6         5         7        30     9      180.000000        0.137729         4
         7         5         4        29     9        0.000000        4.185237         1
         7         5         4        29     9      180.000000        6.890772         2
         7         5         4        29     9        0.000000       -0.190660         3
         7         5         4        29     9      180.000000        0.181154         4
         7         8         9        10     9        0.000000        0.366298         1
         7         8         9        10     9      180.000000       16.527952         2
         7         8         9        10     9        0.000000        0.151186         3
         7         8         9        10     9      180.000000       -0.204854         4
         7         8         9        31     9        0.000000       -0.123454         1
         7         8         9        31     9      180.000000       13.417477         2
         7         8         9        31     9        0.000000       -0.250649         3
         7         8         9        31     9      180.000000        0.209144         4
         7         8        14        13     9        0.000000        0.366298         1
         7         8        14        13     9      180.000000       16.527952         2
         7         8        14        13     9        0.000000        0.151186         3
         7         8        14        13     9      180.000000       -0.204854         4
         7         8        14        37     9        0.000000       -0.123454         1
         7         8        14        37     9      180.000000       13.417477         2
         7         8        14        37     9        0.000000       -0.250649         3
         7         8        14        37     9      180.000000        0.209144         4
         8         9        10        11     9        0.000000        0.061592         1
         8         9        10        11     9      180.000000       18.171042         2
         8         9        10        11     9        0.000000       -1.644689         3
         8         9        10        11     9      180.000000       -0.414581         4
         8         9        10        32     9        0.000000        0.036869         1
         8         9        10        32     9      180.000000       15.069686         2
         8         9        10        32     9        0.000000       -0.524833         3
         8         9        10        32     9      180.000000       -0.013168         4
         8        14        13        11     9        0.000000        0.061592         1
         8        14        13        11     9      180.000000       18.171042         2
         8        14        13        11     9        0.000000       -1.644689         3
         8        14        13        11     9      180.000000       -0.414581         4
         8        14        13        36     9        0.000000        0.036869         1
         8        14        13        36     9      180.000000       15.069686         2
         8        14        13        36     9        0.000000       -0.524833         3
         8        14        13        36     9      180.000000       -0.013168         4
         9         8         7        30     9        0.000000        0.076487         1
         9         8         7        30     9      180.000000        2.175444         2
         9         8         7        30     9        0.000000       -0.004310         3
         9         8         7        30     9      180.000000       -0.113741         4
         9         8        14        13     9        0.000000        0.083702         1
         9         8        14        13     9      180.000000       16.138796         2
         9         8        14        13     9        0.000000       -1.124103         3
         9         8        14        13     9      180.000000       -0.176990         4
         9         8        14        37     9        0.000000        0.215508         1
         9         8        14        37     9      180.000000       12.892730         2
         9         8        14        37     9        0.000000       -0.481918         3
         9         8        14        37     9      180.000000        0.105935         4
         9        10        11        12     9        0.000000        0.164345         1
         9        10        11        12     9      180.000000       15.552805         2
         9        10        11        12     9        0.000000       -0.138670         3
         9        10        11        12     9      180.000000       -0.157448         4
         9        10        11        13     9        0.000000        0.040789         1
         9        10        11        13     9      180.000000       18.586519         2
         9        10        11        13     9        0.000000       -1.365990         3
         9        10        11        13     9      180.000000       -0.438651         4
        10         9         8        14     9        0.000000        0.083702         1
        10         9         8        14     9      180.000000       16.138796         2
        10         9         8        14     9        0.000000       -1.124103         3
        10         9         8        14     9      180.000000       -0.176990         4
        10        11        12        33     9        0.000000       -0.018608         1
        10        11        12        33     9      180.000000        0.011885         2
        10        11        12        33     9        0.000000       -0.003570         3
        10        11        12        33     9      180.000000        0.003967         4
        10        11        12        34     9        0.000000       -0.018608         1
        10        11        12        34     9      180.000000        0.011885         2
        10        11        12        34     9        0.000000       -0.003570         3
        10        11        12        34     9      180.000000        0.003967         4
        10        11        12        35     9        0.000000       -0.018608         1
        10        11        12        35     9      180.000000        0.011885         2
        10        11        12        35     9        0.000000       -0.003570         3
        10        11        12        35     9      180.000000        0.003967         4
        10        11        13        14     9        0.000000        0.040789         1
        10        11        13        14     9      180.000000       18.586519         2
        10        11        13        14     9        0.000000       -1.365990         3
        10        11        13        14     9      180.000000       -0.438651         4
        10        11        13        36     9        0.000000       -0.042810         1
        10        11        13        36     9      180.000000       14.482847         2
        10        11        13        36     9        0.000000       -0.579015         3
        10        11        13        36     9      180.000000        0.080319         4
        11        10         9        31     9        0.000000        0.082457         1
        11        10         9        31     9      180.000000       14.507207         2
        11        10         9        31     9        0.000000       -0.592229         3
        11        10         9        31     9      180.000000        0.179559         4
        11        13        14        37     9        0.000000        0.082457         1
        11        13        14        37     9      180.000000       14.507207         2
        11        13        14        37     9        0.000000       -0.592229         3
        11        13        14        37     9      180.000000        0.179559         4
        12        11        10        32     9        0.000000       -0.188143         1
        12        11        10        32     9      180.000000       12.876267         2
        12        11        10        32     9        0.000000       -0.359341         3
        12        11        10        32     9      180.000000        0.264657         4
        12        11        13        14     9        0.000000        0.164345         1
        12        11        13        14     9      180.000000       15.552805         2
        12        11        13        14     9        0.000000       -0.138670         3
        12        11        13        14     9      180.000000       -0.157448         4
        12        11        13        36     9        0.000000       -0.188143         1
        12        11        13        36     9      180.000000       12.876267         2
        12        11        13        36     9        0.000000       -0.359341         3
        12        11        13        36     9      180.000000        0.264657         4
        13        11        10        32     9        0.000000       -0.042810         1
        13        11        10        32     9      180.000000       14.482847         2
        13        11        10        32     9        0.000000       -0.579015         3
        13        11        10        32     9      180.000000        0.080319         4
        13        11        12        33     9        0.000000       -0.018608         1
        13        11        12        33     9      180.000000        0.011885         2
        13        11        12        33     9        0.000000       -0.003570         3
        13        11        12        33     9      180.000000        0.003967         4
        13        11        12        34     9        0.000000       -0.018608         1
        13        11        12        34     9      180.000000        0.011885         2
        13        11        12        34     9        0.000000       -0.003570         3
        13        11        12        34     9      180.000000        0.003967         4
        13        11        12        35     9        0.000000       -0.018608         1
        13        11        12        35     9      180.000000        0.011885         2
        13        11        12        35     9        0.000000       -0.003570         3
        13        11        12        35     9      180.000000        0.003967         4
        14         8         7        30     9        0.000000        0.076487         1
        14         8         7        30     9      180.000000        2.175444         2
        14         8         7        30     9        0.000000       -0.004310         3
        14         8         7        30     9      180.000000       -0.113741         4
        14         8         9        31     9        0.000000        0.215508         1
        14         8         9        31     9      180.000000       12.892730         2
        14         8         9        31     9        0.000000       -0.481918         3
        14         8         9        31     9      180.000000        0.105935         4
        15         3         2        18     9        0.000000        0.290269         1
        15         3         2        18     9      180.000000       11.885612         2
        15         3         2        18     9        0.000000       -0.407192         3
        15         3         2        18     9      180.000000       -0.239265         4
        15         3         4        29     9        0.000000        0.071510         1
        15         3         4        29     9      180.000000        2.422698         2
        15         3         4        29     9        0.000000        0.156206         3
        15         3         4        29     9      180.000000       -0.097755         4
        15        16        17        18     9        0.000000        0.047449         1
        15        16        17        18     9      180.000000       19.268226         2
        15        16        17        18     9        0.000000       -1.034258         3
        15        16        17        18     9      180.000000       -0.552673         4
        15        16        17        40     9        0.000000        0.143714         1
        15        16        17        40     9      180.000000       13.937774         2
        15        16        17        40     9        0.000000       -0.770437         3
        15        16        17        40     9      180.000000        0.097059         4
        17        16        15        38     9        0.000000        0.194717         1
        17        16        15        38     9      180.000000       14.530602         2
        17        16        15        38     9        0.000000       -0.777518         3
        17        16        15        38     9      180.000000        0.132853         4
        18         2         1        19     9        0.000000       -4.648357         1
        18         2         1        19     9      180.000000        3.197587         2
        18         2         1        19     9        0.000000        0.347372         3
        18         2         1        19     9      180.000000       -0.071470         4
        18        17        16        39     9        0.000000        0.154401         1
        18        17        16        39     9      180.000000       14.942635         2
        18        17        16        39     9        0.000000       -0.217486         3
        18        17        16        39     9      180.000000       -0.104977         4
        19        20        21        22     9        0.000000        0.900348         1
        19        20        21        22     9      180.000000       -1.108004         2
        19        20        21        22     9        0.000000        0.597244         3
        19        20        21        22     9      180.000000        0.473560         4
        19        20        21        23     9        0.000000        0.900348         1
        19        20        21        23     9      180.000000       -1.108004         2
        19        20        21        23     9        0.000000        0.597244         3
        19        20        21        23     9      180.000000        0.473560         4
        19        20        21        24     9        0.000000        0.900348         1
        19        20        21        24     9      180.000000       -1.108004         2
        19        20        21        24     9        0.000000        0.597244         3
        19        20        21        24     9      180.000000        0.473560         4
        19        20        25        26     9        0.000000       -0.103863         1
        19        20        25        26     9      180.000000       19.715095         2
        19        20        25        26     9        0.000000       -1.190508         3
        19        20        25        26     9      180.000000       -0.700671         4
        19        20        25        50     9        0.000000        0.068287         1
        19        20        25        50     9      180.000000       14.629091         2
        19        20        25        50     9        0.000000       -0.412694         3
        19        20        25        50     9      180.000000       -0.073869         4
        19        28        27        26     9        0.000000       -0.006173         1
        19        28        27        26     9      180.000000       18.820143         2
        19        28        27        26     9        0.000000       -1.552470         3
        19        28        27        26     9      180.000000       -0.527026         4
        19        28        27        52     9        0.000000        0.130744         1
        19        28        27        52     9      180.000000       13.853571         2
        19        28        27        52     9        0.000000       -0.590583         3
        19        28        27        52     9      180.000000        0.032015         4
        20        19        28        27     9        0.000000        0.044866         1
        20        19        28        27     9      180.000000       19.303840         2
        20        19        28        27     9        0.000000       -1.409272         3
        20        19        28        27     9      180.000000       -0.598428         4
        20        19        28        53     9        0.000000        0.088456         1
        20        19        28        53     9      180.000000       14.586414         2
        20        19        28        53     9        0.000000       -0.439167         3
        20        19        28        53     9      180.000000       -0.124972         4
        20        21        22        41     9        0.000000       -0.048082         1
        20        21        22        41     9      180.000000        0.043749         2
        20        21        22        41     9        0.000000        0.505914         3
        20        21        22        41     9      180.000000       -0.013659         4
        20        21        22        42     9        0.000000       -0.048082         1
        20        21        22        42     9      180.000000        0.043749         2
        20        21        22        42     9        0.000000        0.505914         3
        20        21        22        42     9      180.000000       -0.013659         4
        20        21        22        43     9        0.000000       -0.048082         1
        20        21        22        43     9      180.000000        0.043749         2
        20        21        22        43     9        0.000000        0.505914         3
        20        21        22        43     9      180.000000       -0.013659         4
        20        21        23        44     9        0.000000       -0.048082         1
        20        21        23        44     9      180.000000        0.043749         2
        20        21        23        44     9        0.000000        0.505914         3
        20        21        23        44     9      180.000000       -0.013659         4
        20        21        23        45     9        0.000000       -0.048082         1
        20        21        23        45     9      180.000000        0.043749         2
        20        21        23        45     9        0.000000        0.505914         3
        20        21        23        45     9      180.000000       -0.013659         4
        20        21        23        46     9        0.000000       -0.048082         1
        20        21        23        46     9      180.000000        0.043749         2
        20        21        23        46     9        0.000000        0.505914         3
        20        21        23        46     9      180.000000       -0.013659         4
        20        21        24        47     9        0.000000       -0.048082         1
        20        21        24        47     9      180.000000        0.043749         2
        20        21        24        47     9        0.000000        0.505914         3
        20        21        24        47     9      180.000000       -0.013659         4
        20        21        24        48     9        0.000000       -0.048082         1
        20        21        24        48     9      180.000000        0.043749         2
        20        21        24        48     9        0.000000        0.505914         3
        20        21        24        48     9      180.000000       -0.013659         4
        20        21        24        49     9        0.000000       -0.048082         1
        20        21        24        49     9      180.000000        0.043749         2
        20        21        24        49     9        0.000000        0.505914         3
        20        21        24        49     9      180.000000       -0.013659         4
        20        25        26        27     9        0.000000       -0.133046         1
        20        25        26        27     9      180.000000       18.848992         2
        20        25        26        27     9        0.000000       -1.681274         3
        20        25        26        27     9      180.000000       -0.505496         4
        20        25        26        51     9        0.000000       -0.006426         1
        20        25        26        51     9      180.000000       14.332529         2
        20        25        26        51     9        0.000000       -0.755814         3
        20        25        26        51     9      180.000000       -0.027044         4
        21        20        19        28     9        0.000000        0.333974         1
        21        20        19        28     9      180.000000       12.399073         2
        21        20        19        28     9        0.000000        0.332444         3
        21        20        19        28     9      180.000000       -0.370241         4
        21        20        25        26     9        0.000000        0.251576         1
        21        20        25        26     9      180.000000       16.040531         2
        21        20        25        26     9        0.000000        0.214253         3
        21        20        25        26     9      180.000000       -0.403313         4
        21        20        25        50     9        0.000000       -0.136606         1
        21        20        25        50     9      180.000000       13.046423         2
        21        20        25        50     9        0.000000       -0.235993         3
        21        20        25        50     9      180.000000        0.081019         4
        22        21        20        25     9        0.000000       -1.912329         1
        22        21        20        25     9      180.000000        0.058451         2
        22        21        20        25     9        0.000000       -0.903713         3
        22        21        20        25     9      180.000000        0.910168         4
        22        21        23        44     9        0.000000       -0.061187         1
        22        21        23        44     9      180.000000        0.065694         2
        22        21        23        44     9        0.000000        0.494025         3
        22        21        23        44     9      180.000000        0.036456         4
        22        21        23        45     9        0.000000       -0.061187         1
        22        21        23        45     9      180.000000        0.065694         2
        22        21        23        45     9        0.000000        0.494025         3
        22        21        23        45     9      180.000000        0.036456         4
        22        21        23        46     9        0.000000       -0.061187         1
        22        21        23        46     9      180.000000        0.065694         2
        22        21        23        46     9        0.000000        0.494025         3
        22        21        23        46     9      180.000000        0.036456         4
        22        21        24        47     9        0.000000       -0.061187         1
        22        21        24        47     9      180.000000        0.065694         2
        22        21        24        47     9        0.000000        0.494025         3
        22        21        24        47     9      180.000000        0.036456         4
        22        21        24        48     9        0.000000       -0.061187         1
        22        21        24        48     9      180.000000        0.065694         2
        22        21        24        48     9        0.000000        0.494025         3
        22        21        24        48     9      180.000000        0.036456         4
        22        21        24        49     9        0.000000       -0.061187         1
        22        21        24        49     9      180.000000        0.065694         2
        22        21        24        49     9        0.000000        0.494025         3
        22        21        24        49     9      180.000000        0.036456         4
        23        21        20        25     9        0.000000       -1.912329         1
        23        21        20        25     9      180.000000        0.058451         2
        23        21        20        25     9        0.000000       -0.903713         3
        23        21        20        25     9      180.000000        0.910168         4
        23        21        22        41     9        0.000000       -0.061187         1
        23        21        22        41     9      180.000000        0.065694         2
        23        21        22        41     9        0.000000        0.494025         3
        23        21        22        41     9      180.000000        0.036456         4
        23        21        22        42     9        0.000000       -0.061187         1
        23        21        22        42     9      180.000000        0.065694         2
        23        21        22        42     9        0.000000        0.494025         3
        23        21        22        42     9      180.000000        0.036456         4
        23        21        22        43     9        0.000000       -0.061187         1
        23        21        22        43     9      180.000000        0.065694         2
        23        21        22        43     9        0.000000        0.494025         3
        23        21        22        43     9      180.000000        0.036456         4
        23        21        24        47     9        0.000000       -0.061187         1
        23        21        24        47     9      180.000000        0.065694         2
        23        21        24        47     9        0.000000        0.494025         3
        23        21        24        47     9      180.000000        0.036456         4
        23        21        24        48     9        0.000000       -0.061187         1
        23        21        24        48     9      180.000000        0.065694         2
        23        21        24        48     9        0.000000        0.494025         3
        23        21        24        48     9      180.000000        0.036456         4
        23        21        24        49     9        0.000000       -0.061187         1
        23        21        24        49     9      180.000000        0.065694         2
        23        21        24        49     9        0.000000        0.494025         3
        23        21        24        49     9      180.000000        0.036456         4
        24        21        20        25     9        0.000000       -1.912329         1
        24        21        20        25     9      180.000000        0.058451         2
        24        21        20        25     9        0.000000       -0.903713         3
        24        21        20        25     9      180.000000        0.910168         4
        24        21        22        41     9        0.000000       -0.061187         1
        24        21        22        41     9      180.000000        0.065694         2
        24        21        22        41     9        0.000000        0.494025         3
        24        21        22        41     9      180.000000        0.036456         4
        24        21        22        42     9        0.000000       -0.061187         1
        24        21        22        42     9      180.000000        0.065694         2
        24        21        22        42     9        0.000000        0.494025         3
        24        21        22        42     9      180.000000        0.036456         4
        24        21        22        43     9        0.000000       -0.061187         1
        24        21        22        43     9      180.000000        0.065694         2
        24        21        22        43     9        0.000000        0.494025         3
        24        21        22        43     9      180.000000        0.036456         4
        24        21        23        44     9        0.000000       -0.061187         1
        24        21        23        44     9      180.000000        0.065694         2
        24        21        23        44     9        0.000000        0.494025         3
        24        21        23        44     9      180.000000        0.036456         4
        24        21        23        45     9        0.000000       -0.061187         1
        24        21        23        45     9      180.000000        0.065694         2
        24        21        23        45     9        0.000000        0.494025         3
        24        21        23        45     9      180.000000        0.036456         4
        24        21        23        46     9        0.000000       -0.061187         1
        24        21        23        46     9      180.000000        0.065694         2
        24        21        23        46     9        0.000000        0.494025         3
        24        21        23        46     9      180.000000        0.036456         4
        25        20        19        28     9        0.000000       -0.016313         1
        25        20        19        28     9      180.000000       17.076509         2
        25        20        19        28     9        0.000000       -1.162651         3
        25        20        19        28     9      180.000000       -0.505586         4
        25        26        27        28     9        0.000000       -0.046212         1
        25        26        27        28     9      180.000000       18.998352         2
        25        26        27        28     9        0.000000       -1.759822         3
        25        26        27        28     9      180.000000       -0.486639         4
        25        26        27        52     9        0.000000        0.077395         1
        25        26        27        52     9      180.000000       14.165860         2
        25        26        27        52     9        0.000000       -0.820378         3
        25        26        27        52     9      180.000000        0.059496         4
        26        27        28        53     9        0.000000        0.092324         1
        26        27        28        53     9      180.000000       14.744499         2
        26        27        28        53     9        0.000000       -0.765191         3
        26        27        28        53     9      180.000000        0.067970         4
        27        26        25        50     9        0.000000        0.088830         1
        27        26        25        50     9      180.000000       14.583088         2
        27        26        25        50     9        0.000000       -0.782752         3
        27        26        25        50     9      180.000000        0.145219         4
        28        27        26        51     9        0.000000        0.116561         1
        28        27        26        51     9      180.000000       14.687738         2
        28        27        26        51     9        0.000000       -0.757759         3
        28        27        26        51     9      180.000000        0.005779         4
        31         9        10        32     9        0.000000       -0.150043         1
        31         9        10        32     9      180.000000       12.163859         2
        31         9        10        32     9        0.000000       -0.638845         3
        31         9        10        32     9      180.000000        0.290550         4
        36        13        14        37     9        0.000000       -0.150043         1
        36        13        14        37     9      180.000000       12.163859         2
        36        13        14        37     9        0.000000       -0.638845         3
        36        13        14        37     9      180.000000        0.290550         4
        38        15        16        39     9        0.000000       -0.126314         1
        38        15        16        39     9      180.000000       12.054475         2
        38        15        16        39     9        0.000000       -0.706504         3
        38        15        16        39     9      180.000000        0.268618         4
        39        16        17        40     9        0.000000       -0.119421         1
        39        16        17        40     9      180.000000       11.729447         2
        39        16        17        40     9        0.000000       -0.694268         3
        39        16        17        40     9      180.000000        0.274360         4
        50        25        26        51     9        0.000000       -0.261970         1
        50        25        26        51     9      180.000000       11.297869         2
        50        25        26        51     9        0.000000       -0.720158         3
        50        25        26        51     9      180.000000        0.301235         4
        51        26        27        52     9        0.000000       -0.054022         1
        51        26        27        52     9      180.000000       11.769072         2
        51        26        27        52     9        0.000000       -0.544844         3
        51        26        27        52     9      180.000000        0.146010         4
        52        27        28        53     9        0.000000       -0.023910         1
        52        27        28        53     9      180.000000       12.128098         2
        52        27        28        53     9        0.000000       -0.683097         3
        52        27        28        53     9      180.000000        0.193932         4

[ dihedrals ] ; impropers
;       ai        aj        ak        al funct           phase               k        pn
         5         4         6         7     4      180.000000       19.280334         2
         5         6         7         4     4      180.000000       19.280334         2
         5         7         4         6     4      180.000000       19.280334         2
        17        16        18        40     4      180.000000        1.356871         2
        17        18        40        16     4      180.000000        1.356871         2
        17        40        16        18     4      180.000000        1.356871         2
        25        20        26        50     4      180.000000        0.400472         2
        25        26        50        20     4      180.000000        0.400472         2
        25        50        20        26     4      180.000000        0.400472         2
        26        25        27        51     4      180.000000        2.400441         2
        26        27        51        25     4      180.000000        2.400441         2
        26        51        25        27     4      180.000000        2.400441         2
        28        19        27        53     4      180.000000        1.015118         2
        28        27        53        19     4      180.000000        1.015118         2
        28        53        19        27     4      180.000000        1.015118         2

[ pairs ]
;       ai        aj funct
         1         4     1
         1        15     1
         1        17     1
         1        21     1
         1        25     1
         1        27     1
         1        53     1
         2         5     1
         2        16     1
         2        20     1
         2        28     1
         2        29     1
         2        38     1
         2        40     1
         3         6     1
         3         7     1
         3        17     1
         3        19     1
         3        39     1
         4         8     1
         4        16     1
         4        18     1
         4        30     1
         4        38     1
         5         9     1
         5        14     1
         5        15     1
         6         8     1
         6        29     1
         6        30     1
         7        10     1
         7        13     1
         7        29     1
         7        31     1
         7        37     1
         8        11     1
         8        32     1
         8        36     1
         9        12     1
         9        13     1
         9        30     1
         9        37     1
        10        14     1
        10        33     1
        10        34     1
        10        35     1
        10        36     1
        11        31     1
        11        37     1
        12        14     1
        12        32     1
        12        36     1
        13        32     1
        13        33     1
        13        34     1
        13        35     1
        14        30     1
        14        31     1
        15        18     1
        15        29     1
        15        40     1
        17        38     1
        18        19     1
        18        39     1
        19        22     1
        19        23     1
        19        24     1
        19        26     1
        19        50     1
        19        52     1
        20        27     1
        20        41     1
        20        42     1
        20        43     1
        20        44     1
        20        45     1
        20        46     1
        20        47     1
        20        48     1
        20        49     1
        20        51     1
        20        53     1
        21        26     1
        21        28     1
        21        50     1
        22        25     1
        22        44     1
        22        45     1
        22        46     1
        22        47     1
        22        48     1
        22        49     1
        23        25     1
        23        41     1
        23        42     1
        23        43     1
        23        47     1
        23        48     1
        23        49     1
        24        25     1
        24        41     1
        24        42     1
        24        43     1
        24        44     1
        24        45     1
        24        46     1
        25        28     1
        25        52     1
        26        53     1
        27        50     1
        28        51     1
        31        32     1
        36        37     1
        38        39     1
        39        40     1
        50        51     1
        51        52     1
        52        53     1
