; ITP file created by ByteFF-ML, 2026-03-15 01:35:57.405229

[ atomtypes ]
;name           bonded.type        at.num        mass        charge   ptype           sigma         epsilon
 f0bf                                   9      0.0000       0.00000       A     3.03474e-01     3.50336e-01
 c1bf                                   6      0.0000       0.00000       A     3.39967e-01     4.52452e-01
 f2bf                                   9      0.0000       0.00000       A     3.03474e-01     3.50336e-01
 f3bf                                   9      0.0000       0.00000       A     3.03474e-01     3.50336e-01
 o4bf                                   8      0.0000       0.00000       A     3.15884e-01     3.02398e-01
 c5bf                                   6      0.0000       0.00000       A     3.31648e-01     4.14415e-01
 c6bf                                   6      0.0000       0.00000       A     3.31536e-01     4.12702e-01
 c7bf                                   6      0.0000       0.00000       A     3.31448e-01     4.11586e-01
 c8bf                                   6      0.0000       0.00000       A     3.31536e-01     4.12702e-01
 c9bf                                   6      0.0000       0.00000       A     3.31448e-01     4.11586e-01
 c10bf                                  6      0.0000       0.00000       A     3.31332e-01     4.11216e-01
 n11bf                                  7      0.0000       0.00000       A     3.27155e-01     4.89269e-01
 c12bf                                  6      0.0000       0.00000       A     3.31259e-01     4.14898e-01
 o13bf                                  8      0.0000       0.00000       A     3.04781e-01     6.14498e-01
 n14bf                                  7      0.0000       0.00000       A     3.26853e-01     4.96157e-01
 c15bf                                  6      0.0000       0.00000       A     3.31219e-01     4.13182e-01
 c16bf                                  6      0.0000       0.00000       A     3.31584e-01     4.13224e-01
 c17bf                                  6      0.0000       0.00000       A     3.31481e-01     4.12981e-01
 c18bf                                  6      0.0000       0.00000       A     3.31514e-01     4.12560e-01
 n19bf                                  7      0.0000       0.00000       A     3.38247e-01     3.91955e-01
 c20bf                                  6      0.0000       0.00000       A     3.31208e-01     4.10335e-01
 o21bf                                  8      0.0000       0.00000       A     3.15742e-01     3.05642e-01
 c22bf                                  6      0.0000       0.00000       A     3.31255e-01     4.12866e-01
 c23bf                                  6      0.0000       0.00000       A     3.31485e-01     4.13340e-01
 c24bf                                  6      0.0000       0.00000       A     3.31526e-01     4.13154e-01
 c25bf                                  6      0.0000       0.00000       A     3.31490e-01     4.13128e-01
 c26bf                                  6      0.0000       0.00000       A     3.31544e-01     4.12464e-01
 c27bf                                  6      0.0000       0.00000       A     3.31338e-01     4.11687e-01
 c28bf                                  6      0.0000       0.00000       A     3.40026e-01     4.53091e-01
 c29bf                                  6      0.0000       0.00000       A     3.39784e-01     4.50368e-01
 c30bf                                  6      0.0000       0.00000       A     3.39784e-01     4.50368e-01
 c31bf                                  6      0.0000       0.00000       A     3.39784e-01     4.50368e-01
 h32bf                                  1      0.0000       0.00000       A     2.62481e-01     6.70078e-02
 h33bf                                  1      0.0000       0.00000       A     2.62511e-01     6.75999e-02
 h34bf                                  1      0.0000       0.00000       A     2.62481e-01     6.70078e-02
 h35bf                                  1      0.0000       0.00000       A     2.62511e-01     6.75999e-02
 h36bf                                  1      0.0000       0.00000       A     1.10460e-01     4.18649e-02
 h37bf                                  1      0.0000       0.00000       A     1.10974e-01     4.12520e-02
 h38bf                                  1      0.0000       0.00000       A     2.62621e-01     6.73062e-02
 h39bf                                  1      0.0000       0.00000       A     2.62506e-01     6.74403e-02
 h40bf                                  1      0.0000       0.00000       A     2.53538e-01     6.71594e-02
 h41bf                                  1      0.0000       0.00000       A     2.62444e-01     6.72089e-02
 h42bf                                  1      0.0000       0.00000       A     2.62489e-01     6.72695e-02
 h43bf                                  1      0.0000       0.00000       A     2.62458e-01     6.72983e-02
 h44bf                                  1      0.0000       0.00000       A     2.62611e-01     6.81170e-02
 h45bf                                  1      0.0000       0.00000       A     2.59968e-01     8.75795e-02
 h46bf                                  1      0.0000       0.00000       A     2.59968e-01     8.75795e-02
 h47bf                                  1      0.0000       0.00000       A     2.59968e-01     8.75795e-02
 h48bf                                  1      0.0000       0.00000       A     2.59968e-01     8.75795e-02
 h49bf                                  1      0.0000       0.00000       A     2.59968e-01     8.75795e-02
 h50bf                                  1      0.0000       0.00000       A     2.59968e-01     8.75795e-02
 h51bf                                  1      0.0000       0.00000       A     2.59968e-01     8.75795e-02
 h52bf                                  1      0.0000       0.00000       A     2.59968e-01     8.75795e-02
 h53bf                                  1      0.0000       0.00000       A     2.59968e-01     8.75795e-02

[ moleculetype ]
;name             nrexcl
 16                    3

[ atoms ]
;       nr            type      resi   res      atom      cgnr      charge          mass ; qtot
         1            f0bf         1   UNL        f0         1    -0.09106       18.9980 ; qtot   -0.091
         2            c1bf         1   UNL        c1         2     0.49711       12.0110 ; qtot    0.406
         3            f2bf         1   UNL        f2         3    -0.09106       18.9980 ; qtot    0.315
         4            f3bf         1   UNL        f3         4    -0.09106       18.9980 ; qtot    0.224
         5            o4bf         1   UNL        o4         5    -0.38246       15.9990 ; qtot   -0.159
         6            c5bf         1   UNL        c5         6     0.07653       12.0110 ; qtot   -0.082
         7            c6bf         1   UNL        c6         7    -0.08838       12.0110 ; qtot   -0.170
         8            c7bf         1   UNL        c7         8    -0.12373       12.0110 ; qtot   -0.294
         9            c8bf         1   UNL        c8         9    -0.08838       12.0110 ; qtot   -0.382
        10            c9bf         1   UNL        c9        10    -0.12373       12.0110 ; qtot   -0.506
        11           c10bf         1   UNL       c10        11    -0.04617       12.0110 ; qtot   -0.552
        12           n11bf         1   UNL       n11        12    -0.16106       14.0070 ; qtot   -0.713
        13           c12bf         1   UNL       c12        13     0.65911       12.0110 ; qtot   -0.054
        14           o13bf         1   UNL       o13        14    -0.59569       15.9990 ; qtot   -0.650
        15           n14bf         1   UNL       n14        15    -0.15042       14.0070 ; qtot   -0.800
        16           c15bf         1   UNL       c15        16    -0.06851       12.0110 ; qtot   -0.869
        17           c16bf         1   UNL       c16        17    -0.08259       12.0110 ; qtot   -0.952
        18           c17bf         1   UNL       c17        18    -0.15962       12.0110 ; qtot   -1.111
        19           c18bf         1   UNL       c18        19     0.34178       12.0110 ; qtot   -0.769
        20           n19bf         1   UNL       n19        20    -0.70674       14.0070 ; qtot   -1.476
        21           c20bf         1   UNL       c20        21     0.51998       12.0110 ; qtot   -0.956
        22           o21bf         1   UNL       o21        22    -0.38057       15.9990 ; qtot   -1.337
        23           c22bf         1   UNL       c22        23     0.11071       12.0110 ; qtot   -1.226
        24           c23bf         1   UNL       c23        24    -0.11683       12.0110 ; qtot   -1.343
        25           c24bf         1   UNL       c24        25    -0.10124       12.0110 ; qtot   -1.444
        26           c25bf         1   UNL       c25        26    -0.12422       12.0110 ; qtot   -1.568
        27           c26bf         1   UNL       c26        27    -0.09398       12.0110 ; qtot   -1.662
        28           c27bf         1   UNL       c27        28    -0.06786       12.0110 ; qtot   -1.730
        29           c28bf         1   UNL       c28        29     0.00260       12.0110 ; qtot   -1.728
        30           c29bf         1   UNL       c29        30    -0.08869       12.0110 ; qtot   -1.816
        31           c30bf         1   UNL       c30        31    -0.08869       12.0110 ; qtot   -1.905
        32           c31bf         1   UNL       c31        32    -0.08869       12.0110 ; qtot   -1.994
        33           h32bf         1   UNL       h32        33     0.13323        1.0080 ; qtot   -1.860
        34           h33bf         1   UNL       h33        34     0.13135        1.0080 ; qtot   -1.729
        35           h34bf         1   UNL       h34        35     0.13323        1.0080 ; qtot   -1.596
        36           h35bf         1   UNL       h35        36     0.13135        1.0080 ; qtot   -1.464
        37           h36bf         1   UNL       h36        37     0.15557        1.0080 ; qtot   -1.309
        38           h37bf         1   UNL       h37        38     0.17579        1.0080 ; qtot   -1.133
        39           h38bf         1   UNL       h38        39     0.15134        1.0080 ; qtot   -0.982
        40           h39bf         1   UNL       h39        40     0.12997        1.0080 ; qtot   -0.852
        41           h40bf         1   UNL       h40        41     0.02910        1.0080 ; qtot   -0.823
        42           h41bf         1   UNL       h41        42     0.13056        1.0080 ; qtot   -0.692
        43           h42bf         1   UNL       h42        43     0.11856        1.0080 ; qtot   -0.574
        44           h43bf         1   UNL       h43        44     0.11707        1.0080 ; qtot   -0.456
        45           h44bf         1   UNL       h44        45     0.11854        1.0080 ; qtot   -0.338
        46           h45bf         1   UNL       h45        46     0.03755        1.0080 ; qtot   -0.300
        47           h46bf         1   UNL       h46        47     0.03755        1.0080 ; qtot   -0.263
        48           h47bf         1   UNL       h47        48     0.03755        1.0080 ; qtot   -0.225
        49           h48bf         1   UNL       h48        49     0.03755        1.0080 ; qtot   -0.188
        50           h49bf         1   UNL       h49        50     0.03755        1.0080 ; qtot   -0.150
        51           h50bf         1   UNL       h50        51     0.03755        1.0080 ; qtot   -0.113
        52           h51bf         1   UNL       h51        52     0.03755        1.0080 ; qtot   -0.075
        53           h52bf         1   UNL       h52        53     0.03755        1.0080 ; qtot   -0.038
        54           h53bf         1   UNL       h53        54     0.03755        1.0080 ; qtot   -0.000

[ bonds ]
;       ai        aj funct               r               k
         1         2     1        0.134864   220029.317676
         2         3     1        0.134864   220029.317676
         2         4     1        0.134864   220029.317676
         2         5     1        0.135666   213729.746924
         5         6     1        0.140967   208707.567920
         6         7     1        0.139445   303670.628955
         6         9     1        0.139445   303670.628955
         7         8     1        0.139533   327862.417871
         7        33     1        0.108428   324148.070850
         8        11     1        0.140323   287297.919873
         8        34     1        0.108425   324344.732129
         9        10     1        0.139533   327862.417871
         9        35     1        0.108428   324148.070850
        10        11     1        0.140323   287297.919873
        10        36     1        0.108425   324344.732129
        11        12     1        0.141474   245196.981689
        12        13     1        0.138361   251727.561133
        12        37     1        0.101091   419225.921191
        13        14     1        0.122725   593985.707227
        13        15     1        0.138886   239709.822998
        15        16     1        0.140423   262254.059766
        15        38     1        0.101419   408858.186768
        16        17     1        0.139669   302796.953369
        16        21     1        0.141493   241217.048730
        17        18     1        0.140003   313082.713672
        17        39     1        0.108193   330892.421436
        18        19     1        0.139139   305686.196387
        18        40     1        0.108503   324361.765381
        19        20     1        0.134429   311714.895020
        19        41     1        0.108728   317581.203174
        20        21     1        0.131662   340536.893848
        21        22     1        0.137663   229905.871338
        22        23     1        0.140037   213875.104150
        23        24     1        0.139477   301838.494580
        23        28     1        0.140637   264626.457227
        24        25     1        0.139712   313962.160645
        24        42     1        0.108489   322366.959619
        25        26     1        0.139644   310884.734668
        25        43     1        0.108603   320355.963330
        26        27     1        0.139724   313549.583105
        26        44     1        0.108597   320113.718311
        27        28     1        0.140460   285776.137988
        27        45     1        0.108432   321056.267480
        28        29     1        0.154074   154117.565942
        29        30     1        0.154643   167727.121484
        29        31     1        0.154643   167727.121484
        29        32     1        0.154643   167727.121484
        30        46     1        0.109358   300126.563379
        30        47     1        0.109358   300126.563379
        30        48     1        0.109358   300126.563379
        31        49     1        0.109358   300126.563379
        31        50     1        0.109358   300126.563379
        31        51     1        0.109358   300126.563379
        32        52     1        0.109358   300126.563379
        32        53     1        0.109358   300126.563379
        32        54     1        0.109358   300126.563379

[ angles ]
;       ai        aj        ak funct           theta             cth
         1         2         3     1      107.789635      688.122566
         1         2         4     1      107.789635      688.122566
         1         2         5     1      111.080368      593.957029
         2         5         6     1      118.483994      469.942378
         3         2         4     1      107.789635      688.122566
         3         2         5     1      111.080368      593.957029
         4         2         5     1      111.080368      593.957029
         5         6         7     1      119.493362      546.119447
         5         6         9     1      119.493362      546.119447
         6         7         8     1      119.667404      663.781423
         6         7        33     1      120.110886      439.898256
         6         9        10     1      119.667404      663.781423
         6         9        35     1      120.110886      439.898256
         7         6         9     1      120.773544      544.974746
         7         8        11     1      120.400551      726.947719
         7         8        34     1      119.827530      395.021383
         8         7        33     1      119.990219      422.360965
         8        11        10     1      118.693748      466.142839
         8        11        12     1      120.710670      608.998514
         9        10        11     1      120.400551      726.947719
         9        10        36     1      119.827530      395.021383
        10         9        35     1      119.990219      422.360965
        10        11        12     1      120.710670      608.998514
        11         8        34     1      119.781570      445.987420
        11        10        36     1      119.781570      445.987420
        11        12        13     1      128.318619      460.296756
        11        12        37     1      114.794296      450.963581
        12        13        14     1      124.614891      546.971110
        12        13        15     1      112.608353      544.959169
        13        12        37     1      116.246033      460.361812
        13        15        16     1      126.276352      452.689443
        13        15        38     1      117.628128      436.697498
        14        13        15     1      123.886490      550.707764
        15        16        17     1      125.502136      569.232127
        15        16        21     1      117.570374      431.330396
        16        15        38     1      114.048378      434.130349
        16        17        18     1      118.717087      830.537407
        16        17        39     1      119.480087      442.212844
        16        21        20     1      124.240524      669.889964
        16        21        22     1      117.118675      362.481136
        17        16        21     1      116.908203      645.538159
        17        18        19     1      119.055466      724.682960
        17        18        40     1      120.423485      439.039411
        18        17        39     1      121.786972      385.096928
        18        19        20     1      122.499290      661.638158
        18        19        41     1      121.265182      408.189115
        19        18        40     1      120.600418      442.820723
        19        20        21     1      118.225052      718.639029
        20        19        41     1      116.190018      392.705135
        20        21        22     1      119.259598      570.701660
        21        22        23     1      119.146523      455.886242
        22        23        24     1      117.316177      496.941742
        22        23        28     1      119.750610      417.072421
        23        24        25     1      119.745117      680.162075
        23        24        42     1      119.102554      397.245633
        23        28        27     1      116.001907      690.525097
        23        28        29     1      122.997574      478.825908
        24        23        28     1      122.352585      652.146461
        24        25        26     1      119.495224      703.985197
        24        25        43     1      119.866898      428.281169
        25        24        42     1      121.269363      424.147158
        25        26        27     1      119.784180      703.986219
        25        26        44     1      120.401512      433.041382
        26        25        43     1      120.649620      419.172178
        26        27        28     1      122.479416      701.606160
        26        27        45     1      118.546585      425.325888
        27        26        44     1      119.846458      433.781001
        27        28        29     1      121.360046      477.205419
        28        27        45     1      119.045700      386.005985
        28        29        30     1      110.513222      621.430937
        28        29        31     1      110.513222      621.430937
        28        29        32     1      110.513222      621.430937
        29        30        46     1      110.917320      475.023784
        29        30        47     1      110.917320      475.023784
        29        30        48     1      110.917320      475.023784
        29        31        49     1      110.917320      475.023784
        29        31        50     1      110.917320      475.023784
        29        31        51     1      110.917320      475.023784
        29        32        52     1      110.917320      475.023784
        29        32        53     1      110.917320      475.023784
        29        32        54     1      110.917320      475.023784
        30        29        31     1      108.242996      568.694444
        30        29        32     1      108.242996      568.694444
        31        29        32     1      108.242996      568.694444
        46        30        47     1      107.976624      360.978565
        46        30        48     1      107.976624      360.978565
        47        30        48     1      107.976624      360.978565
        49        31        50     1      107.976624      360.978565
        49        31        51     1      107.976624      360.978565
        50        31        51     1      107.976624      360.978565
        52        32        53     1      107.976624      360.978565
        52        32        54     1      107.976624      360.978565
        53        32        54     1      107.976624      360.978565

[ dihedrals ] ; propers for gromacs 4.5 or higher, use funct 9
;       ai        aj        ak        al funct           phase               k        pn
         1         2         5         6     9        0.000000        0.116565         1
         1         2         5         6     9      180.000000       -0.194264         2
         1         2         5         6     9        0.000000        1.252707         3
         1         2         5         6     9      180.000000       -0.000549         4
         2         5         6         7     9        0.000000       -0.154584         1
         2         5         6         7     9      180.000000        1.828369         2
         2         5         6         7     9        0.000000        0.069046         3
         2         5         6         7     9      180.000000        0.005501         4
         2         5         6         9     9        0.000000       -0.154584         1
         2         5         6         9     9      180.000000        1.828369         2
         2         5         6         9     9        0.000000        0.069046         3
         2         5         6         9     9      180.000000        0.005501         4
         3         2         5         6     9        0.000000        0.116565         1
         3         2         5         6     9      180.000000       -0.194264         2
         3         2         5         6     9        0.000000        1.252707         3
         3         2         5         6     9      180.000000       -0.000549         4
         4         2         5         6     9        0.000000        0.116565         1
         4         2         5         6     9      180.000000       -0.194264         2
         4         2         5         6     9        0.000000        1.252707         3
         4         2         5         6     9      180.000000       -0.000549         4
         5         6         7         8     9        0.000000        0.581631         1
         5         6         7         8     9      180.000000       18.503697         2
         5         6         7         8     9        0.000000        0.353274         3
         5         6         7         8     9      180.000000       -0.409629         4
         5         6         7        33     9        0.000000        0.207380         1
         5         6         7        33     9      180.000000       13.499283         2
         5         6         7        33     9        0.000000        0.095434         3
         5         6         7        33     9      180.000000        0.194477         4
         5         6         9        10     9        0.000000        0.581631         1
         5         6         9        10     9      180.000000       18.503697         2
         5         6         9        10     9        0.000000        0.353274         3
         5         6         9        10     9      180.000000       -0.409629         4
         5         6         9        35     9        0.000000        0.207380         1
         5         6         9        35     9      180.000000       13.499283         2
         5         6         9        35     9        0.000000        0.095434         3
         5         6         9        35     9      180.000000        0.194477         4
         6         7         8        11     9        0.000000       -0.107607         1
         6         7         8        11     9      180.000000       18.778119         2
         6         7         8        11     9        0.000000       -1.598431         3
         6         7         8        11     9      180.000000       -0.560085         4
         6         7         8        34     9        0.000000        0.153718         1
         6         7         8        34     9      180.000000       14.866393         2
         6         7         8        34     9        0.000000       -0.371659         3
         6         7         8        34     9      180.000000        0.067469         4
         6         9        10        11     9        0.000000       -0.107607         1
         6         9        10        11     9      180.000000       18.778119         2
         6         9        10        11     9        0.000000       -1.598431         3
         6         9        10        11     9      180.000000       -0.560085         4
         6         9        10        36     9        0.000000        0.153718         1
         6         9        10        36     9      180.000000       14.866393         2
         6         9        10        36     9        0.000000       -0.371659         3
         6         9        10        36     9      180.000000        0.067469         4
         7         6         9        10     9        0.000000       -0.016255         1
         7         6         9        10     9      180.000000       16.814130         2
         7         6         9        10     9        0.000000       -1.195827         3
         7         6         9        10     9      180.000000       -0.326129         4
         7         6         9        35     9        0.000000        0.081828         1
         7         6         9        35     9      180.000000       12.724010         2
         7         6         9        35     9        0.000000       -0.580575         3
         7         6         9        35     9      180.000000        0.149684         4
         7         8        11        10     9        0.000000        0.007993         1
         7         8        11        10     9      180.000000       16.292045         2
         7         8        11        10     9        0.000000       -1.291468         3
         7         8        11        10     9      180.000000       -0.162802         4
         7         8        11        12     9        0.000000        0.317688         1
         7         8        11        12     9      180.000000       16.922223         2
         7         8        11        12     9        0.000000        0.094846         3
         7         8        11        12     9      180.000000       -0.239036         4
         8         7         6         9     9        0.000000       -0.016255         1
         8         7         6         9     9      180.000000       16.814130         2
         8         7         6         9     9        0.000000       -1.195827         3
         8         7         6         9     9      180.000000       -0.326129         4
         8        11        10         9     9        0.000000        0.007993         1
         8        11        10         9     9      180.000000       16.292045         2
         8        11        10         9     9        0.000000       -1.291468         3
         8        11        10         9     9      180.000000       -0.162802         4
         8        11        10        36     9        0.000000        0.169199         1
         8        11        10        36     9      180.000000       12.671208         2
         8        11        10        36     9        0.000000       -0.507607         3
         8        11        10        36     9      180.000000        0.121684         4
         8        11        12        13     9        0.000000        0.050802         1
         8        11        12        13     9      180.000000        1.652055         2
         8        11        12        13     9        0.000000       -0.187637         3
         8        11        12        13     9      180.000000        0.312775         4
         8        11        12        37     9        0.000000        0.020986         1
         8        11        12        37     9      180.000000        1.736250         2
         8        11        12        37     9        0.000000       -0.027645         3
         8        11        12        37     9      180.000000       -0.037843         4
         9         6         7        33     9        0.000000        0.081828         1
         9         6         7        33     9      180.000000       12.724010         2
         9         6         7        33     9        0.000000       -0.580575         3
         9         6         7        33     9      180.000000        0.149684         4
         9        10        11        12     9        0.000000        0.317688         1
         9        10        11        12     9      180.000000       16.922223         2
         9        10        11        12     9        0.000000        0.094846         3
         9        10        11        12     9      180.000000       -0.239036         4
        10        11         8        34     9        0.000000        0.169199         1
        10        11         8        34     9      180.000000       12.671208         2
        10        11         8        34     9        0.000000       -0.507607         3
        10        11         8        34     9      180.000000        0.121684         4
        10        11        12        13     9        0.000000        0.050802         1
        10        11        12        13     9      180.000000        1.652055         2
        10        11        12        13     9        0.000000       -0.187637         3
        10        11        12        13     9      180.000000        0.312775         4
        10        11        12        37     9        0.000000        0.020986         1
        10        11        12        37     9      180.000000        1.736250         2
        10        11        12        37     9        0.000000       -0.027645         3
        10        11        12        37     9      180.000000       -0.037843         4
        11         8         7        33     9        0.000000        0.070366         1
        11         8         7        33     9      180.000000       14.433512         2
        11         8         7        33     9        0.000000       -0.509098         3
        11         8         7        33     9      180.000000        0.047992         4
        11        10         9        35     9        0.000000        0.070366         1
        11        10         9        35     9      180.000000       14.433512         2
        11        10         9        35     9        0.000000       -0.509098         3
        11        10         9        35     9      180.000000        0.047992         4
        11        12        13        14     9        0.000000       -3.326496         1
        11        12        13        14     9      180.000000        4.659211         2
        11        12        13        14     9        0.000000       -0.615636         3
        11        12        13        14     9      180.000000       -0.229728         4
        11        12        13        15     9        0.000000        6.364926         1
        11        12        13        15     9      180.000000        5.766824         2
        11        12        13        15     9        0.000000       -0.023160         3
        11        12        13        15     9      180.000000       -0.123542         4
        12        11         8        34     9        0.000000       -0.080423         1
        12        11         8        34     9      180.000000       13.134664         2
        12        11         8        34     9        0.000000       -0.285581         3
        12        11         8        34     9      180.000000        0.234510         4
        12        11        10        36     9        0.000000       -0.080423         1
        12        11        10        36     9      180.000000       13.134664         2
        12        11        10        36     9        0.000000       -0.285581         3
        12        11        10        36     9      180.000000        0.234510         4
        12        13        15        16     9        0.000000        5.532906         1
        12        13        15        16     9      180.000000        6.358717         2
        12        13        15        16     9        0.000000       -0.051282         3
        12        13        15        16     9      180.000000       -0.158612         4
        12        13        15        38     9        0.000000        4.448997         1
        12        13        15        38     9      180.000000        6.844592         2
        12        13        15        38     9        0.000000       -0.391998         3
        12        13        15        38     9      180.000000        0.190844         4
        13        15        16        17     9        0.000000       -0.468536         1
        13        15        16        17     9      180.000000        1.875921         2
        13        15        16        17     9        0.000000       -0.412224         3
        13        15        16        17     9      180.000000        0.469219         4
        13        15        16        21     9        0.000000       -1.944439         1
        13        15        16        21     9      180.000000        1.909133         2
        13        15        16        21     9        0.000000        0.330250         3
        13        15        16        21     9      180.000000       -0.057143         4
        14        13        12        37     9        0.000000       -1.928212         1
        14        13        12        37     9      180.000000        5.896342         2
        14        13        12        37     9        0.000000        0.137627         3
        14        13        12        37     9      180.000000        0.130541         4
        14        13        15        16     9        0.000000       -2.531743         1
        14        13        15        16     9      180.000000        4.872690         2
        14        13        15        16     9        0.000000       -0.696803         3
        14        13        15        16     9      180.000000       -0.176057         4
        14        13        15        38     9        0.000000       -2.204782         1
        14        13        15        38     9      180.000000        5.153814         2
        14        13        15        38     9        0.000000       -0.121162         3
        14        13        15        38     9      180.000000       -0.071652         4
        15        13        12        37     9        0.000000        4.782917         1
        15        13        12        37     9      180.000000        6.982784         2
        15        13        12        37     9        0.000000       -0.564199         3
        15        13        12        37     9      180.000000        0.312933         4
        15        16        17        18     9        0.000000        0.334774         1
        15        16        17        18     9      180.000000       18.629022         2
        15        16        17        18     9        0.000000        0.316335         3
        15        16        17        18     9      180.000000       -0.464757         4
        15        16        17        39     9        0.000000        0.246514         1
        15        16        17        39     9      180.000000       14.352630         2
        15        16        17        39     9        0.000000       -0.128549         3
        15        16        17        39     9      180.000000        0.162569         4
        15        16        21        20     9        0.000000        0.234045         1
        15        16        21        20     9      180.000000       12.396332         2
        15        16        21        20     9        0.000000       -0.098078         3
        15        16        21        20     9      180.000000       -0.323171         4
        15        16        21        22     9        0.000000        0.135572         1
        15        16        21        22     9      180.000000       15.700744         2
        15        16        21        22     9        0.000000        0.281100         3
        15        16        21        22     9      180.000000       -0.360056         4
        16        17        18        19     9        0.000000        0.066167         1
        16        17        18        19     9      180.000000       18.396385         2
        16        17        18        19     9        0.000000       -2.102023         3
        16        17        18        19     9      180.000000       -0.535986         4
        16        17        18        40     9        0.000000        0.126273         1
        16        17        18        40     9      180.000000       15.018722         2
        16        17        18        40     9        0.000000       -0.647982         3
        16        17        18        40     9      180.000000       -0.080098         4
        16        21        20        19     9        0.000000        0.153022         1
        16        21        20        19     9      180.000000       23.194028         2
        16        21        20        19     9        0.000000       -0.202035         3
        16        21        20        19     9      180.000000       -0.076951         4
        16        21        22        23     9        0.000000        3.044134         1
        16        21        22        23     9      180.000000        3.433018         2
        16        21        22        23     9        0.000000       -0.041464         3
        16        21        22        23     9      180.000000       -0.210307         4
        17        16        15        38     9        0.000000        0.403979         1
        17        16        15        38     9      180.000000        2.149404         2
        17        16        15        38     9        0.000000        0.432385         3
        17        16        15        38     9      180.000000       -0.165767         4
        17        16        21        20     9        0.000000        0.070432         1
        17        16        21        20     9      180.000000       10.895454         2
        17        16        21        20     9        0.000000       -0.483942         3
        17        16        21        20     9      180.000000       -0.111193         4
        17        16        21        22     9        0.000000        0.396489         1
        17        16        21        22     9      180.000000       12.751312         2
        17        16        21        22     9        0.000000        0.237587         3
        17        16        21        22     9      180.000000       -0.055174         4
        17        18        19        20     9        0.000000        0.100606         1
        17        18        19        20     9      180.000000       20.168024         2
        17        18        19        20     9        0.000000       -1.195335         3
        17        18        19        20     9      180.000000       -0.567771         4
        17        18        19        41     9        0.000000        0.082490         1
        17        18        19        41     9      180.000000       14.362334         2
        17        18        19        41     9        0.000000       -0.749614         3
        17        18        19        41     9      180.000000        0.097546         4
        18        17        16        21     9        0.000000        0.032265         1
        18        17        16        21     9      180.000000       17.762492         2
        18        17        16        21     9        0.000000       -1.200442         3
        18        17        16        21     9      180.000000       -0.505589         4
        18        19        20        21     9        0.000000        0.073191         1
        18        19        20        21     9      180.000000       22.238222         2
        18        19        20        21     9        0.000000       -1.107264         3
        18        19        20        21     9      180.000000       -0.348061         4
        19        18        17        39     9        0.000000        0.167050         1
        19        18        17        39     9      180.000000       14.479790         2
        19        18        17        39     9        0.000000       -0.751910         3
        19        18        17        39     9      180.000000        0.148426         4
        19        20        21        22     9        0.000000        0.892029         1
        19        20        21        22     9      180.000000       29.800159         2
        19        20        21        22     9        0.000000        1.267221         3
        19        20        21        22     9      180.000000       -0.713332         4
        20        19        18        40     9        0.000000        0.174485         1
        20        19        18        40     9      180.000000       15.688095         2
        20        19        18        40     9        0.000000       -0.259874         3
        20        19        18        40     9      180.000000       -0.156477         4
        20        21        22        23     9        0.000000       -3.201006         1
        20        21        22        23     9      180.000000        4.917193         2
        20        21        22        23     9        0.000000       -0.451392         3
        20        21        22        23     9      180.000000       -0.108910         4
        21        16        15        38     9        0.000000        1.829921         1
        21        16        15        38     9      180.000000        1.552928         2
        21        16        15        38     9        0.000000        0.507373         3
        21        16        15        38     9      180.000000       -0.389573         4
        21        16        17        39     9        0.000000        0.124033         1
        21        16        17        39     9      180.000000       13.604566         2
        21        16        17        39     9        0.000000       -0.394720         3
        21        16        17        39     9      180.000000        0.035207         4
        21        20        19        41     9        0.000000        1.067231         1
        21        20        19        41     9      180.000000       19.818808         2
        21        20        19        41     9        0.000000        0.282233         3
        21        20        19        41     9      180.000000       -0.593204         4
        21        22        23        24     9        0.000000        0.018104         1
        21        22        23        24     9      180.000000        3.266156         2
        21        22        23        24     9        0.000000       -1.116922         3
        21        22        23        24     9      180.000000        0.463487         4
        21        22        23        28     9        0.000000       -0.062335         1
        21        22        23        28     9      180.000000        2.731476         2
        21        22        23        28     9        0.000000        0.252334         3
        21        22        23        28     9      180.000000        0.023681         4
        22        23        24        25     9        0.000000        0.683589         1
        22        23        24        25     9      180.000000       19.785588         2
        22        23        24        25     9        0.000000        0.782650         3
        22        23        24        25     9      180.000000       -0.456758         4
        22        23        24        42     9        0.000000        0.175957         1
        22        23        24        42     9      180.000000       14.909059         2
        22        23        24        42     9        0.000000        0.214095         3
        22        23        24        42     9      180.000000        0.230273         4
        22        23        28        27     9        0.000000        0.557041         1
        22        23        28        27     9      180.000000       17.113684         2
        22        23        28        27     9        0.000000        0.396198         3
        22        23        28        27     9      180.000000       -0.414864         4
        22        23        28        29     9        0.000000       -0.080874         1
        22        23        28        29     9      180.000000       15.639035         2
        22        23        28        29     9        0.000000        0.141130         3
        22        23        28        29     9      180.000000       -0.458068         4
        23        24        25        26     9        0.000000       -0.119129         1
        23        24        25        26     9      180.000000       19.051182         2
        23        24        25        26     9        0.000000       -1.610473         3
        23        24        25        26     9      180.000000       -0.561313         4
        23        24        25        43     9        0.000000        0.121161         1
        23        24        25        43     9      180.000000       14.648118         2
        23        24        25        43     9        0.000000       -0.492555         3
        23        24        25        43     9      180.000000       -0.054853         4
        23        28        27        26     9        0.000000       -0.179930         1
        23        28        27        26     9      180.000000       19.709896         2
        23        28        27        26     9        0.000000       -1.412088         3
        23        28        27        26     9      180.000000       -0.578602         4
        23        28        27        45     9        0.000000        0.059419         1
        23        28        27        45     9      180.000000       15.339232         2
        23        28        27        45     9        0.000000       -0.427821         3
        23        28        27        45     9      180.000000       -0.054551         4
        23        28        29        30     9        0.000000        0.403573         1
        23        28        29        30     9      180.000000        0.050783         2
        23        28        29        30     9        0.000000        0.432833         3
        23        28        29        30     9      180.000000        0.162500         4
        23        28        29        31     9        0.000000        0.403573         1
        23        28        29        31     9      180.000000        0.050783         2
        23        28        29        31     9        0.000000        0.432833         3
        23        28        29        31     9      180.000000        0.162500         4
        23        28        29        32     9        0.000000        0.403573         1
        23        28        29        32     9      180.000000        0.050783         2
        23        28        29        32     9        0.000000        0.432833         3
        23        28        29        32     9      180.000000        0.162500         4
        24        23        28        27     9        0.000000       -0.215023         1
        24        23        28        27     9      180.000000       16.811097         2
        24        23        28        27     9        0.000000       -1.033032         3
        24        23        28        27     9      180.000000       -0.428825         4
        24        23        28        29     9        0.000000        0.067550         1
        24        23        28        29     9      180.000000       11.797805         2
        24        23        28        29     9        0.000000        0.088337         3
        24        23        28        29     9      180.000000       -0.150688         4
        24        25        26        27     9        0.000000        0.000675         1
        24        25        26        27     9      180.000000       18.895201         2
        24        25        26        27     9        0.000000       -1.852045         3
        24        25        26        27     9      180.000000       -0.377786         4
        24        25        26        44     9        0.000000        0.105070         1
        24        25        26        44     9      180.000000       14.938427         2
        24        25        26        44     9        0.000000       -0.842904         3
        24        25        26        44     9      180.000000        0.051417         4
        25        24        23        28     9        0.000000        0.018623         1
        25        24        23        28     9      180.000000       17.752644         2
        25        24        23        28     9        0.000000       -1.105984         3
        25        24        23        28     9      180.000000       -0.366333         4
        25        26        27        28     9        0.000000       -0.096784         1
        25        26        27        28     9      180.000000       18.862503         2
        25        26        27        28     9        0.000000       -1.878121         3
        25        26        27        28     9      180.000000       -0.464420         4
        25        26        27        45     9        0.000000        0.050644         1
        25        26        27        45     9      180.000000       14.611362         2
        25        26        27        45     9        0.000000       -0.847508         3
        25        26        27        45     9      180.000000        0.165081         4
        26        25        24        42     9        0.000000        0.113054         1
        26        25        24        42     9      180.000000       14.217238         2
        26        25        24        42     9        0.000000       -0.666602         3
        26        25        24        42     9      180.000000        0.116883         4
        26        27        28        29     9        0.000000        0.188303         1
        26        27        28        29     9      180.000000       15.947135         2
        26        27        28        29     9        0.000000        0.063520         3
        26        27        28        29     9      180.000000       -0.396202         4
        27        26        25        43     9        0.000000        0.021229         1
        27        26        25        43     9      180.000000       14.228248         2
        27        26        25        43     9        0.000000       -0.859076         3
        27        26        25        43     9      180.000000        0.104060         4
        27        28        29        30     9        0.000000       -0.795416         1
        27        28        29        30     9      180.000000        0.190793         2
        27        28        29        30     9        0.000000       -0.761361         3
        27        28        29        30     9      180.000000        0.487841         4
        27        28        29        31     9        0.000000       -0.795416         1
        27        28        29        31     9      180.000000        0.190793         2
        27        28        29        31     9        0.000000       -0.761361         3
        27        28        29        31     9      180.000000        0.487841         4
        27        28        29        32     9        0.000000       -0.795416         1
        27        28        29        32     9      180.000000        0.190793         2
        27        28        29        32     9        0.000000       -0.761361         3
        27        28        29        32     9      180.000000        0.487841         4
        28        23        24        42     9        0.000000        0.099280         1
        28        23        24        42     9      180.000000       13.242087         2
        28        23        24        42     9        0.000000       -0.366025         3
        28        23        24        42     9      180.000000        0.101855         4
        28        27        26        44     9        0.000000        0.055879         1
        28        27        26        44     9      180.000000       14.685248         2
        28        27        26        44     9        0.000000       -0.818672         3
        28        27        26        44     9      180.000000       -0.081752         4
        28        29        30        46     9        0.000000       -0.016330         1
        28        29        30        46     9      180.000000        0.024477         2
        28        29        30        46     9        0.000000        0.521593         3
        28        29        30        46     9      180.000000       -0.007648         4
        28        29        30        47     9        0.000000       -0.016330         1
        28        29        30        47     9      180.000000        0.024477         2
        28        29        30        47     9        0.000000        0.521593         3
        28        29        30        47     9      180.000000       -0.007648         4
        28        29        30        48     9        0.000000       -0.016330         1
        28        29        30        48     9      180.000000        0.024477         2
        28        29        30        48     9        0.000000        0.521593         3
        28        29        30        48     9      180.000000       -0.007648         4
        28        29        31        49     9        0.000000       -0.016330         1
        28        29        31        49     9      180.000000        0.024477         2
        28        29        31        49     9        0.000000        0.521593         3
        28        29        31        49     9      180.000000       -0.007648         4
        28        29        31        50     9        0.000000       -0.016330         1
        28        29        31        50     9      180.000000        0.024477         2
        28        29        31        50     9        0.000000        0.521593         3
        28        29        31        50     9      180.000000       -0.007648         4
        28        29        31        51     9        0.000000       -0.016330         1
        28        29        31        51     9      180.000000        0.024477         2
        28        29        31        51     9        0.000000        0.521593         3
        28        29        31        51     9      180.000000       -0.007648         4
        28        29        32        52     9        0.000000       -0.016330         1
        28        29        32        52     9      180.000000        0.024477         2
        28        29        32        52     9        0.000000        0.521593         3
        28        29        32        52     9      180.000000       -0.007648         4
        28        29        32        53     9        0.000000       -0.016330         1
        28        29        32        53     9      180.000000        0.024477         2
        28        29        32        53     9        0.000000        0.521593         3
        28        29        32        53     9      180.000000       -0.007648         4
        28        29        32        54     9        0.000000       -0.016330         1
        28        29        32        54     9      180.000000        0.024477         2
        28        29        32        54     9        0.000000        0.521593         3
        28        29        32        54     9      180.000000       -0.007648         4
        29        28        27        45     9        0.000000        0.040286         1
        29        28        27        45     9      180.000000       12.851156         2
        29        28        27        45     9        0.000000       -0.377107         3
        29        28        27        45     9      180.000000        0.088721         4
        30        29        31        49     9        0.000000       -0.067318         1
        30        29        31        49     9      180.000000        0.044503         2
        30        29        31        49     9        0.000000        0.500653         3
        30        29        31        49     9      180.000000        0.037546         4
        30        29        31        50     9        0.000000       -0.067318         1
        30        29        31        50     9      180.000000        0.044503         2
        30        29        31        50     9        0.000000        0.500653         3
        30        29        31        50     9      180.000000        0.037546         4
        30        29        31        51     9        0.000000       -0.067318         1
        30        29        31        51     9      180.000000        0.044503         2
        30        29        31        51     9        0.000000        0.500653         3
        30        29        31        51     9      180.000000        0.037546         4
        30        29        32        52     9        0.000000       -0.067318         1
        30        29        32        52     9      180.000000        0.044503         2
        30        29        32        52     9        0.000000        0.500653         3
        30        29        32        52     9      180.000000        0.037546         4
        30        29        32        53     9        0.000000       -0.067318         1
        30        29        32        53     9      180.000000        0.044503         2
        30        29        32        53     9        0.000000        0.500653         3
        30        29        32        53     9      180.000000        0.037546         4
        30        29        32        54     9        0.000000       -0.067318         1
        30        29        32        54     9      180.000000        0.044503         2
        30        29        32        54     9        0.000000        0.500653         3
        30        29        32        54     9      180.000000        0.037546         4
        31        29        30        46     9        0.000000       -0.067318         1
        31        29        30        46     9      180.000000        0.044503         2
        31        29        30        46     9        0.000000        0.500653         3
        31        29        30        46     9      180.000000        0.037546         4
        31        29        30        47     9        0.000000       -0.067318         1
        31        29        30        47     9      180.000000        0.044503         2
        31        29        30        47     9        0.000000        0.500653         3
        31        29        30        47     9      180.000000        0.037546         4
        31        29        30        48     9        0.000000       -0.067318         1
        31        29        30        48     9      180.000000        0.044503         2
        31        29        30        48     9        0.000000        0.500653         3
        31        29        30        48     9      180.000000        0.037546         4
        31        29        32        52     9        0.000000       -0.067318         1
        31        29        32        52     9      180.000000        0.044503         2
        31        29        32        52     9        0.000000        0.500653         3
        31        29        32        52     9      180.000000        0.037546         4
        31        29        32        53     9        0.000000       -0.067318         1
        31        29        32        53     9      180.000000        0.044503         2
        31        29        32        53     9        0.000000        0.500653         3
        31        29        32        53     9      180.000000        0.037546         4
        31        29        32        54     9        0.000000       -0.067318         1
        31        29        32        54     9      180.000000        0.044503         2
        31        29        32        54     9        0.000000        0.500653         3
        31        29        32        54     9      180.000000        0.037546         4
        32        29        30        46     9        0.000000       -0.067318         1
        32        29        30        46     9      180.000000        0.044503         2
        32        29        30        46     9        0.000000        0.500653         3
        32        29        30        46     9      180.000000        0.037546         4
        32        29        30        47     9        0.000000       -0.067318         1
        32        29        30        47     9      180.000000        0.044503         2
        32        29        30        47     9        0.000000        0.500653         3
        32        29        30        47     9      180.000000        0.037546         4
        32        29        30        48     9        0.000000       -0.067318         1
        32        29        30        48     9      180.000000        0.044503         2
        32        29        30        48     9        0.000000        0.500653         3
        32        29        30        48     9      180.000000        0.037546         4
        32        29        31        49     9        0.000000       -0.067318         1
        32        29        31        49     9      180.000000        0.044503         2
        32        29        31        49     9        0.000000        0.500653         3
        32        29        31        49     9      180.000000        0.037546         4
        32        29        31        50     9        0.000000       -0.067318         1
        32        29        31        50     9      180.000000        0.044503         2
        32        29        31        50     9        0.000000        0.500653         3
        32        29        31        50     9      180.000000        0.037546         4
        32        29        31        51     9        0.000000       -0.067318         1
        32        29        31        51     9      180.000000        0.044503         2
        32        29        31        51     9        0.000000        0.500653         3
        32        29        31        51     9      180.000000        0.037546         4
        33         7         8        34     9        0.000000       -0.163545         1
        33         7         8        34     9      180.000000       12.353168         2
        33         7         8        34     9        0.000000       -0.679802         3
        33         7         8        34     9      180.000000        0.281767         4
        35         9        10        36     9        0.000000       -0.163545         1
        35         9        10        36     9      180.000000       12.353169         2
        35         9        10        36     9        0.000000       -0.679802         3
        35         9        10        36     9      180.000000        0.281767         4
        39        17        18        40     9        0.000000       -0.114528         1
        39        17        18        40     9      180.000000       11.840299         2
        39        17        18        40     9        0.000000       -0.671560         3
        39        17        18        40     9      180.000000        0.313358         4
        40        18        19        41     9        0.000000       -0.153197         1
        40        18        19        41     9      180.000000       12.054830         2
        40        18        19        41     9        0.000000       -0.693173         3
        40        18        19        41     9      180.000000        0.290660         4
        42        24        25        43     9        0.000000       -0.071147         1
        42        24        25        43     9      180.000000       11.882004         2
        42        24        25        43     9        0.000000       -0.654703         3
        42        24        25        43     9      180.000000        0.218030         4
        43        25        26        44     9        0.000000       -0.065772         1
        43        25        26        44     9      180.000000       11.963652         2
        43        25        26        44     9        0.000000       -0.601318         3
        43        25        26        44     9      180.000000        0.209103         4
        44        26        27        45     9        0.000000       -0.321847         1
        44        26        27        45     9      180.000000       11.043442         2
        44        26        27        45     9        0.000000       -0.706909         3
        44        26        27        45     9      180.000000        0.279757         4

[ dihedrals ] ; impropers
;       ai        aj        ak        al funct           phase               k        pn
        13        12        14        15     4      180.000000       20.276479         2
        13        14        15        12     4      180.000000       20.276479         2
        13        15        12        14     4      180.000000       20.276479         2
        19        18        20        41     4      180.000000        0.546116         2
        19        20        41        18     4      180.000000        0.546116         2
        19        41        18        20     4      180.000000        0.546116         2
        25        24        26        43     4      180.000000        1.021720         2
        25        26        43        24     4      180.000000        1.021720         2
        25        43        24        26     4      180.000000        1.021720         2
        26        25        27        44     4      180.000000        0.654727         2
        26        27        44        25     4      180.000000        0.654727         2
        26        44        25        27     4      180.000000        0.654727         2
        27        26        28        45     4      180.000000        0.467714         2
        27        28        45        26     4      180.000000        0.467714         2
        27        45        26        28     4      180.000000        0.467714         2

[ pairs ]
;       ai        aj funct
         1         6     1
         2         7     1
         2         9     1
         3         6     1
         4         6     1
         5         8     1
         5        10     1
         5        33     1
         5        35     1
         6        11     1
         6        34     1
         6        36     1
         7        10     1
         7        12     1
         7        35     1
         8         9     1
         8        13     1
         8        36     1
         8        37     1
         9        12     1
         9        33     1
        10        13     1
        10        34     1
        10        37     1
        11        14     1
        11        15     1
        11        33     1
        11        35     1
        12        16     1
        12        34     1
        12        36     1
        12        38     1
        13        17     1
        13        21     1
        14        16     1
        14        37     1
        14        38     1
        15        18     1
        15        20     1
        15        22     1
        15        37     1
        15        39     1
        16        19     1
        16        23     1
        16        40     1
        17        20     1
        17        22     1
        17        38     1
        17        41     1
        18        21     1
        19        22     1
        19        39     1
        20        23     1
        20        40     1
        21        24     1
        21        28     1
        21        38     1
        21        39     1
        21        41     1
        22        25     1
        22        27     1
        22        29     1
        22        42     1
        23        26     1
        23        30     1
        23        31     1
        23        32     1
        23        43     1
        23        45     1
        24        27     1
        24        29     1
        24        44     1
        25        28     1
        25        45     1
        26        29     1
        26        42     1
        27        30     1
        27        31     1
        27        32     1
        27        43     1
        28        42     1
        28        44     1
        28        46     1
        28        47     1
        28        48     1
        28        49     1
        28        50     1
        28        51     1
        28        52     1
        28        53     1
        28        54     1
        29        45     1
        30        49     1
        30        50     1
        30        51     1
        30        52     1
        30        53     1
        30        54     1
        31        46     1
        31        47     1
        31        48     1
        31        52     1
        31        53     1
        31        54     1
        32        46     1
        32        47     1
        32        48     1
        32        49     1
        32        50     1
        32        51     1
        33        34     1
        35        36     1
        39        40     1
        40        41     1
        42        43     1
        43        44     1
        44        45     1
