; ITP file created by ByteFF-ML, 2026-03-15 01:45:45.909731

[ atomtypes ]
;name           bonded.type        at.num        mass        charge   ptype           sigma         epsilon
 o0bf                                   8      0.0000       0.00000       A     3.04781e-01     6.14498e-01
 c1bf                                   6      0.0000       0.00000       A     3.31259e-01     4.14898e-01
 n2bf                                   7      0.0000       0.00000       A     3.26853e-01     4.96156e-01
 c3bf                                   6      0.0000       0.00000       A     3.31219e-01     4.13182e-01
 c4bf                                   6      0.0000       0.00000       A     3.31208e-01     4.10333e-01
 o5bf                                   8      0.0000       0.00000       A     3.15742e-01     3.05642e-01
 c6bf                                   6      0.0000       0.00000       A     3.31255e-01     4.12866e-01
 c7bf                                   6      0.0000       0.00000       A     3.31338e-01     4.11687e-01
 c8bf                                   6      0.0000       0.00000       A     3.40026e-01     4.53091e-01
 c9bf                                   6      0.0000       0.00000       A     3.39784e-01     4.50368e-01
 c10bf                                  6      0.0000       0.00000       A     3.39784e-01     4.50368e-01
 c11bf                                  6      0.0000       0.00000       A     3.39784e-01     4.50368e-01
 c12bf                                  6      0.0000       0.00000       A     3.31544e-01     4.12464e-01
 c13bf                                  6      0.0000       0.00000       A     3.31490e-01     4.13128e-01
 c14bf                                  6      0.0000       0.00000       A     3.31526e-01     4.13154e-01
 c15bf                                  6      0.0000       0.00000       A     3.31485e-01     4.13340e-01
 n16bf                                  7      0.0000       0.00000       A     3.38247e-01     3.91955e-01
 c17bf                                  6      0.0000       0.00000       A     3.31514e-01     4.12560e-01
 c18bf                                  6      0.0000       0.00000       A     3.31481e-01     4.12981e-01
 c19bf                                  6      0.0000       0.00000       A     3.31584e-01     4.13224e-01
 n20bf                                  7      0.0000       0.00000       A     3.27155e-01     4.89269e-01
 c21bf                                  6      0.0000       0.00000       A     3.31343e-01     4.11596e-01
 c22bf                                  6      0.0000       0.00000       A     3.31547e-01     4.13055e-01
 c23bf                                  6      0.0000       0.00000       A     3.31504e-01     4.12241e-01
 c24bf                                  6      0.0000       0.00000       A     3.31480e-01     4.13264e-01
 c25bf                                  6      0.0000       0.00000       A     3.39878e-01     4.53925e-01
 c26bf                                  6      0.0000       0.00000       A     3.39773e-01     4.50258e-01
 c27bf                                  6      0.0000       0.00000       A     3.39773e-01     4.50258e-01
 c28bf                                  6      0.0000       0.00000       A     3.39773e-01     4.50258e-01
 c29bf                                  6      0.0000       0.00000       A     3.31504e-01     4.12241e-01
 c30bf                                  6      0.0000       0.00000       A     3.31547e-01     4.13055e-01
 h31bf                                  1      0.0000       0.00000       A     1.10974e-01     4.12520e-02
 h32bf                                  1      0.0000       0.00000       A     2.59968e-01     8.75795e-02
 h33bf                                  1      0.0000       0.00000       A     2.59968e-01     8.75795e-02
 h34bf                                  1      0.0000       0.00000       A     2.59968e-01     8.75795e-02
 h35bf                                  1      0.0000       0.00000       A     2.59968e-01     8.75795e-02
 h36bf                                  1      0.0000       0.00000       A     2.59968e-01     8.75795e-02
 h37bf                                  1      0.0000       0.00000       A     2.59968e-01     8.75795e-02
 h38bf                                  1      0.0000       0.00000       A     2.59968e-01     8.75795e-02
 h39bf                                  1      0.0000       0.00000       A     2.59968e-01     8.75795e-02
 h40bf                                  1      0.0000       0.00000       A     2.59968e-01     8.75795e-02
 h41bf                                  1      0.0000       0.00000       A     2.62611e-01     6.81170e-02
 h42bf                                  1      0.0000       0.00000       A     2.62458e-01     6.72983e-02
 h43bf                                  1      0.0000       0.00000       A     2.62489e-01     6.72695e-02
 h44bf                                  1      0.0000       0.00000       A     2.62444e-01     6.72089e-02
 h45bf                                  1      0.0000       0.00000       A     2.53538e-01     6.71594e-02
 h46bf                                  1      0.0000       0.00000       A     2.62506e-01     6.74403e-02
 h47bf                                  1      0.0000       0.00000       A     2.62621e-01     6.73062e-02
 h48bf                                  1      0.0000       0.00000       A     1.10460e-01     4.18649e-02
 h49bf                                  1      0.0000       0.00000       A     2.62512e-01     6.75919e-02
 h50bf                                  1      0.0000       0.00000       A     2.62545e-01     6.74419e-02
 h51bf                                  1      0.0000       0.00000       A     2.59968e-01     8.75795e-02
 h52bf                                  1      0.0000       0.00000       A     2.59968e-01     8.75795e-02
 h53bf                                  1      0.0000       0.00000       A     2.59968e-01     8.75795e-02
 h54bf                                  1      0.0000       0.00000       A     2.59968e-01     8.75795e-02
 h55bf                                  1      0.0000       0.00000       A     2.59968e-01     8.75795e-02
 h56bf                                  1      0.0000       0.00000       A     2.59968e-01     8.75795e-02
 h57bf                                  1      0.0000       0.00000       A     2.59968e-01     8.75795e-02
 h58bf                                  1      0.0000       0.00000       A     2.59968e-01     8.75795e-02
 h59bf                                  1      0.0000       0.00000       A     2.59968e-01     8.75795e-02
 h60bf                                  1      0.0000       0.00000       A     2.62545e-01     6.74419e-02
 h61bf                                  1      0.0000       0.00000       A     2.62512e-01     6.75919e-02

[ moleculetype ]
;name             nrexcl
 17                    3

[ atoms ]
;       nr            type      resi   res      atom      cgnr      charge          mass ; qtot
         1            o0bf         1   UNL        o0         1    -0.59569       15.9990 ; qtot   -0.596
         2            c1bf         1   UNL        c1         2     0.65911       12.0110 ; qtot    0.063
         3            n2bf         1   UNL        n2         3    -0.15042       14.0070 ; qtot   -0.087
         4            c3bf         1   UNL        c3         4    -0.06851       12.0110 ; qtot   -0.156
         5            c4bf         1   UNL        c4         5     0.51998       12.0110 ; qtot    0.364
         6            o5bf         1   UNL        o5         6    -0.38057       15.9990 ; qtot   -0.016
         7            c6bf         1   UNL        c6         7     0.11071       12.0110 ; qtot    0.095
         8            c7bf         1   UNL        c7         8    -0.06786       12.0110 ; qtot    0.027
         9            c8bf         1   UNL        c8         9     0.00260       12.0110 ; qtot    0.029
        10            c9bf         1   UNL        c9        10    -0.08869       12.0110 ; qtot   -0.059
        11           c10bf         1   UNL       c10        11    -0.08869       12.0110 ; qtot   -0.148
        12           c11bf         1   UNL       c11        12    -0.08869       12.0110 ; qtot   -0.237
        13           c12bf         1   UNL       c12        13    -0.09398       12.0110 ; qtot   -0.331
        14           c13bf         1   UNL       c13        14    -0.12422       12.0110 ; qtot   -0.455
        15           c14bf         1   UNL       c14        15    -0.10124       12.0110 ; qtot   -0.556
        16           c15bf         1   UNL       c15        16    -0.11683       12.0110 ; qtot   -0.673
        17           n16bf         1   UNL       n16        17    -0.70674       14.0070 ; qtot   -1.380
        18           c17bf         1   UNL       c17        18     0.34178       12.0110 ; qtot   -1.038
        19           c18bf         1   UNL       c18        19    -0.15962       12.0110 ; qtot   -1.198
        20           c19bf         1   UNL       c19        20    -0.08259       12.0110 ; qtot   -1.280
        21           n20bf         1   UNL       n20        21    -0.16381       14.0070 ; qtot   -1.444
        22           c21bf         1   UNL       c21        22    -0.01779       12.0110 ; qtot   -1.462
        23           c22bf         1   UNL       c22        23    -0.14876       12.0110 ; qtot   -1.611
        24           c23bf         1   UNL       c23        24    -0.08961       12.0110 ; qtot   -1.700
        25           c24bf         1   UNL       c24        25    -0.08804       12.0110 ; qtot   -1.788
        26           c25bf         1   UNL       c25        26    -0.00002       12.0110 ; qtot   -1.788
        27           c26bf         1   UNL       c26        27    -0.08753       12.0110 ; qtot   -1.876
        28           c27bf         1   UNL       c27        28    -0.08753       12.0110 ; qtot   -1.963
        29           c28bf         1   UNL       c28        29    -0.08753       12.0110 ; qtot   -2.051
        30           c29bf         1   UNL       c29        30    -0.08961       12.0110 ; qtot   -2.140
        31           c30bf         1   UNL       c30        31    -0.14876       12.0110 ; qtot   -2.289
        32           h31bf         1   UNL       h31        32     0.17579        1.0080 ; qtot   -2.113
        33           h32bf         1   UNL       h32        33     0.03755        1.0080 ; qtot   -2.076
        34           h33bf         1   UNL       h33        34     0.03755        1.0080 ; qtot   -2.038
        35           h34bf         1   UNL       h34        35     0.03755        1.0080 ; qtot   -2.001
        36           h35bf         1   UNL       h35        36     0.03755        1.0080 ; qtot   -1.963
        37           h36bf         1   UNL       h36        37     0.03755        1.0080 ; qtot   -1.926
        38           h37bf         1   UNL       h37        38     0.03755        1.0080 ; qtot   -1.888
        39           h38bf         1   UNL       h38        39     0.03755        1.0080 ; qtot   -1.851
        40           h39bf         1   UNL       h39        40     0.03755        1.0080 ; qtot   -1.813
        41           h40bf         1   UNL       h40        41     0.03755        1.0080 ; qtot   -1.775
        42           h41bf         1   UNL       h41        42     0.11854        1.0080 ; qtot   -1.657
        43           h42bf         1   UNL       h42        43     0.11707        1.0080 ; qtot   -1.540
        44           h43bf         1   UNL       h43        44     0.11856        1.0080 ; qtot   -1.421
        45           h44bf         1   UNL       h44        45     0.13056        1.0080 ; qtot   -1.291
        46           h45bf         1   UNL       h45        46     0.02910        1.0080 ; qtot   -1.262
        47           h46bf         1   UNL       h46        47     0.12997        1.0080 ; qtot   -1.132
        48           h47bf         1   UNL       h47        48     0.15134        1.0080 ; qtot   -0.980
        49           h48bf         1   UNL       h48        49     0.15557        1.0080 ; qtot   -0.825
        50           h49bf         1   UNL       h49        50     0.13129        1.0080 ; qtot   -0.693
        51           h50bf         1   UNL       h50        51     0.11706        1.0080 ; qtot   -0.576
        52           h51bf         1   UNL       h51        52     0.03644        1.0080 ; qtot   -0.540
        53           h52bf         1   UNL       h52        53     0.03644        1.0080 ; qtot   -0.503
        54           h53bf         1   UNL       h53        54     0.03644        1.0080 ; qtot   -0.467
        55           h54bf         1   UNL       h54        55     0.03644        1.0080 ; qtot   -0.431
        56           h55bf         1   UNL       h55        56     0.03644        1.0080 ; qtot   -0.394
        57           h56bf         1   UNL       h56        57     0.03644        1.0080 ; qtot   -0.358
        58           h57bf         1   UNL       h57        58     0.03644        1.0080 ; qtot   -0.321
        59           h58bf         1   UNL       h58        59     0.03644        1.0080 ; qtot   -0.285
        60           h59bf         1   UNL       h59        60     0.03644        1.0080 ; qtot   -0.248
        61           h60bf         1   UNL       h60        61     0.11706        1.0080 ; qtot   -0.131
        62           h61bf         1   UNL       h61        62     0.13133        1.0080 ; qtot   -0.000

[ bonds ]
;       ai        aj funct               r               k
         1         2     1        0.122725   593985.707227
         2         3     1        0.138886   239709.822998
         2        21     1        0.138361   251727.561133
         3         4     1        0.140423   262254.059766
         3        32     1        0.101419   408858.186768
         4         5     1        0.141493   241216.997656
         4        20     1        0.139669   302796.953369
         5         6     1        0.137663   229905.896875
         5        17     1        0.131662   340536.893848
         6         7     1        0.140037   213875.129687
         7         8     1        0.140637   264626.457227
         7        16     1        0.139477   301838.520117
         8         9     1        0.154074   154117.553174
         8        13     1        0.140460   285776.112451
         9        10     1        0.154643   167727.147021
         9        11     1        0.154643   167727.147021
         9        12     1        0.154643   167727.147021
        10        33     1        0.109358   300126.563379
        10        34     1        0.109358   300126.563379
        10        35     1        0.109358   300126.563379
        11        36     1        0.109358   300126.563379
        11        37     1        0.109358   300126.563379
        11        38     1        0.109358   300126.563379
        12        39     1        0.109358   300126.563379
        12        40     1        0.109358   300126.563379
        12        41     1        0.109358   300126.563379
        13        14     1        0.139724   313549.608643
        13        42     1        0.108432   321056.216406
        14        15     1        0.139644   310884.734668
        14        43     1        0.108597   320113.718311
        15        16     1        0.139712   313962.160645
        15        44     1        0.108603   320355.937793
        16        45     1        0.108489   322366.934082
        17        18     1        0.134429   311714.895020
        18        19     1        0.139139   305686.196387
        18        46     1        0.108728   317581.177637
        19        20     1        0.140003   313082.713672
        19        47     1        0.108503   324361.765381
        20        48     1        0.108193   330892.421436
        21        22     1        0.141320   245803.028369
        21        49     1        0.101091   419225.921191
        22        23     1        0.140344   287683.785596
        22        31     1        0.140344   287683.785596
        23        24     1        0.139511   325482.359277
        23        50     1        0.108398   324453.213770
        24        25     1        0.140313   283518.223389
        24        51     1        0.108551   318750.956006
        25        26     1        0.153449   164485.874951
        25        30     1        0.140313   283518.223389
        26        27     1        0.154424   170787.220532
        26        28     1        0.154424   170787.220532
        26        29     1        0.154424   170787.220532
        27        52     1        0.109415   298652.178369
        27        53     1        0.109415   298652.178369
        27        54     1        0.109415   298652.178369
        28        55     1        0.109415   298652.178369
        28        56     1        0.109415   298652.178369
        28        57     1        0.109415   298652.178369
        29        58     1        0.109415   298652.178369
        29        59     1        0.109415   298652.178369
        29        60     1        0.109415   298652.178369
        30        31     1        0.139511   325482.359277
        30        61     1        0.108551   318750.930469
        31        62     1        0.108398   324453.213770

[ angles ]
;       ai        aj        ak funct           theta             cth
         1         2         3     1      123.886490      550.707764
         1         2        21     1      124.614906      546.971174
         2         3         4     1      126.276352      452.689443
         2         3        32     1      117.628128      436.697435
         2        21        22     1      128.459763      462.401301
         2        21        49     1      116.246033      460.361876
         3         2        21     1      112.608353      544.959169
         3         4         5     1      117.570358      431.330364
         3         4        20     1      125.502136      569.232191
         4         3        32     1      114.048378      434.130349
         4         5         6     1      117.118675      362.481104
         4         5        17     1      124.240524      669.889964
         4        20        19     1      118.717087      830.537535
         4        20        48     1      119.480087      442.212908
         5         4        20     1      116.908203      645.538096
         5         6         7     1      119.146523      455.886242
         5        17        18     1      118.225052      718.638965
         6         5        17     1      119.259598      570.701660
         6         7         8     1      119.750610      417.072453
         6         7        16     1      117.316177      496.941774
         7         8         9     1      122.997574      478.825908
         7         8        13     1      116.001907      690.525097
         7        16        15     1      119.745117      680.162138
         7        16        45     1      119.102554      397.245633
         8         7        16     1      122.352585      652.146461
         8         9        10     1      110.513222      621.430937
         8         9        11     1      110.513222      621.430937
         8         9        12     1      110.513222      621.430937
         8        13        14     1      122.479416      701.606096
         8        13        42     1      119.045700      386.005985
         9         8        13     1      121.360046      477.205483
         9        10        33     1      110.917320      475.023752
         9        10        34     1      110.917320      475.023752
         9        10        35     1      110.917320      475.023752
         9        11        36     1      110.917320      475.023752
         9        11        37     1      110.917320      475.023752
         9        11        38     1      110.917320      475.023752
         9        12        39     1      110.917320      475.023752
         9        12        40     1      110.917320      475.023752
         9        12        41     1      110.917320      475.023752
        10         9        11     1      108.242996      568.694444
        10         9        12     1      108.242996      568.694444
        11         9        12     1      108.242996      568.694444
        13        14        15     1      119.784180      703.986155
        13        14        43     1      119.846458      433.781065
        14        13        42     1      118.546585      425.325888
        14        15        16     1      119.495224      703.985197
        14        15        44     1      120.649620      419.172178
        15        14        43     1      120.401512      433.041382
        15        16        45     1      121.269363      424.147126
        16        15        44     1      119.866898      428.281138
        17        18        19     1      122.499290      661.638094
        17        18        46     1      116.190018      392.705071
        18        19        20     1      119.055466      724.682960
        18        19        47     1      120.600418      442.820723
        19        18        46     1      121.265182      408.189051
        19        20        48     1      121.786972      385.096928
        20        19        47     1      120.423485      439.039347
        21        22        23     1      120.656639      595.654481
        21        22        31     1      120.656639      595.654481
        22        21        49     1      114.712326      453.032406
        22        23        24     1      119.982468      736.602981
        22        23        50     1      119.787827      450.822936
        22        31        30     1      119.982468      736.602981
        22        31        62     1      119.787827      450.822936
        23        22        31     1      118.791054      494.444149
        23        24        25     1      122.078468      685.531188
        23        24        51     1      118.164566      431.568370
        24        23        50     1      120.167160      398.517126
        24        25        26     1      121.684364      496.972897
        24        25        30     1      116.836411      625.115686
        25        24        51     1      119.935593      404.359314
        25        26        27     1      110.330238      650.056057
        25        26        28     1      110.330238      650.056057
        25        26        29     1      110.330238      650.056057
        25        30        31     1      122.078468      685.531188
        25        30        61     1      119.935593      404.359314
        26        25        30     1      121.684364      496.972897
        26        27        52     1      111.041466      474.591696
        26        27        53     1      111.041466      474.591696
        26        27        54     1      111.041466      474.591696
        26        28        55     1      111.041466      474.591696
        26        28        56     1      111.041466      474.591696
        26        28        57     1      111.041466      474.591696
        26        29        58     1      111.041466      474.591696
        26        29        59     1      111.041466      474.591696
        26        29        60     1      111.041466      474.591696
        27        26        28     1      108.563232      558.929564
        27        26        29     1      108.563232      558.929564
        28        26        29     1      108.563232      558.929564
        30        31        62     1      120.167160      398.517126
        31        30        61     1      118.164566      431.568370
        33        10        34     1      107.976624      360.978533
        33        10        35     1      107.976624      360.978533
        34        10        35     1      107.976624      360.978533
        36        11        37     1      107.976624      360.978533
        36        11        38     1      107.976624      360.978533
        37        11        38     1      107.976624      360.978533
        39        12        40     1      107.976624      360.978533
        39        12        41     1      107.976624      360.978533
        40        12        41     1      107.976624      360.978533
        52        27        53     1      107.887100      362.502077
        52        27        54     1      107.887100      362.502077
        53        27        54     1      107.887100      362.502077
        55        28        56     1      107.887100      362.502077
        55        28        57     1      107.887100      362.502077
        56        28        57     1      107.887100      362.502077
        58        29        59     1      107.887100      362.502077
        58        29        60     1      107.887100      362.502077
        59        29        60     1      107.887100      362.502077

[ dihedrals ] ; propers for gromacs 4.5 or higher, use funct 9
;       ai        aj        ak        al funct           phase               k        pn
         1         2         3         4     9        0.000000       -2.531744         1
         1         2         3         4     9      180.000000        4.872689         2
         1         2         3         4     9        0.000000       -0.696803         3
         1         2         3         4     9      180.000000       -0.176057         4
         1         2         3        32     9        0.000000       -2.204782         1
         1         2         3        32     9      180.000000        5.153817         2
         1         2         3        32     9        0.000000       -0.121163         3
         1         2         3        32     9      180.000000       -0.071652         4
         1         2        21        22     9        0.000000       -3.510820         1
         1         2        21        22     9      180.000000        4.472404         2
         1         2        21        22     9        0.000000       -0.619619         3
         1         2        21        22     9      180.000000       -0.235200         4
         1         2        21        49     9        0.000000       -1.928211         1
         1         2        21        49     9      180.000000        5.896342         2
         1         2        21        49     9        0.000000        0.137628         3
         1         2        21        49     9      180.000000        0.130541         4
         2         3         4         5     9        0.000000       -1.944440         1
         2         3         4         5     9      180.000000        1.909132         2
         2         3         4         5     9        0.000000        0.330250         3
         2         3         4         5     9      180.000000       -0.057144         4
         2         3         4        20     9        0.000000       -0.468535         1
         2         3         4        20     9      180.000000        1.875920         2
         2         3         4        20     9        0.000000       -0.412223         3
         2         3         4        20     9      180.000000        0.469219         4
         2        21        22        23     9        0.000000        0.059624         1
         2        21        22        23     9      180.000000        1.918940         2
         2        21        22        23     9        0.000000       -0.169303         3
         2        21        22        23     9      180.000000        0.293359         4
         2        21        22        31     9        0.000000        0.059624         1
         2        21        22        31     9      180.000000        1.918940         2
         2        21        22        31     9        0.000000       -0.169303         3
         2        21        22        31     9      180.000000        0.293359         4
         3         2        21        22     9        0.000000        6.204280         1
         3         2        21        22     9      180.000000        5.637944         2
         3         2        21        22     9        0.000000       -0.038304         3
         3         2        21        22     9      180.000000       -0.084518         4
         3         2        21        49     9        0.000000        4.782917         1
         3         2        21        49     9      180.000000        6.982785         2
         3         2        21        49     9        0.000000       -0.564198         3
         3         2        21        49     9      180.000000        0.312932         4
         3         4         5         6     9        0.000000        0.135573         1
         3         4         5         6     9      180.000000       15.700744         2
         3         4         5         6     9        0.000000        0.281101         3
         3         4         5         6     9      180.000000       -0.360056         4
         3         4         5        17     9        0.000000        0.234046         1
         3         4         5        17     9      180.000000       12.396332         2
         3         4         5        17     9        0.000000       -0.098079         3
         3         4         5        17     9      180.000000       -0.323170         4
         3         4        20        19     9        0.000000        0.334774         1
         3         4        20        19     9      180.000000       18.629020         2
         3         4        20        19     9        0.000000        0.316336         3
         3         4        20        19     9      180.000000       -0.464756         4
         3         4        20        48     9        0.000000        0.246514         1
         3         4        20        48     9      180.000000       14.352632         2
         3         4        20        48     9        0.000000       -0.128549         3
         3         4        20        48     9      180.000000        0.162568         4
         4         3         2        21     9        0.000000        5.532904         1
         4         3         2        21     9      180.000000        6.358717         2
         4         3         2        21     9        0.000000       -0.051283         3
         4         3         2        21     9      180.000000       -0.158612         4
         4         5         6         7     9        0.000000        3.044136         1
         4         5         6         7     9      180.000000        3.433019         2
         4         5         6         7     9        0.000000       -0.041465         3
         4         5         6         7     9      180.000000       -0.210307         4
         4         5        17        18     9        0.000000        0.153022         1
         4         5        17        18     9      180.000000       23.194028         2
         4         5        17        18     9        0.000000       -0.202035         3
         4         5        17        18     9      180.000000       -0.076951         4
         4        20        19        18     9        0.000000        0.066168         1
         4        20        19        18     9      180.000000       18.396385         2
         4        20        19        18     9        0.000000       -2.102023         3
         4        20        19        18     9      180.000000       -0.535985         4
         4        20        19        47     9        0.000000        0.126273         1
         4        20        19        47     9      180.000000       15.018723         2
         4        20        19        47     9        0.000000       -0.647982         3
         4        20        19        47     9      180.000000       -0.080099         4
         5         4         3        32     9        0.000000        1.829922         1
         5         4         3        32     9      180.000000        1.552928         2
         5         4         3        32     9        0.000000        0.507373         3
         5         4         3        32     9      180.000000       -0.389573         4
         5         4        20        19     9        0.000000        0.032265         1
         5         4        20        19     9      180.000000       17.762490         2
         5         4        20        19     9        0.000000       -1.200441         3
         5         4        20        19     9      180.000000       -0.505589         4
         5         4        20        48     9        0.000000        0.124033         1
         5         4        20        48     9      180.000000       13.604566         2
         5         4        20        48     9        0.000000       -0.394720         3
         5         4        20        48     9      180.000000        0.035208         4
         5         6         7         8     9        0.000000       -0.062335         1
         5         6         7         8     9      180.000000        2.731475         2
         5         6         7         8     9        0.000000        0.252334         3
         5         6         7         8     9      180.000000        0.023681         4
         5         6         7        16     9        0.000000        0.018105         1
         5         6         7        16     9      180.000000        3.266155         2
         5         6         7        16     9        0.000000       -1.116922         3
         5         6         7        16     9      180.000000        0.463487         4
         5        17        18        19     9        0.000000        0.073192         1
         5        17        18        19     9      180.000000       22.238220         2
         5        17        18        19     9        0.000000       -1.107263         3
         5        17        18        19     9      180.000000       -0.348060         4
         5        17        18        46     9        0.000000        1.067233         1
         5        17        18        46     9      180.000000       19.818804         2
         5        17        18        46     9        0.000000        0.282233         3
         5        17        18        46     9      180.000000       -0.593204         4
         6         5         4        20     9        0.000000        0.396489         1
         6         5         4        20     9      180.000000       12.751311         2
         6         5         4        20     9        0.000000        0.237587         3
         6         5         4        20     9      180.000000       -0.055174         4
         6         5        17        18     9        0.000000        0.892029         1
         6         5        17        18     9      180.000000       29.800163         2
         6         5        17        18     9        0.000000        1.267221         3
         6         5        17        18     9      180.000000       -0.713333         4
         6         7         8         9     9        0.000000       -0.080874         1
         6         7         8         9     9      180.000000       15.639035         2
         6         7         8         9     9        0.000000        0.141131         3
         6         7         8         9     9      180.000000       -0.458068         4
         6         7         8        13     9        0.000000        0.557040         1
         6         7         8        13     9      180.000000       17.113682         2
         6         7         8        13     9        0.000000        0.396198         3
         6         7         8        13     9      180.000000       -0.414864         4
         6         7        16        15     9        0.000000        0.683589         1
         6         7        16        15     9      180.000000       19.785584         2
         6         7        16        15     9        0.000000        0.782651         3
         6         7        16        15     9      180.000000       -0.456757         4
         6         7        16        45     9        0.000000        0.175958         1
         6         7        16        45     9      180.000000       14.909057         2
         6         7        16        45     9        0.000000        0.214094         3
         6         7        16        45     9      180.000000        0.230273         4
         7         6         5        17     9        0.000000       -3.201006         1
         7         6         5        17     9      180.000000        4.917193         2
         7         6         5        17     9        0.000000       -0.451392         3
         7         6         5        17     9      180.000000       -0.108911         4
         7         8         9        10     9        0.000000        0.403573         1
         7         8         9        10     9      180.000000        0.050783         2
         7         8         9        10     9        0.000000        0.432833         3
         7         8         9        10     9      180.000000        0.162500         4
         7         8         9        11     9        0.000000        0.403573         1
         7         8         9        11     9      180.000000        0.050783         2
         7         8         9        11     9        0.000000        0.432833         3
         7         8         9        11     9      180.000000        0.162500         4
         7         8         9        12     9        0.000000        0.403573         1
         7         8         9        12     9      180.000000        0.050783         2
         7         8         9        12     9        0.000000        0.432833         3
         7         8         9        12     9      180.000000        0.162500         4
         7         8        13        14     9        0.000000       -0.179931         1
         7         8        13        14     9      180.000000       19.709896         2
         7         8        13        14     9        0.000000       -1.412088         3
         7         8        13        14     9      180.000000       -0.578603         4
         7         8        13        42     9        0.000000        0.059420         1
         7         8        13        42     9      180.000000       15.339235         2
         7         8        13        42     9        0.000000       -0.427821         3
         7         8        13        42     9      180.000000       -0.054552         4
         7        16        15        14     9        0.000000       -0.119128         1
         7        16        15        14     9      180.000000       19.051182         2
         7        16        15        14     9        0.000000       -1.610472         3
         7        16        15        14     9      180.000000       -0.561313         4
         7        16        15        44     9        0.000000        0.121161         1
         7        16        15        44     9      180.000000       14.648115         2
         7        16        15        44     9        0.000000       -0.492554         3
         7        16        15        44     9      180.000000       -0.054852         4
         8         7        16        15     9        0.000000        0.018624         1
         8         7        16        15     9      180.000000       17.752642         2
         8         7        16        15     9        0.000000       -1.105984         3
         8         7        16        15     9      180.000000       -0.366333         4
         8         7        16        45     9        0.000000        0.099280         1
         8         7        16        45     9      180.000000       13.242085         2
         8         7        16        45     9        0.000000       -0.366025         3
         8         7        16        45     9      180.000000        0.101856         4
         8         9        10        33     9        0.000000       -0.016331         1
         8         9        10        33     9      180.000000        0.024476         2
         8         9        10        33     9        0.000000        0.521594         3
         8         9        10        33     9      180.000000       -0.007648         4
         8         9        10        34     9        0.000000       -0.016331         1
         8         9        10        34     9      180.000000        0.024476         2
         8         9        10        34     9        0.000000        0.521594         3
         8         9        10        34     9      180.000000       -0.007648         4
         8         9        10        35     9        0.000000       -0.016331         1
         8         9        10        35     9      180.000000        0.024476         2
         8         9        10        35     9        0.000000        0.521594         3
         8         9        10        35     9      180.000000       -0.007648         4
         8         9        11        36     9        0.000000       -0.016331         1
         8         9        11        36     9      180.000000        0.024476         2
         8         9        11        36     9        0.000000        0.521594         3
         8         9        11        36     9      180.000000       -0.007648         4
         8         9        11        37     9        0.000000       -0.016331         1
         8         9        11        37     9      180.000000        0.024476         2
         8         9        11        37     9        0.000000        0.521594         3
         8         9        11        37     9      180.000000       -0.007648         4
         8         9        11        38     9        0.000000       -0.016331         1
         8         9        11        38     9      180.000000        0.024476         2
         8         9        11        38     9        0.000000        0.521594         3
         8         9        11        38     9      180.000000       -0.007648         4
         8         9        12        39     9        0.000000       -0.016331         1
         8         9        12        39     9      180.000000        0.024476         2
         8         9        12        39     9        0.000000        0.521594         3
         8         9        12        39     9      180.000000       -0.007648         4
         8         9        12        40     9        0.000000       -0.016331         1
         8         9        12        40     9      180.000000        0.024476         2
         8         9        12        40     9        0.000000        0.521594         3
         8         9        12        40     9      180.000000       -0.007648         4
         8         9        12        41     9        0.000000       -0.016331         1
         8         9        12        41     9      180.000000        0.024476         2
         8         9        12        41     9        0.000000        0.521594         3
         8         9        12        41     9      180.000000       -0.007648         4
         8        13        14        15     9        0.000000       -0.096785         1
         8        13        14        15     9      180.000000       18.862503         2
         8        13        14        15     9        0.000000       -1.878121         3
         8        13        14        15     9      180.000000       -0.464420         4
         8        13        14        43     9        0.000000        0.055879         1
         8        13        14        43     9      180.000000       14.685252         2
         8        13        14        43     9        0.000000       -0.818672         3
         8        13        14        43     9      180.000000       -0.081752         4
         9         8         7        16     9        0.000000        0.067549         1
         9         8         7        16     9      180.000000       11.797806         2
         9         8         7        16     9        0.000000        0.088336         3
         9         8         7        16     9      180.000000       -0.150688         4
         9         8        13        14     9        0.000000        0.188303         1
         9         8        13        14     9      180.000000       15.947137         2
         9         8        13        14     9        0.000000        0.063520         3
         9         8        13        14     9      180.000000       -0.396202         4
         9         8        13        42     9        0.000000        0.040287         1
         9         8        13        42     9      180.000000       12.851156         2
         9         8        13        42     9        0.000000       -0.377107         3
         9         8        13        42     9      180.000000        0.088721         4
        10         9         8        13     9        0.000000       -0.795417         1
        10         9         8        13     9      180.000000        0.190793         2
        10         9         8        13     9        0.000000       -0.761361         3
        10         9         8        13     9      180.000000        0.487841         4
        10         9        11        36     9        0.000000       -0.067317         1
        10         9        11        36     9      180.000000        0.044503         2
        10         9        11        36     9        0.000000        0.500654         3
        10         9        11        36     9      180.000000        0.037547         4
        10         9        11        37     9        0.000000       -0.067317         1
        10         9        11        37     9      180.000000        0.044503         2
        10         9        11        37     9        0.000000        0.500654         3
        10         9        11        37     9      180.000000        0.037547         4
        10         9        11        38     9        0.000000       -0.067317         1
        10         9        11        38     9      180.000000        0.044503         2
        10         9        11        38     9        0.000000        0.500654         3
        10         9        11        38     9      180.000000        0.037547         4
        10         9        12        39     9        0.000000       -0.067317         1
        10         9        12        39     9      180.000000        0.044503         2
        10         9        12        39     9        0.000000        0.500654         3
        10         9        12        39     9      180.000000        0.037547         4
        10         9        12        40     9        0.000000       -0.067317         1
        10         9        12        40     9      180.000000        0.044503         2
        10         9        12        40     9        0.000000        0.500654         3
        10         9        12        40     9      180.000000        0.037547         4
        10         9        12        41     9        0.000000       -0.067317         1
        10         9        12        41     9      180.000000        0.044503         2
        10         9        12        41     9        0.000000        0.500654         3
        10         9        12        41     9      180.000000        0.037547         4
        11         9         8        13     9        0.000000       -0.795417         1
        11         9         8        13     9      180.000000        0.190793         2
        11         9         8        13     9        0.000000       -0.761361         3
        11         9         8        13     9      180.000000        0.487841         4
        11         9        10        33     9        0.000000       -0.067317         1
        11         9        10        33     9      180.000000        0.044503         2
        11         9        10        33     9        0.000000        0.500654         3
        11         9        10        33     9      180.000000        0.037547         4
        11         9        10        34     9        0.000000       -0.067317         1
        11         9        10        34     9      180.000000        0.044503         2
        11         9        10        34     9        0.000000        0.500654         3
        11         9        10        34     9      180.000000        0.037547         4
        11         9        10        35     9        0.000000       -0.067317         1
        11         9        10        35     9      180.000000        0.044503         2
        11         9        10        35     9        0.000000        0.500654         3
        11         9        10        35     9      180.000000        0.037547         4
        11         9        12        39     9        0.000000       -0.067317         1
        11         9        12        39     9      180.000000        0.044503         2
        11         9        12        39     9        0.000000        0.500654         3
        11         9        12        39     9      180.000000        0.037547         4
        11         9        12        40     9        0.000000       -0.067317         1
        11         9        12        40     9      180.000000        0.044503         2
        11         9        12        40     9        0.000000        0.500654         3
        11         9        12        40     9      180.000000        0.037547         4
        11         9        12        41     9        0.000000       -0.067317         1
        11         9        12        41     9      180.000000        0.044503         2
        11         9        12        41     9        0.000000        0.500654         3
        11         9        12        41     9      180.000000        0.037547         4
        12         9         8        13     9        0.000000       -0.795417         1
        12         9         8        13     9      180.000000        0.190793         2
        12         9         8        13     9        0.000000       -0.761361         3
        12         9         8        13     9      180.000000        0.487841         4
        12         9        10        33     9        0.000000       -0.067317         1
        12         9        10        33     9      180.000000        0.044503         2
        12         9        10        33     9        0.000000        0.500654         3
        12         9        10        33     9      180.000000        0.037547         4
        12         9        10        34     9        0.000000       -0.067317         1
        12         9        10        34     9      180.000000        0.044503         2
        12         9        10        34     9        0.000000        0.500654         3
        12         9        10        34     9      180.000000        0.037547         4
        12         9        10        35     9        0.000000       -0.067317         1
        12         9        10        35     9      180.000000        0.044503         2
        12         9        10        35     9        0.000000        0.500654         3
        12         9        10        35     9      180.000000        0.037547         4
        12         9        11        36     9        0.000000       -0.067317         1
        12         9        11        36     9      180.000000        0.044503         2
        12         9        11        36     9        0.000000        0.500654         3
        12         9        11        36     9      180.000000        0.037547         4
        12         9        11        37     9        0.000000       -0.067317         1
        12         9        11        37     9      180.000000        0.044503         2
        12         9        11        37     9        0.000000        0.500654         3
        12         9        11        37     9      180.000000        0.037547         4
        12         9        11        38     9        0.000000       -0.067317         1
        12         9        11        38     9      180.000000        0.044503         2
        12         9        11        38     9        0.000000        0.500654         3
        12         9        11        38     9      180.000000        0.037547         4
        13         8         7        16     9        0.000000       -0.215023         1
        13         8         7        16     9      180.000000       16.811099         2
        13         8         7        16     9        0.000000       -1.033032         3
        13         8         7        16     9      180.000000       -0.428824         4
        13        14        15        16     9        0.000000        0.000675         1
        13        14        15        16     9      180.000000       18.895201         2
        13        14        15        16     9        0.000000       -1.852045         3
        13        14        15        16     9      180.000000       -0.377785         4
        13        14        15        44     9        0.000000        0.021229         1
        13        14        15        44     9      180.000000       14.228248         2
        13        14        15        44     9        0.000000       -0.859076         3
        13        14        15        44     9      180.000000        0.104059         4
        14        15        16        45     9        0.000000        0.113053         1
        14        15        16        45     9      180.000000       14.217240         2
        14        15        16        45     9        0.000000       -0.666602         3
        14        15        16        45     9      180.000000        0.116883         4
        15        14        13        42     9        0.000000        0.050644         1
        15        14        13        42     9      180.000000       14.611363         2
        15        14        13        42     9        0.000000       -0.847509         3
        15        14        13        42     9      180.000000        0.165081         4
        16        15        14        43     9        0.000000        0.105070         1
        16        15        14        43     9      180.000000       14.938427         2
        16        15        14        43     9        0.000000       -0.842904         3
        16        15        14        43     9      180.000000        0.051416         4
        17         5         4        20     9        0.000000        0.070432         1
        17         5         4        20     9      180.000000       10.895454         2
        17         5         4        20     9        0.000000       -0.483942         3
        17         5         4        20     9      180.000000       -0.111193         4
        17        18        19        20     9        0.000000        0.100605         1
        17        18        19        20     9      180.000000       20.168024         2
        17        18        19        20     9        0.000000       -1.195336         3
        17        18        19        20     9      180.000000       -0.567771         4
        17        18        19        47     9        0.000000        0.174484         1
        17        18        19        47     9      180.000000       15.688095         2
        17        18        19        47     9        0.000000       -0.259874         3
        17        18        19        47     9      180.000000       -0.156477         4
        18        19        20        48     9        0.000000        0.167050         1
        18        19        20        48     9      180.000000       14.479788         2
        18        19        20        48     9        0.000000       -0.751910         3
        18        19        20        48     9      180.000000        0.148426         4
        20         4         3        32     9        0.000000        0.403977         1
        20         4         3        32     9      180.000000        2.149404         2
        20         4         3        32     9        0.000000        0.432385         3
        20         4         3        32     9      180.000000       -0.165767         4
        20        19        18        46     9        0.000000        0.082490         1
        20        19        18        46     9      180.000000       14.362334         2
        20        19        18        46     9        0.000000       -0.749614         3
        20        19        18        46     9      180.000000        0.097547         4
        21         2         3        32     9        0.000000        4.448997         1
        21         2         3        32     9      180.000000        6.844590         2
        21         2         3        32     9        0.000000       -0.391998         3
        21         2         3        32     9      180.000000        0.190844         4
        21        22        23        24     9        0.000000        0.340819         1
        21        22        23        24     9      180.000000       16.628383         2
        21        22        23        24     9        0.000000        0.143201         3
        21        22        23        24     9      180.000000       -0.233232         4
        21        22        23        50     9        0.000000       -0.130920         1
        21        22        23        50     9      180.000000       13.434831         2
        21        22        23        50     9        0.000000       -0.250503         3
        21        22        23        50     9      180.000000        0.201221         4
        21        22        31        30     9        0.000000        0.340819         1
        21        22        31        30     9      180.000000       16.628383         2
        21        22        31        30     9        0.000000        0.143201         3
        21        22        31        30     9      180.000000       -0.233232         4
        21        22        31        62     9        0.000000       -0.130920         1
        21        22        31        62     9      180.000000       13.434831         2
        21        22        31        62     9        0.000000       -0.250503         3
        21        22        31        62     9      180.000000        0.201221         4
        22        23        24        25     9        0.000000        0.029772         1
        22        23        24        25     9      180.000000       18.094842         2
        22        23        24        25     9        0.000000       -1.608617         3
        22        23        24        25     9      180.000000       -0.410241         4
        22        23        24        51     9        0.000000        0.043597         1
        22        23        24        51     9      180.000000       15.168119         2
        22        23        24        51     9        0.000000       -0.569597         3
        22        23        24        51     9      180.000000        0.002911         4
        22        31        30        25     9        0.000000        0.029772         1
        22        31        30        25     9      180.000000       18.094842         2
        22        31        30        25     9        0.000000       -1.608617         3
        22        31        30        25     9      180.000000       -0.410241         4
        22        31        30        61     9        0.000000        0.043597         1
        22        31        30        61     9      180.000000       15.168119         2
        22        31        30        61     9        0.000000       -0.569597         3
        22        31        30        61     9      180.000000        0.002911         4
        23        22        21        49     9        0.000000        0.001970         1
        23        22        21        49     9      180.000000        2.217649         2
        23        22        21        49     9        0.000000       -0.038641         3
        23        22        21        49     9      180.000000       -0.108341         4
        23        22        31        30     9        0.000000        0.060033         1
        23        22        31        30     9      180.000000       16.173411         2
        23        22        31        30     9        0.000000       -1.082316         3
        23        22        31        30     9      180.000000       -0.171041         4
        23        22        31        62     9        0.000000        0.181755         1
        23        22        31        62     9      180.000000       12.863852         2
        23        22        31        62     9        0.000000       -0.486094         3
        23        22        31        62     9      180.000000        0.100479         4
        23        24        25        26     9        0.000000        0.049810         1
        23        24        25        26     9      180.000000       14.770147         2
        23        24        25        26     9        0.000000       -0.009686         3
        23        24        25        26     9      180.000000       -0.205440         4
        23        24        25        30     9        0.000000       -0.006504         1
        23        24        25        30     9      180.000000       18.887950         2
        23        24        25        30     9        0.000000       -1.317018         3
        23        24        25        30     9      180.000000       -0.454109         4
        24        23        22        31     9        0.000000        0.060033         1
        24        23        22        31     9      180.000000       16.173411         2
        24        23        22        31     9        0.000000       -1.082316         3
        24        23        22        31     9      180.000000       -0.171041         4
        24        25        26        27     9        0.000000       -0.030935         1
        24        25        26        27     9      180.000000        0.213256         2
        24        25        26        27     9        0.000000       -0.004862         3
        24        25        26        27     9      180.000000        0.242485         4
        24        25        26        28     9        0.000000       -0.030935         1
        24        25        26        28     9      180.000000        0.213256         2
        24        25        26        28     9        0.000000       -0.004862         3
        24        25        26        28     9      180.000000        0.242485         4
        24        25        26        29     9        0.000000       -0.030935         1
        24        25        26        29     9      180.000000        0.213256         2
        24        25        26        29     9        0.000000       -0.004862         3
        24        25        26        29     9      180.000000        0.242485         4
        24        25        30        31     9        0.000000       -0.006504         1
        24        25        30        31     9      180.000000       18.887950         2
        24        25        30        31     9        0.000000       -1.317018         3
        24        25        30        31     9      180.000000       -0.454109         4
        24        25        30        61     9        0.000000       -0.005917         1
        24        25        30        61     9      180.000000       14.558912         2
        24        25        30        61     9        0.000000       -0.672140         3
        24        25        30        61     9      180.000000        0.069638         4
        25        24        23        50     9        0.000000        0.014748         1
        25        24        23        50     9      180.000000       14.587996         2
        25        24        23        50     9        0.000000       -0.603522         3
        25        24        23        50     9      180.000000        0.139381         4
        25        26        27        52     9        0.000000       -0.003344         1
        25        26        27        52     9      180.000000        0.018749         2
        25        26        27        52     9        0.000000        0.611593         3
        25        26        27        52     9      180.000000       -0.015888         4
        25        26        27        53     9        0.000000       -0.003344         1
        25        26        27        53     9      180.000000        0.018749         2
        25        26        27        53     9        0.000000        0.611593         3
        25        26        27        53     9      180.000000       -0.015888         4
        25        26        27        54     9        0.000000       -0.003344         1
        25        26        27        54     9      180.000000        0.018749         2
        25        26        27        54     9        0.000000        0.611593         3
        25        26        27        54     9      180.000000       -0.015888         4
        25        26        28        55     9        0.000000       -0.003344         1
        25        26        28        55     9      180.000000        0.018749         2
        25        26        28        55     9        0.000000        0.611593         3
        25        26        28        55     9      180.000000       -0.015888         4
        25        26        28        56     9        0.000000       -0.003344         1
        25        26        28        56     9      180.000000        0.018749         2
        25        26        28        56     9        0.000000        0.611593         3
        25        26        28        56     9      180.000000       -0.015888         4
        25        26        28        57     9        0.000000       -0.003344         1
        25        26        28        57     9      180.000000        0.018749         2
        25        26        28        57     9        0.000000        0.611593         3
        25        26        28        57     9      180.000000       -0.015888         4
        25        26        29        58     9        0.000000       -0.003344         1
        25        26        29        58     9      180.000000        0.018749         2
        25        26        29        58     9        0.000000        0.611593         3
        25        26        29        58     9      180.000000       -0.015888         4
        25        26        29        59     9        0.000000       -0.003344         1
        25        26        29        59     9      180.000000        0.018749         2
        25        26        29        59     9        0.000000        0.611593         3
        25        26        29        59     9      180.000000       -0.015888         4
        25        26        29        60     9        0.000000       -0.003344         1
        25        26        29        60     9      180.000000        0.018749         2
        25        26        29        60     9        0.000000        0.611593         3
        25        26        29        60     9      180.000000       -0.015888         4
        25        30        31        62     9        0.000000        0.014748         1
        25        30        31        62     9      180.000000       14.587996         2
        25        30        31        62     9        0.000000       -0.603522         3
        25        30        31        62     9      180.000000        0.139381         4
        26        25        24        51     9        0.000000       -0.075926         1
        26        25        24        51     9      180.000000       12.759677         2
        26        25        24        51     9        0.000000       -0.280073         3
        26        25        24        51     9      180.000000        0.189925         4
        26        25        30        31     9        0.000000        0.049810         1
        26        25        30        31     9      180.000000       14.770147         2
        26        25        30        31     9        0.000000       -0.009686         3
        26        25        30        31     9      180.000000       -0.205440         4
        26        25        30        61     9        0.000000       -0.075926         1
        26        25        30        61     9      180.000000       12.759677         2
        26        25        30        61     9        0.000000       -0.280073         3
        26        25        30        61     9      180.000000        0.189925         4
        27        26        25        30     9        0.000000       -0.030935         1
        27        26        25        30     9      180.000000        0.213256         2
        27        26        25        30     9        0.000000       -0.004862         3
        27        26        25        30     9      180.000000        0.242485         4
        27        26        28        55     9        0.000000       -0.086644         1
        27        26        28        55     9      180.000000        0.035145         2
        27        26        28        55     9        0.000000        0.537983         3
        27        26        28        55     9      180.000000        0.036905         4
        27        26        28        56     9        0.000000       -0.086644         1
        27        26        28        56     9      180.000000        0.035145         2
        27        26        28        56     9        0.000000        0.537983         3
        27        26        28        56     9      180.000000        0.036905         4
        27        26        28        57     9        0.000000       -0.086644         1
        27        26        28        57     9      180.000000        0.035145         2
        27        26        28        57     9        0.000000        0.537983         3
        27        26        28        57     9      180.000000        0.036905         4
        27        26        29        58     9        0.000000       -0.086644         1
        27        26        29        58     9      180.000000        0.035145         2
        27        26        29        58     9        0.000000        0.537983         3
        27        26        29        58     9      180.000000        0.036905         4
        27        26        29        59     9        0.000000       -0.086644         1
        27        26        29        59     9      180.000000        0.035145         2
        27        26        29        59     9        0.000000        0.537983         3
        27        26        29        59     9      180.000000        0.036905         4
        27        26        29        60     9        0.000000       -0.086644         1
        27        26        29        60     9      180.000000        0.035145         2
        27        26        29        60     9        0.000000        0.537983         3
        27        26        29        60     9      180.000000        0.036905         4
        28        26        25        30     9        0.000000       -0.030935         1
        28        26        25        30     9      180.000000        0.213256         2
        28        26        25        30     9        0.000000       -0.004862         3
        28        26        25        30     9      180.000000        0.242485         4
        28        26        27        52     9        0.000000       -0.086644         1
        28        26        27        52     9      180.000000        0.035145         2
        28        26        27        52     9        0.000000        0.537983         3
        28        26        27        52     9      180.000000        0.036905         4
        28        26        27        53     9        0.000000       -0.086644         1
        28        26        27        53     9      180.000000        0.035145         2
        28        26        27        53     9        0.000000        0.537983         3
        28        26        27        53     9      180.000000        0.036905         4
        28        26        27        54     9        0.000000       -0.086644         1
        28        26        27        54     9      180.000000        0.035145         2
        28        26        27        54     9        0.000000        0.537983         3
        28        26        27        54     9      180.000000        0.036905         4
        28        26        29        58     9        0.000000       -0.086644         1
        28        26        29        58     9      180.000000        0.035145         2
        28        26        29        58     9        0.000000        0.537983         3
        28        26        29        58     9      180.000000        0.036905         4
        28        26        29        59     9        0.000000       -0.086644         1
        28        26        29        59     9      180.000000        0.035145         2
        28        26        29        59     9        0.000000        0.537983         3
        28        26        29        59     9      180.000000        0.036905         4
        28        26        29        60     9        0.000000       -0.086644         1
        28        26        29        60     9      180.000000        0.035145         2
        28        26        29        60     9        0.000000        0.537983         3
        28        26        29        60     9      180.000000        0.036905         4
        29        26        25        30     9        0.000000       -0.030935         1
        29        26        25        30     9      180.000000        0.213256         2
        29        26        25        30     9        0.000000       -0.004862         3
        29        26        25        30     9      180.000000        0.242485         4
        29        26        27        52     9        0.000000       -0.086644         1
        29        26        27        52     9      180.000000        0.035145         2
        29        26        27        52     9        0.000000        0.537983         3
        29        26        27        52     9      180.000000        0.036905         4
        29        26        27        53     9        0.000000       -0.086644         1
        29        26        27        53     9      180.000000        0.035145         2
        29        26        27        53     9        0.000000        0.537983         3
        29        26        27        53     9      180.000000        0.036905         4
        29        26        27        54     9        0.000000       -0.086644         1
        29        26        27        54     9      180.000000        0.035145         2
        29        26        27        54     9        0.000000        0.537983         3
        29        26        27        54     9      180.000000        0.036905         4
        29        26        28        55     9        0.000000       -0.086644         1
        29        26        28        55     9      180.000000        0.035145         2
        29        26        28        55     9        0.000000        0.537983         3
        29        26        28        55     9      180.000000        0.036905         4
        29        26        28        56     9        0.000000       -0.086644         1
        29        26        28        56     9      180.000000        0.035145         2
        29        26        28        56     9        0.000000        0.537983         3
        29        26        28        56     9      180.000000        0.036905         4
        29        26        28        57     9        0.000000       -0.086644         1
        29        26        28        57     9      180.000000        0.035145         2
        29        26        28        57     9        0.000000        0.537983         3
        29        26        28        57     9      180.000000        0.036905         4
        30        25        24        51     9        0.000000       -0.005917         1
        30        25        24        51     9      180.000000       14.558912         2
        30        25        24        51     9        0.000000       -0.672140         3
        30        25        24        51     9      180.000000        0.069638         4
        31        22        21        49     9        0.000000        0.001970         1
        31        22        21        49     9      180.000000        2.217649         2
        31        22        21        49     9        0.000000       -0.038641         3
        31        22        21        49     9      180.000000       -0.108341         4
        31        22        23        50     9        0.000000        0.181755         1
        31        22        23        50     9      180.000000       12.863852         2
        31        22        23        50     9        0.000000       -0.486094         3
        31        22        23        50     9      180.000000        0.100479         4
        42        13        14        43     9        0.000000       -0.321847         1
        42        13        14        43     9      180.000000       11.043441         2
        42        13        14        43     9        0.000000       -0.706909         3
        42        13        14        43     9      180.000000        0.279757         4
        43        14        15        44     9        0.000000       -0.065773         1
        43        14        15        44     9      180.000000       11.963651         2
        43        14        15        44     9        0.000000       -0.601318         3
        43        14        15        44     9      180.000000        0.209102         4
        44        15        16        45     9        0.000000       -0.071147         1
        44        15        16        45     9      180.000000       11.882004         2
        44        15        16        45     9        0.000000       -0.654703         3
        44        15        16        45     9      180.000000        0.218030         4
        46        18        19        47     9        0.000000       -0.153197         1
        46        18        19        47     9      180.000000       12.054830         2
        46        18        19        47     9        0.000000       -0.693173         3
        46        18        19        47     9      180.000000        0.290660         4
        47        19        20        48     9        0.000000       -0.114528         1
        47        19        20        48     9      180.000000       11.840299         2
        47        19        20        48     9        0.000000       -0.671560         3
        47        19        20        48     9      180.000000        0.313358         4
        50        23        24        51     9        0.000000       -0.204325         1
        50        23        24        51     9      180.000000       12.068206         2
        50        23        24        51     9        0.000000       -0.807306         3
        50        23        24        51     9      180.000000        0.348062         4
        61        30        31        62     9        0.000000       -0.204325         1
        61        30        31        62     9      180.000000       12.068206         2
        61        30        31        62     9        0.000000       -0.807306         3
        61        30        31        62     9      180.000000        0.348062         4

[ dihedrals ] ; impropers
;       ai        aj        ak        al funct           phase               k        pn
         2         1         3        21     4      180.000000       20.276479         2
         2         3        21         1     4      180.000000       20.276479         2
         2        21         1         3     4      180.000000       20.276479         2
        13         8        14        42     4      180.000000        0.467714         2
        13        14        42         8     4      180.000000        0.467714         2
        13        42         8        14     4      180.000000        0.467714         2
        14        13        15        43     4      180.000000        0.654727         2
        14        15        43        13     4      180.000000        0.654727         2
        14        43        13        15     4      180.000000        0.654727         2
        15        14        16        44     4      180.000000        1.021720         2
        15        16        44        14     4      180.000000        1.021720         2
        15        44        14        16     4      180.000000        1.021720         2
        18        17        19        46     4      180.000000        0.546116         2
        18        19        46        17     4      180.000000        0.546116         2
        18        46        17        19     4      180.000000        0.546116         2

[ pairs ]
;       ai        aj funct
         1         4     1
         1        22     1
         1        32     1
         1        49     1
         2         5     1
         2        20     1
         2        23     1
         2        31     1
         3         6     1
         3        17     1
         3        19     1
         3        22     1
         3        48     1
         3        49     1
         4         7     1
         4        18     1
         4        21     1
         4        47     1
         5         8     1
         5        16     1
         5        19     1
         5        32     1
         5        46     1
         5        48     1
         6         9     1
         6        13     1
         6        15     1
         6        18     1
         6        20     1
         6        45     1
         7        10     1
         7        11     1
         7        12     1
         7        14     1
         7        17     1
         7        42     1
         7        44     1
         8        15     1
         8        33     1
         8        34     1
         8        35     1
         8        36     1
         8        37     1
         8        38     1
         8        39     1
         8        40     1
         8        41     1
         8        43     1
         8        45     1
         9        14     1
         9        16     1
         9        42     1
        10        13     1
        10        36     1
        10        37     1
        10        38     1
        10        39     1
        10        40     1
        10        41     1
        11        13     1
        11        33     1
        11        34     1
        11        35     1
        11        39     1
        11        40     1
        11        41     1
        12        13     1
        12        33     1
        12        34     1
        12        35     1
        12        36     1
        12        37     1
        12        38     1
        13        16     1
        13        44     1
        14        45     1
        15        42     1
        16        43     1
        17        20     1
        17        47     1
        18        48     1
        20        32     1
        20        46     1
        21        24     1
        21        30     1
        21        32     1
        21        50     1
        21        62     1
        22        25     1
        22        51     1
        22        61     1
        23        26     1
        23        30     1
        23        49     1
        23        62     1
        24        27     1
        24        28     1
        24        29     1
        24        31     1
        24        61     1
        25        50     1
        25        52     1
        25        53     1
        25        54     1
        25        55     1
        25        56     1
        25        57     1
        25        58     1
        25        59     1
        25        60     1
        25        62     1
        26        31     1
        26        51     1
        26        61     1
        27        30     1
        27        55     1
        27        56     1
        27        57     1
        27        58     1
        27        59     1
        27        60     1
        28        30     1
        28        52     1
        28        53     1
        28        54     1
        28        58     1
        28        59     1
        28        60     1
        29        30     1
        29        52     1
        29        53     1
        29        54     1
        29        55     1
        29        56     1
        29        57     1
        30        51     1
        31        49     1
        31        50     1
        42        43     1
        43        44     1
        44        45     1
        46        47     1
        47        48     1
        50        51     1
        61        62     1
