; ITP file created by ByteFF-ML, 2026-03-15 01:34:49.802111

[ atomtypes ]
;name           bonded.type        at.num        mass        charge   ptype           sigma         epsilon
 o0bf                                   8      0.0000       0.00000       A     3.04781e-01     6.14498e-01
 c1bf                                   6      0.0000       0.00000       A     3.31259e-01     4.14898e-01
 n2bf                                   7      0.0000       0.00000       A     3.26853e-01     4.96156e-01
 c3bf                                   6      0.0000       0.00000       A     3.31219e-01     4.13182e-01
 c4bf                                   6      0.0000       0.00000       A     3.31208e-01     4.10333e-01
 o5bf                                   8      0.0000       0.00000       A     3.15581e-01     3.04077e-01
 c6bf                                   6      0.0000       0.00000       A     3.31311e-01     4.13613e-01
 c7bf                                   6      0.0000       0.00000       A     3.31456e-01     4.10263e-01
 c8bf                                   6      0.0000       0.00000       A     3.39747e-01     4.50746e-01
 c9bf                                   6      0.0000       0.00000       A     3.39811e-01     4.50352e-01
 c10bf                                  6      0.0000       0.00000       A     3.39811e-01     4.50352e-01
 c11bf                                  6      0.0000       0.00000       A     3.31561e-01     4.12499e-01
 c12bf                                  6      0.0000       0.00000       A     3.31508e-01     4.13087e-01
 c13bf                                  6      0.0000       0.00000       A     3.31526e-01     4.13154e-01
 c14bf                                  6      0.0000       0.00000       A     3.31480e-01     4.13417e-01
 n15bf                                  7      0.0000       0.00000       A     3.38247e-01     3.91955e-01
 c16bf                                  6      0.0000       0.00000       A     3.31514e-01     4.12560e-01
 c17bf                                  6      0.0000       0.00000       A     3.31481e-01     4.12981e-01
 c18bf                                  6      0.0000       0.00000       A     3.31584e-01     4.13224e-01
 n19bf                                  7      0.0000       0.00000       A     3.27155e-01     4.89269e-01
 c20bf                                  6      0.0000       0.00000       A     3.31343e-01     4.11596e-01
 c21bf                                  6      0.0000       0.00000       A     3.31547e-01     4.13055e-01
 c22bf                                  6      0.0000       0.00000       A     3.31504e-01     4.12241e-01
 c23bf                                  6      0.0000       0.00000       A     3.31480e-01     4.13264e-01
 c24bf                                  6      0.0000       0.00000       A     3.39878e-01     4.53925e-01
 c25bf                                  6      0.0000       0.00000       A     3.39773e-01     4.50258e-01
 c26bf                                  6      0.0000       0.00000       A     3.39773e-01     4.50258e-01
 c27bf                                  6      0.0000       0.00000       A     3.39773e-01     4.50258e-01
 c28bf                                  6      0.0000       0.00000       A     3.31504e-01     4.12241e-01
 c29bf                                  6      0.0000       0.00000       A     3.31547e-01     4.13055e-01
 h30bf                                  1      0.0000       0.00000       A     1.10974e-01     4.12520e-02
 h31bf                                  1      0.0000       0.00000       A     2.60085e-01     8.80120e-02
 h32bf                                  1      0.0000       0.00000       A     2.59911e-01     8.75237e-02
 h33bf                                  1      0.0000       0.00000       A     2.59911e-01     8.75237e-02
 h34bf                                  1      0.0000       0.00000       A     2.59911e-01     8.75237e-02
 h35bf                                  1      0.0000       0.00000       A     2.59911e-01     8.75237e-02
 h36bf                                  1      0.0000       0.00000       A     2.59911e-01     8.75237e-02
 h37bf                                  1      0.0000       0.00000       A     2.59911e-01     8.75237e-02
 h38bf                                  1      0.0000       0.00000       A     2.62507e-01     6.79223e-02
 h39bf                                  1      0.0000       0.00000       A     2.62458e-01     6.72983e-02
 h40bf                                  1      0.0000       0.00000       A     2.62489e-01     6.72695e-02
 h41bf                                  1      0.0000       0.00000       A     2.62444e-01     6.72089e-02
 h42bf                                  1      0.0000       0.00000       A     2.53538e-01     6.71594e-02
 h43bf                                  1      0.0000       0.00000       A     2.62506e-01     6.74403e-02
 h44bf                                  1      0.0000       0.00000       A     2.62621e-01     6.73062e-02
 h45bf                                  1      0.0000       0.00000       A     1.10460e-01     4.18649e-02
 h46bf                                  1      0.0000       0.00000       A     2.62512e-01     6.75919e-02
 h47bf                                  1      0.0000       0.00000       A     2.62545e-01     6.74419e-02
 h48bf                                  1      0.0000       0.00000       A     2.59968e-01     8.75795e-02
 h49bf                                  1      0.0000       0.00000       A     2.59968e-01     8.75795e-02
 h50bf                                  1      0.0000       0.00000       A     2.59968e-01     8.75795e-02
 h51bf                                  1      0.0000       0.00000       A     2.59968e-01     8.75795e-02
 h52bf                                  1      0.0000       0.00000       A     2.59968e-01     8.75795e-02
 h53bf                                  1      0.0000       0.00000       A     2.59968e-01     8.75795e-02
 h54bf                                  1      0.0000       0.00000       A     2.59968e-01     8.75795e-02
 h55bf                                  1      0.0000       0.00000       A     2.59968e-01     8.75795e-02
 h56bf                                  1      0.0000       0.00000       A     2.59968e-01     8.75795e-02
 h57bf                                  1      0.0000       0.00000       A     2.62545e-01     6.74419e-02
 h58bf                                  1      0.0000       0.00000       A     2.62512e-01     6.75919e-02

[ moleculetype ]
;name             nrexcl
 18                    3

[ atoms ]
;       nr            type      resi   res      atom      cgnr      charge          mass ; qtot
         1            o0bf         1   UNL        o0         1    -0.59569       15.9990 ; qtot   -0.596
         2            c1bf         1   UNL        c1         2     0.65911       12.0110 ; qtot    0.063
         3            n2bf         1   UNL        n2         3    -0.15042       14.0070 ; qtot   -0.087
         4            c3bf         1   UNL        c3         4    -0.06851       12.0110 ; qtot   -0.156
         5            c4bf         1   UNL        c4         5     0.52000       12.0110 ; qtot    0.364
         6            o5bf         1   UNL        o5         6    -0.38249       15.9990 ; qtot   -0.018
         7            c6bf         1   UNL        c6         7     0.11000       12.0110 ; qtot    0.092
         8            c7bf         1   UNL        c7         8    -0.07763       12.0110 ; qtot    0.014
         9            c8bf         1   UNL        c8         9    -0.01481       12.0110 ; qtot   -0.000
        10            c9bf         1   UNL        c9        10    -0.08705       12.0110 ; qtot   -0.087
        11           c10bf         1   UNL       c10        11    -0.08705       12.0110 ; qtot   -0.175
        12           c11bf         1   UNL       c11        12    -0.09152       12.0110 ; qtot   -0.266
        13           c12bf         1   UNL       c12        13    -0.12538       12.0110 ; qtot   -0.391
        14           c13bf         1   UNL       c13        14    -0.10092       12.0110 ; qtot   -0.492
        15           c14bf         1   UNL       c14        15    -0.11627       12.0110 ; qtot   -0.609
        16           n15bf         1   UNL       n15        16    -0.70674       14.0070 ; qtot   -1.315
        17           c16bf         1   UNL       c16        17     0.34178       12.0110 ; qtot   -0.974
        18           c17bf         1   UNL       c17        18    -0.15962       12.0110 ; qtot   -1.133
        19           c18bf         1   UNL       c18        19    -0.08259       12.0110 ; qtot   -1.216
        20           n19bf         1   UNL       n19        20    -0.16381       14.0070 ; qtot   -1.380
        21           c20bf         1   UNL       c20        21    -0.01779       12.0110 ; qtot   -1.397
        22           c21bf         1   UNL       c21        22    -0.14876       12.0110 ; qtot   -1.546
        23           c22bf         1   UNL       c22        23    -0.08961       12.0110 ; qtot   -1.636
        24           c23bf         1   UNL       c23        24    -0.08804       12.0110 ; qtot   -1.724
        25           c24bf         1   UNL       c24        25    -0.00002       12.0110 ; qtot   -1.724
        26           c25bf         1   UNL       c25        26    -0.08753       12.0110 ; qtot   -1.811
        27           c26bf         1   UNL       c26        27    -0.08753       12.0110 ; qtot   -1.899
        28           c27bf         1   UNL       c27        28    -0.08753       12.0110 ; qtot   -1.986
        29           c28bf         1   UNL       c28        29    -0.08961       12.0110 ; qtot   -2.076
        30           c29bf         1   UNL       c29        30    -0.14876       12.0110 ; qtot   -2.225
        31           h30bf         1   UNL       h30        31     0.17579        1.0080 ; qtot   -2.049
        32           h31bf         1   UNL       h31        32     0.05310        1.0080 ; qtot   -1.996
        33           h32bf         1   UNL       h32        33     0.03686        1.0080 ; qtot   -1.959
        34           h33bf         1   UNL       h33        34     0.03686        1.0080 ; qtot   -1.922
        35           h34bf         1   UNL       h34        35     0.03686        1.0080 ; qtot   -1.885
        36           h35bf         1   UNL       h35        36     0.03686        1.0080 ; qtot   -1.848
        37           h36bf         1   UNL       h36        37     0.03686        1.0080 ; qtot   -1.812
        38           h37bf         1   UNL       h37        38     0.03686        1.0080 ; qtot   -1.775
        39           h38bf         1   UNL       h38        39     0.11747        1.0080 ; qtot   -1.657
        40           h39bf         1   UNL       h39        40     0.11706        1.0080 ; qtot   -1.540
        41           h40bf         1   UNL       h40        41     0.11856        1.0080 ; qtot   -1.422
        42           h41bf         1   UNL       h41        42     0.13094        1.0080 ; qtot   -1.291
        43           h42bf         1   UNL       h42        43     0.02910        1.0080 ; qtot   -1.262
        44           h43bf         1   UNL       h43        44     0.12997        1.0080 ; qtot   -1.132
        45           h44bf         1   UNL       h44        45     0.15134        1.0080 ; qtot   -0.980
        46           h45bf         1   UNL       h45        46     0.15557        1.0080 ; qtot   -0.825
        47           h46bf         1   UNL       h46        47     0.13129        1.0080 ; qtot   -0.693
        48           h47bf         1   UNL       h47        48     0.11706        1.0080 ; qtot   -0.576
        49           h48bf         1   UNL       h48        49     0.03644        1.0080 ; qtot   -0.540
        50           h49bf         1   UNL       h49        50     0.03644        1.0080 ; qtot   -0.504
        51           h50bf         1   UNL       h50        51     0.03644        1.0080 ; qtot   -0.467
        52           h51bf         1   UNL       h51        52     0.03644        1.0080 ; qtot   -0.431
        53           h52bf         1   UNL       h52        53     0.03644        1.0080 ; qtot   -0.394
        54           h53bf         1   UNL       h53        54     0.03644        1.0080 ; qtot   -0.358
        55           h54bf         1   UNL       h54        55     0.03644        1.0080 ; qtot   -0.321
        56           h55bf         1   UNL       h55        56     0.03644        1.0080 ; qtot   -0.285
        57           h56bf         1   UNL       h56        57     0.03644        1.0080 ; qtot   -0.248
        58           h57bf         1   UNL       h57        58     0.11706        1.0080 ; qtot   -0.131
        59           h58bf         1   UNL       h58        59     0.13136        1.0080 ; qtot   -0.000

[ bonds ]
;       ai        aj funct               r               k
         1         2     1        0.122725   593985.707227
         2         3     1        0.138886   239709.822998
         2        20     1        0.138361   251727.561133
         3         4     1        0.140423   262254.059766
         3        31     1        0.101419   408858.186768
         4         5     1        0.141493   241216.997656
         4        19     1        0.139669   302796.953369
         5         6     1        0.137688   229919.533691
         5        16     1        0.131662   340536.893848
         6         7     1        0.140003   215099.480859
         7         8     1        0.140369   270011.416406
         7        15     1        0.139391   303476.827832
         8         9     1        0.152096   182610.046680
         8        12     1        0.140227   292456.492578
         9        10     1        0.154011   178690.074854
         9        11     1        0.154011   178690.074854
         9        32     1        0.109479   301003.380029
        10        33     1        0.109408   299366.732227
        10        34     1        0.109408   299366.732227
        10        35     1        0.109408   299366.732227
        11        36     1        0.109408   299366.732227
        11        37     1        0.109408   299366.732227
        11        38     1        0.109408   299366.732227
        12        13     1        0.139811   311436.540527
        12        39     1        0.108605   317511.537939
        13        14     1        0.139718   309259.859473
        13        40     1        0.108595   320253.687207
        14        15     1        0.139737   313263.363184
        14        41     1        0.108603   320355.937793
        15        42     1        0.108493   322522.225244
        16        17     1        0.134429   311714.895020
        17        18     1        0.139139   305686.196387
        17        43     1        0.108728   317581.203174
        18        19     1        0.140003   313082.713672
        18        44     1        0.108503   324361.765381
        19        45     1        0.108193   330892.421436
        20        21     1        0.141320   245803.002832
        20        46     1        0.101091   419225.921191
        21        22     1        0.140344   287683.785596
        21        30     1        0.140344   287683.785596
        22        23     1        0.139511   325482.359277
        22        47     1        0.108398   324453.213770
        23        24     1        0.140313   283518.197852
        23        48     1        0.108551   318750.930469
        24        25     1        0.153449   164485.874951
        24        29     1        0.140313   283518.197852
        25        26     1        0.154424   170787.220532
        25        27     1        0.154424   170787.220532
        25        28     1        0.154424   170787.220532
        26        49     1        0.109415   298652.203906
        26        50     1        0.109415   298652.203906
        26        51     1        0.109415   298652.203906
        27        52     1        0.109415   298652.203906
        27        53     1        0.109415   298652.203906
        27        54     1        0.109415   298652.203906
        28        55     1        0.109415   298652.203906
        28        56     1        0.109415   298652.203906
        28        57     1        0.109415   298652.203906
        29        30     1        0.139511   325482.359277
        29        58     1        0.108551   318750.930469
        30        59     1        0.108398   324453.213770

[ angles ]
;       ai        aj        ak funct           theta             cth
         1         2         3     1      123.886490      550.707764
         1         2        20     1      124.614906      546.971174
         2         3         4     1      126.276352      452.689443
         2         3        31     1      117.628128      436.697435
         2        20        21     1      128.459763      462.401301
         2        20        46     1      116.246033      460.361876
         3         2        20     1      112.608353      544.959169
         3         4         5     1      117.570358      431.330364
         3         4        19     1      125.502136      569.232191
         4         3        31     1      114.048378      434.130349
         4         5         6     1      117.057785      363.154709
         4         5        16     1      124.240524      669.889964
         4        19        18     1      118.717087      830.537535
         4        19        45     1      119.480087      442.212940
         5         4        19     1      116.908203      645.538096
         5         6         7     1      119.105576      453.726313
         5        16        17     1      118.225052      718.638965
         6         5        16     1      119.284790      571.632552
         6         7         8     1      119.012283      416.035008
         6         7        15     1      118.173058      496.825325
         7         8         9     1      121.963150      472.869824
         7         8        12     1      116.639038      686.014797
         7        15        14     1      119.495911      682.289443
         7        15        42     1      119.308472      396.924217
         8         7        15     1      122.270401      651.135383
         8         9        10     1      111.840332      607.737556
         8         9        11     1      111.840332      607.737556
         8         9        32     1      106.792702      487.872429
         8        12        13     1      121.934067      705.157733
         8        12        39     1      118.851585      384.268536
         9         8        12     1      121.390198      492.041713
         9        10        33     1      110.888367      496.553418
         9        10        34     1      110.888367      496.553418
         9        10        35     1      110.888367      496.553418
         9        11        36     1      110.888367      496.553418
         9        11        37     1      110.888367      496.553418
         9        11        38     1      110.888367      496.553418
        10         9        11     1      111.185913      573.405402
        10         9        32     1      107.297104      492.093618
        11         9        32     1      107.297104      492.093618
        12        13        14     1      119.680321      701.716161
        12        13        40     1      120.030411      432.973454
        13        12        39     1      119.338562      425.493858
        13        14        15     1      119.693092      704.812344
        13        14        41     1      120.541077      419.675068
        14        13        40     1      120.365540      430.932241
        14        15        42     1      121.310501      423.569445
        15        14        41     1      119.805252      428.614908
        16        17        18     1      122.499290      661.638094
        16        17        43     1      116.190018      392.705071
        17        18        19     1      119.055466      724.682960
        17        18        44     1      120.600418      442.820723
        18        17        43     1      121.265182      408.189051
        18        19        45     1      121.786972      385.096960
        19        18        44     1      120.423485      439.039347
        20        21        22     1      120.656639      595.654481
        20        21        30     1      120.656639      595.654481
        21        20        46     1      114.712326      453.032406
        21        22        23     1      119.982468      736.602981
        21        22        47     1      119.787827      450.822936
        21        30        29     1      119.982468      736.602981
        21        30        59     1      119.787827      450.822936
        22        21        30     1      118.791054      494.444149
        22        23        24     1      122.078468      685.531188
        22        23        48     1      118.164566      431.568370
        23        22        47     1      120.167160      398.517126
        23        24        25     1      121.684364      496.972897
        23        24        29     1      116.836411      625.115686
        24        23        48     1      119.935593      404.359314
        24        25        26     1      110.330238      650.056057
        24        25        27     1      110.330238      650.056057
        24        25        28     1      110.330238      650.056057
        24        29        30     1      122.078468      685.531188
        24        29        58     1      119.935593      404.359314
        25        24        29     1      121.684364      496.972897
        25        26        49     1      111.041466      474.591696
        25        26        50     1      111.041466      474.591696
        25        26        51     1      111.041466      474.591696
        25        27        52     1      111.041466      474.591696
        25        27        53     1      111.041466      474.591696
        25        27        54     1      111.041466      474.591696
        25        28        55     1      111.041466      474.591696
        25        28        56     1      111.041466      474.591696
        25        28        57     1      111.041466      474.591696
        26        25        27     1      108.563232      558.929564
        26        25        28     1      108.563232      558.929564
        27        25        28     1      108.563232      558.929564
        29        30        59     1      120.167160      398.517126
        30        29        58     1      118.164566      431.568370
        33        10        34     1      108.025391      363.335161
        33        10        35     1      108.025391      363.335193
        34        10        35     1      108.025391      363.335161
        36        11        37     1      108.025391      363.335161
        36        11        38     1      108.025391      363.335161
        37        11        38     1      108.025391      363.335161
        49        26        50     1      107.887100      362.502077
        49        26        51     1      107.887100      362.502077
        50        26        51     1      107.887100      362.502077
        52        27        53     1      107.887100      362.502077
        52        27        54     1      107.887100      362.502077
        53        27        54     1      107.887100      362.502077
        55        28        56     1      107.887100      362.502077
        55        28        57     1      107.887100      362.502077
        56        28        57     1      107.887100      362.502077

[ dihedrals ] ; propers for gromacs 4.5 or higher, use funct 9
;       ai        aj        ak        al funct           phase               k        pn
         1         2         3         4     9        0.000000       -2.531744         1
         1         2         3         4     9      180.000000        4.872689         2
         1         2         3         4     9        0.000000       -0.696803         3
         1         2         3         4     9      180.000000       -0.176057         4
         1         2         3        31     9        0.000000       -2.204784         1
         1         2         3        31     9      180.000000        5.153815         2
         1         2         3        31     9        0.000000       -0.121163         3
         1         2         3        31     9      180.000000       -0.071652         4
         1         2        20        21     9        0.000000       -3.510820         1
         1         2        20        21     9      180.000000        4.472404         2
         1         2        20        21     9        0.000000       -0.619619         3
         1         2        20        21     9      180.000000       -0.235200         4
         1         2        20        46     9        0.000000       -1.928211         1
         1         2        20        46     9      180.000000        5.896342         2
         1         2        20        46     9        0.000000        0.137628         3
         1         2        20        46     9      180.000000        0.130541         4
         2         3         4         5     9        0.000000       -1.944440         1
         2         3         4         5     9      180.000000        1.909132         2
         2         3         4         5     9        0.000000        0.330250         3
         2         3         4         5     9      180.000000       -0.057144         4
         2         3         4        19     9        0.000000       -0.468535         1
         2         3         4        19     9      180.000000        1.875920         2
         2         3         4        19     9        0.000000       -0.412223         3
         2         3         4        19     9      180.000000        0.469219         4
         2        20        21        22     9        0.000000        0.059624         1
         2        20        21        22     9      180.000000        1.918940         2
         2        20        21        22     9        0.000000       -0.169303         3
         2        20        21        22     9      180.000000        0.293359         4
         2        20        21        30     9        0.000000        0.059624         1
         2        20        21        30     9      180.000000        1.918940         2
         2        20        21        30     9        0.000000       -0.169303         3
         2        20        21        30     9      180.000000        0.293359         4
         3         2        20        21     9        0.000000        6.204280         1
         3         2        20        21     9      180.000000        5.637944         2
         3         2        20        21     9        0.000000       -0.038304         3
         3         2        20        21     9      180.000000       -0.084518         4
         3         2        20        46     9        0.000000        4.782917         1
         3         2        20        46     9      180.000000        6.982785         2
         3         2        20        46     9        0.000000       -0.564198         3
         3         2        20        46     9      180.000000        0.312932         4
         3         4         5         6     9        0.000000        0.135015         1
         3         4         5         6     9      180.000000       15.761035         2
         3         4         5         6     9        0.000000        0.299689         3
         3         4         5         6     9      180.000000       -0.366476         4
         3         4         5        16     9        0.000000        0.234046         1
         3         4         5        16     9      180.000000       12.396332         2
         3         4         5        16     9        0.000000       -0.098079         3
         3         4         5        16     9      180.000000       -0.323170         4
         3         4        19        18     9        0.000000        0.334774         1
         3         4        19        18     9      180.000000       18.629020         2
         3         4        19        18     9        0.000000        0.316336         3
         3         4        19        18     9      180.000000       -0.464756         4
         3         4        19        45     9        0.000000        0.246513         1
         3         4        19        45     9      180.000000       14.352632         2
         3         4        19        45     9        0.000000       -0.128549         3
         3         4        19        45     9      180.000000        0.162568         4
         4         3         2        20     9        0.000000        5.532904         1
         4         3         2        20     9      180.000000        6.358717         2
         4         3         2        20     9        0.000000       -0.051283         3
         4         3         2        20     9      180.000000       -0.158612         4
         4         5         6         7     9        0.000000        3.433305         1
         4         5         6         7     9      180.000000        3.267518         2
         4         5         6         7     9        0.000000       -0.030254         3
         4         5         6         7     9      180.000000       -0.184303         4
         4         5        16        17     9        0.000000        0.153022         1
         4         5        16        17     9      180.000000       23.194028         2
         4         5        16        17     9        0.000000       -0.202035         3
         4         5        16        17     9      180.000000       -0.076951         4
         4        19        18        17     9        0.000000        0.066168         1
         4        19        18        17     9      180.000000       18.396385         2
         4        19        18        17     9        0.000000       -2.102023         3
         4        19        18        17     9      180.000000       -0.535985         4
         4        19        18        44     9        0.000000        0.126273         1
         4        19        18        44     9      180.000000       15.018723         2
         4        19        18        44     9        0.000000       -0.647982         3
         4        19        18        44     9      180.000000       -0.080099         4
         5         4         3        31     9        0.000000        1.829921         1
         5         4         3        31     9      180.000000        1.552929         2
         5         4         3        31     9        0.000000        0.507373         3
         5         4         3        31     9      180.000000       -0.389573         4
         5         4        19        18     9        0.000000        0.032265         1
         5         4        19        18     9      180.000000       17.762490         2
         5         4        19        18     9        0.000000       -1.200441         3
         5         4        19        18     9      180.000000       -0.505589         4
         5         4        19        45     9        0.000000        0.124033         1
         5         4        19        45     9      180.000000       13.604566         2
         5         4        19        45     9        0.000000       -0.394720         3
         5         4        19        45     9      180.000000        0.035208         4
         5         6         7         8     9        0.000000       -0.072089         1
         5         6         7         8     9      180.000000        2.770768         2
         5         6         7         8     9        0.000000        0.217725         3
         5         6         7         8     9      180.000000        0.085142         4
         5         6         7        15     9        0.000000        0.030028         1
         5         6         7        15     9      180.000000        3.352751         2
         5         6         7        15     9        0.000000       -1.060393         3
         5         6         7        15     9      180.000000        0.448819         4
         5        16        17        18     9        0.000000        0.073192         1
         5        16        17        18     9      180.000000       22.238220         2
         5        16        17        18     9        0.000000       -1.107263         3
         5        16        17        18     9      180.000000       -0.348060         4
         5        16        17        43     9        0.000000        1.067233         1
         5        16        17        43     9      180.000000       19.818804         2
         5        16        17        43     9        0.000000        0.282233         3
         5        16        17        43     9      180.000000       -0.593204         4
         6         5         4        19     9        0.000000        0.385460         1
         6         5         4        19     9      180.000000       12.730618         2
         6         5         4        19     9        0.000000        0.253283         3
         6         5         4        19     9      180.000000       -0.055637         4
         6         5        16        17     9        0.000000        0.915794         1
         6         5        16        17     9      180.000000       29.774243         2
         6         5        16        17     9        0.000000        1.284496         3
         6         5        16        17     9      180.000000       -0.728215         4
         6         7         8         9     9        0.000000       -0.022028         1
         6         7         8         9     9      180.000000       16.060701         2
         6         7         8         9     9        0.000000        0.007397         3
         6         7         8         9     9      180.000000       -0.378291         4
         6         7         8        12     9        0.000000        0.555160         1
         6         7         8        12     9      180.000000       17.431110         2
         6         7         8        12     9        0.000000        0.506181         3
         6         7         8        12     9      180.000000       -0.332422         4
         6         7        15        14     9        0.000000        0.674078         1
         6         7        15        14     9      180.000000       19.709792         2
         6         7        15        14     9        0.000000        0.745493         3
         6         7        15        14     9      180.000000       -0.409872         4
         6         7        15        42     9        0.000000        0.210582         1
         6         7        15        42     9      180.000000       14.709273         2
         6         7        15        42     9        0.000000        0.209706         3
         6         7        15        42     9      180.000000        0.262080         4
         7         6         5        16     9        0.000000       -3.279622         1
         7         6         5        16     9      180.000000        4.839142         2
         7         6         5        16     9        0.000000       -0.482855         3
         7         6         5        16     9      180.000000       -0.118443         4
         7         8         9        10     9        0.000000        0.344778         1
         7         8         9        10     9      180.000000        0.281173         2
         7         8         9        10     9        0.000000        0.419587         3
         7         8         9        10     9      180.000000        0.085697         4
         7         8         9        11     9        0.000000        0.344778         1
         7         8         9        11     9      180.000000        0.281173         2
         7         8         9        11     9        0.000000        0.419587         3
         7         8         9        11     9      180.000000        0.085697         4
         7         8         9        32     9        0.000000       -0.001052         1
         7         8         9        32     9      180.000000       -0.049976         2
         7         8         9        32     9        0.000000        0.087083         3
         7         8         9        32     9      180.000000        0.009677         4
         7         8        12        13     9        0.000000       -0.153283         1
         7         8        12        13     9      180.000000       19.430632         2
         7         8        12        13     9        0.000000       -1.453747         3
         7         8        12        13     9      180.000000       -0.501666         4
         7         8        12        39     9        0.000000        0.185514         1
         7         8        12        39     9      180.000000       15.044342         2
         7         8        12        39     9        0.000000       -0.359101         3
         7         8        12        39     9      180.000000       -0.055125         4
         7        15        14        13     9        0.000000       -0.136830         1
         7        15        14        13     9      180.000000       18.888677         2
         7        15        14        13     9        0.000000       -1.596582         3
         7        15        14        13     9      180.000000       -0.515342         4
         7        15        14        41     9        0.000000        0.106659         1
         7        15        14        41     9      180.000000       14.773499         2
         7        15        14        41     9        0.000000       -0.486026         3
         7        15        14        41     9      180.000000       -0.053694         4
         8         7        15        14     9        0.000000        0.019622         1
         8         7        15        14     9      180.000000       17.756842         2
         8         7        15        14     9        0.000000       -1.097773         3
         8         7        15        14     9      180.000000       -0.356276         4
         8         7        15        42     9        0.000000        0.086664         1
         8         7        15        42     9      180.000000       13.204125         2
         8         7        15        42     9        0.000000       -0.385506         3
         8         7        15        42     9      180.000000        0.132051         4
         8         9        10        33     9        0.000000        0.014031         1
         8         9        10        33     9      180.000000       -0.003213         2
         8         9        10        33     9        0.000000        0.573243         3
         8         9        10        33     9      180.000000        0.001845         4
         8         9        10        34     9        0.000000        0.014031         1
         8         9        10        34     9      180.000000       -0.003213         2
         8         9        10        34     9        0.000000        0.573243         3
         8         9        10        34     9      180.000000        0.001845         4
         8         9        10        35     9        0.000000        0.014031         1
         8         9        10        35     9      180.000000       -0.003213         2
         8         9        10        35     9        0.000000        0.573243         3
         8         9        10        35     9      180.000000        0.001845         4
         8         9        11        36     9        0.000000        0.014031         1
         8         9        11        36     9      180.000000       -0.003213         2
         8         9        11        36     9        0.000000        0.573243         3
         8         9        11        36     9      180.000000        0.001845         4
         8         9        11        37     9        0.000000        0.014031         1
         8         9        11        37     9      180.000000       -0.003213         2
         8         9        11        37     9        0.000000        0.573243         3
         8         9        11        37     9      180.000000        0.001845         4
         8         9        11        38     9        0.000000        0.014031         1
         8         9        11        38     9      180.000000       -0.003213         2
         8         9        11        38     9        0.000000        0.573243         3
         8         9        11        38     9      180.000000        0.001845         4
         8        12        13        14     9        0.000000       -0.037704         1
         8        12        13        14     9      180.000000       19.190112         2
         8        12        13        14     9        0.000000       -1.824075         3
         8        12        13        14     9      180.000000       -0.516735         4
         8        12        13        40     9        0.000000        0.077108         1
         8        12        13        40     9      180.000000       14.938778         2
         8        12        13        40     9        0.000000       -0.770330         3
         8        12        13        40     9      180.000000       -0.079507         4
         9         8         7        15     9        0.000000        0.001388         1
         9         8         7        15     9      180.000000       12.309383         2
         9         8         7        15     9        0.000000       -0.060042         3
         9         8         7        15     9      180.000000       -0.048451         4
         9         8        12        13     9        0.000000        0.124401         1
         9         8        12        13     9      180.000000       16.356126         2
         9         8        12        13     9        0.000000       -0.068446         3
         9         8        12        13     9      180.000000       -0.362740         4
         9         8        12        39     9        0.000000        0.080971         1
         9         8        12        39     9      180.000000       12.842267         2
         9         8        12        39     9        0.000000       -0.427987         3
         9         8        12        39     9      180.000000        0.140466         4
        10         9         8        12     9        0.000000       -0.739164         1
        10         9         8        12     9      180.000000        0.413237         2
        10         9         8        12     9        0.000000       -0.488472         3
        10         9         8        12     9      180.000000        0.314809         4
        10         9        11        36     9        0.000000       -0.083055         1
        10         9        11        36     9      180.000000        0.062890         2
        10         9        11        36     9        0.000000        0.542119         3
        10         9        11        36     9      180.000000        0.042069         4
        10         9        11        37     9        0.000000       -0.083055         1
        10         9        11        37     9      180.000000        0.062890         2
        10         9        11        37     9        0.000000        0.542119         3
        10         9        11        37     9      180.000000        0.042069         4
        10         9        11        38     9        0.000000       -0.083055         1
        10         9        11        38     9      180.000000        0.062890         2
        10         9        11        38     9        0.000000        0.542119         3
        10         9        11        38     9      180.000000        0.042069         4
        11         9         8        12     9        0.000000       -0.739164         1
        11         9         8        12     9      180.000000        0.413237         2
        11         9         8        12     9        0.000000       -0.488472         3
        11         9         8        12     9      180.000000        0.314809         4
        11         9        10        33     9        0.000000       -0.083055         1
        11         9        10        33     9      180.000000        0.062890         2
        11         9        10        33     9        0.000000        0.542119         3
        11         9        10        33     9      180.000000        0.042069         4
        11         9        10        34     9        0.000000       -0.083055         1
        11         9        10        34     9      180.000000        0.062890         2
        11         9        10        34     9        0.000000        0.542119         3
        11         9        10        34     9      180.000000        0.042069         4
        11         9        10        35     9        0.000000       -0.083055         1
        11         9        10        35     9      180.000000        0.062890         2
        11         9        10        35     9        0.000000        0.542119         3
        11         9        10        35     9      180.000000        0.042069         4
        12         8         7        15     9        0.000000       -0.112236         1
        12         8         7        15     9      180.000000       17.094238         2
        12         8         7        15     9        0.000000       -1.041149         3
        12         8         7        15     9      180.000000       -0.422073         4
        12         8         9        32     9        0.000000        0.404595         1
        12         8         9        32     9      180.000000       -0.215215         2
        12         8         9        32     9        0.000000       -0.312353         3
        12         8         9        32     9      180.000000       -0.011508         4
        12        13        14        15     9        0.000000       -0.011532         1
        12        13        14        15     9      180.000000       18.981452         2
        12        13        14        15     9        0.000000       -1.800130         3
        12        13        14        15     9      180.000000       -0.385175         4
        12        13        14        41     9        0.000000        0.046766         1
        12        13        14        41     9      180.000000       14.278224         2
        12        13        14        41     9        0.000000       -0.839602         3
        12        13        14        41     9      180.000000        0.112007         4
        13        14        15        42     9        0.000000        0.120391         1
        13        14        15        42     9      180.000000       14.169675         2
        13        14        15        42     9        0.000000       -0.663112         3
        13        14        15        42     9      180.000000        0.116175         4
        14        13        12        39     9        0.000000        0.105988         1
        14        13        12        39     9      180.000000       14.452647         2
        14        13        12        39     9        0.000000       -0.805321         3
        14        13        12        39     9      180.000000        0.161916         4
        15        14        13        40     9        0.000000        0.128075         1
        15        14        13        40     9      180.000000       14.840144         2
        15        14        13        40     9        0.000000       -0.828588         3
        15        14        13        40     9      180.000000        0.073854         4
        16         5         4        19     9        0.000000        0.070432         1
        16         5         4        19     9      180.000000       10.895454         2
        16         5         4        19     9        0.000000       -0.483942         3
        16         5         4        19     9      180.000000       -0.111193         4
        16        17        18        19     9        0.000000        0.100605         1
        16        17        18        19     9      180.000000       20.168024         2
        16        17        18        19     9        0.000000       -1.195336         3
        16        17        18        19     9      180.000000       -0.567771         4
        16        17        18        44     9        0.000000        0.174484         1
        16        17        18        44     9      180.000000       15.688095         2
        16        17        18        44     9        0.000000       -0.259874         3
        16        17        18        44     9      180.000000       -0.156477         4
        17        18        19        45     9        0.000000        0.167050         1
        17        18        19        45     9      180.000000       14.479791         2
        17        18        19        45     9        0.000000       -0.751910         3
        17        18        19        45     9      180.000000        0.148426         4
        19         4         3        31     9        0.000000        0.403978         1
        19         4         3        31     9      180.000000        2.149404         2
        19         4         3        31     9        0.000000        0.432386         3
        19         4         3        31     9      180.000000       -0.165766         4
        19        18        17        43     9        0.000000        0.082490         1
        19        18        17        43     9      180.000000       14.362334         2
        19        18        17        43     9        0.000000       -0.749614         3
        19        18        17        43     9      180.000000        0.097547         4
        20         2         3        31     9        0.000000        4.448996         1
        20         2         3        31     9      180.000000        6.844592         2
        20         2         3        31     9        0.000000       -0.391997         3
        20         2         3        31     9      180.000000        0.190844         4
        20        21        22        23     9        0.000000        0.340819         1
        20        21        22        23     9      180.000000       16.628383         2
        20        21        22        23     9        0.000000        0.143201         3
        20        21        22        23     9      180.000000       -0.233232         4
        20        21        22        47     9        0.000000       -0.130920         1
        20        21        22        47     9      180.000000       13.434831         2
        20        21        22        47     9        0.000000       -0.250503         3
        20        21        22        47     9      180.000000        0.201221         4
        20        21        30        29     9        0.000000        0.340819         1
        20        21        30        29     9      180.000000       16.628383         2
        20        21        30        29     9        0.000000        0.143201         3
        20        21        30        29     9      180.000000       -0.233232         4
        20        21        30        59     9        0.000000       -0.130920         1
        20        21        30        59     9      180.000000       13.434831         2
        20        21        30        59     9        0.000000       -0.250503         3
        20        21        30        59     9      180.000000        0.201221         4
        21        22        23        24     9        0.000000        0.029772         1
        21        22        23        24     9      180.000000       18.094842         2
        21        22        23        24     9        0.000000       -1.608617         3
        21        22        23        24     9      180.000000       -0.410241         4
        21        22        23        48     9        0.000000        0.043597         1
        21        22        23        48     9      180.000000       15.168119         2
        21        22        23        48     9        0.000000       -0.569597         3
        21        22        23        48     9      180.000000        0.002911         4
        21        30        29        24     9        0.000000        0.029772         1
        21        30        29        24     9      180.000000       18.094842         2
        21        30        29        24     9        0.000000       -1.608617         3
        21        30        29        24     9      180.000000       -0.410241         4
        21        30        29        58     9        0.000000        0.043597         1
        21        30        29        58     9      180.000000       15.168119         2
        21        30        29        58     9        0.000000       -0.569597         3
        21        30        29        58     9      180.000000        0.002911         4
        22        21        20        46     9        0.000000        0.001970         1
        22        21        20        46     9      180.000000        2.217649         2
        22        21        20        46     9        0.000000       -0.038641         3
        22        21        20        46     9      180.000000       -0.108341         4
        22        21        30        29     9        0.000000        0.060033         1
        22        21        30        29     9      180.000000       16.173411         2
        22        21        30        29     9        0.000000       -1.082316         3
        22        21        30        29     9      180.000000       -0.171041         4
        22        21        30        59     9        0.000000        0.181755         1
        22        21        30        59     9      180.000000       12.863852         2
        22        21        30        59     9        0.000000       -0.486094         3
        22        21        30        59     9      180.000000        0.100479         4
        22        23        24        25     9        0.000000        0.049810         1
        22        23        24        25     9      180.000000       14.770147         2
        22        23        24        25     9        0.000000       -0.009686         3
        22        23        24        25     9      180.000000       -0.205440         4
        22        23        24        29     9        0.000000       -0.006504         1
        22        23        24        29     9      180.000000       18.887950         2
        22        23        24        29     9        0.000000       -1.317018         3
        22        23        24        29     9      180.000000       -0.454109         4
        23        22        21        30     9        0.000000        0.060033         1
        23        22        21        30     9      180.000000       16.173411         2
        23        22        21        30     9        0.000000       -1.082316         3
        23        22        21        30     9      180.000000       -0.171041         4
        23        24        25        26     9        0.000000       -0.030935         1
        23        24        25        26     9      180.000000        0.213256         2
        23        24        25        26     9        0.000000       -0.004862         3
        23        24        25        26     9      180.000000        0.242485         4
        23        24        25        27     9        0.000000       -0.030935         1
        23        24        25        27     9      180.000000        0.213256         2
        23        24        25        27     9        0.000000       -0.004862         3
        23        24        25        27     9      180.000000        0.242485         4
        23        24        25        28     9        0.000000       -0.030935         1
        23        24        25        28     9      180.000000        0.213256         2
        23        24        25        28     9        0.000000       -0.004862         3
        23        24        25        28     9      180.000000        0.242485         4
        23        24        29        30     9        0.000000       -0.006504         1
        23        24        29        30     9      180.000000       18.887950         2
        23        24        29        30     9        0.000000       -1.317018         3
        23        24        29        30     9      180.000000       -0.454109         4
        23        24        29        58     9        0.000000       -0.005917         1
        23        24        29        58     9      180.000000       14.558912         2
        23        24        29        58     9        0.000000       -0.672140         3
        23        24        29        58     9      180.000000        0.069638         4
        24        23        22        47     9        0.000000        0.014748         1
        24        23        22        47     9      180.000000       14.587996         2
        24        23        22        47     9        0.000000       -0.603522         3
        24        23        22        47     9      180.000000        0.139381         4
        24        25        26        49     9        0.000000       -0.003344         1
        24        25        26        49     9      180.000000        0.018749         2
        24        25        26        49     9        0.000000        0.611593         3
        24        25        26        49     9      180.000000       -0.015888         4
        24        25        26        50     9        0.000000       -0.003344         1
        24        25        26        50     9      180.000000        0.018749         2
        24        25        26        50     9        0.000000        0.611593         3
        24        25        26        50     9      180.000000       -0.015888         4
        24        25        26        51     9        0.000000       -0.003344         1
        24        25        26        51     9      180.000000        0.018749         2
        24        25        26        51     9        0.000000        0.611593         3
        24        25        26        51     9      180.000000       -0.015888         4
        24        25        27        52     9        0.000000       -0.003344         1
        24        25        27        52     9      180.000000        0.018749         2
        24        25        27        52     9        0.000000        0.611593         3
        24        25        27        52     9      180.000000       -0.015888         4
        24        25        27        53     9        0.000000       -0.003344         1
        24        25        27        53     9      180.000000        0.018749         2
        24        25        27        53     9        0.000000        0.611593         3
        24        25        27        53     9      180.000000       -0.015888         4
        24        25        27        54     9        0.000000       -0.003344         1
        24        25        27        54     9      180.000000        0.018749         2
        24        25        27        54     9        0.000000        0.611593         3
        24        25        27        54     9      180.000000       -0.015888         4
        24        25        28        55     9        0.000000       -0.003344         1
        24        25        28        55     9      180.000000        0.018749         2
        24        25        28        55     9        0.000000        0.611593         3
        24        25        28        55     9      180.000000       -0.015888         4
        24        25        28        56     9        0.000000       -0.003344         1
        24        25        28        56     9      180.000000        0.018749         2
        24        25        28        56     9        0.000000        0.611593         3
        24        25        28        56     9      180.000000       -0.015888         4
        24        25        28        57     9        0.000000       -0.003344         1
        24        25        28        57     9      180.000000        0.018749         2
        24        25        28        57     9        0.000000        0.611593         3
        24        25        28        57     9      180.000000       -0.015888         4
        24        29        30        59     9        0.000000        0.014748         1
        24        29        30        59     9      180.000000       14.587996         2
        24        29        30        59     9        0.000000       -0.603522         3
        24        29        30        59     9      180.000000        0.139381         4
        25        24        23        48     9        0.000000       -0.075926         1
        25        24        23        48     9      180.000000       12.759677         2
        25        24        23        48     9        0.000000       -0.280073         3
        25        24        23        48     9      180.000000        0.189925         4
        25        24        29        30     9        0.000000        0.049810         1
        25        24        29        30     9      180.000000       14.770147         2
        25        24        29        30     9        0.000000       -0.009686         3
        25        24        29        30     9      180.000000       -0.205440         4
        25        24        29        58     9        0.000000       -0.075926         1
        25        24        29        58     9      180.000000       12.759677         2
        25        24        29        58     9        0.000000       -0.280073         3
        25        24        29        58     9      180.000000        0.189925         4
        26        25        24        29     9        0.000000       -0.030935         1
        26        25        24        29     9      180.000000        0.213256         2
        26        25        24        29     9        0.000000       -0.004862         3
        26        25        24        29     9      180.000000        0.242485         4
        26        25        27        52     9        0.000000       -0.086644         1
        26        25        27        52     9      180.000000        0.035145         2
        26        25        27        52     9        0.000000        0.537983         3
        26        25        27        52     9      180.000000        0.036905         4
        26        25        27        53     9        0.000000       -0.086644         1
        26        25        27        53     9      180.000000        0.035145         2
        26        25        27        53     9        0.000000        0.537983         3
        26        25        27        53     9      180.000000        0.036905         4
        26        25        27        54     9        0.000000       -0.086644         1
        26        25        27        54     9      180.000000        0.035145         2
        26        25        27        54     9        0.000000        0.537983         3
        26        25        27        54     9      180.000000        0.036905         4
        26        25        28        55     9        0.000000       -0.086644         1
        26        25        28        55     9      180.000000        0.035145         2
        26        25        28        55     9        0.000000        0.537983         3
        26        25        28        55     9      180.000000        0.036905         4
        26        25        28        56     9        0.000000       -0.086644         1
        26        25        28        56     9      180.000000        0.035145         2
        26        25        28        56     9        0.000000        0.537983         3
        26        25        28        56     9      180.000000        0.036905         4
        26        25        28        57     9        0.000000       -0.086644         1
        26        25        28        57     9      180.000000        0.035145         2
        26        25        28        57     9        0.000000        0.537983         3
        26        25        28        57     9      180.000000        0.036905         4
        27        25        24        29     9        0.000000       -0.030935         1
        27        25        24        29     9      180.000000        0.213256         2
        27        25        24        29     9        0.000000       -0.004862         3
        27        25        24        29     9      180.000000        0.242485         4
        27        25        26        49     9        0.000000       -0.086644         1
        27        25        26        49     9      180.000000        0.035145         2
        27        25        26        49     9        0.000000        0.537983         3
        27        25        26        49     9      180.000000        0.036905         4
        27        25        26        50     9        0.000000       -0.086644         1
        27        25        26        50     9      180.000000        0.035145         2
        27        25        26        50     9        0.000000        0.537983         3
        27        25        26        50     9      180.000000        0.036905         4
        27        25        26        51     9        0.000000       -0.086644         1
        27        25        26        51     9      180.000000        0.035145         2
        27        25        26        51     9        0.000000        0.537983         3
        27        25        26        51     9      180.000000        0.036905         4
        27        25        28        55     9        0.000000       -0.086644         1
        27        25        28        55     9      180.000000        0.035145         2
        27        25        28        55     9        0.000000        0.537983         3
        27        25        28        55     9      180.000000        0.036905         4
        27        25        28        56     9        0.000000       -0.086644         1
        27        25        28        56     9      180.000000        0.035145         2
        27        25        28        56     9        0.000000        0.537983         3
        27        25        28        56     9      180.000000        0.036905         4
        27        25        28        57     9        0.000000       -0.086644         1
        27        25        28        57     9      180.000000        0.035145         2
        27        25        28        57     9        0.000000        0.537983         3
        27        25        28        57     9      180.000000        0.036905         4
        28        25        24        29     9        0.000000       -0.030935         1
        28        25        24        29     9      180.000000        0.213256         2
        28        25        24        29     9        0.000000       -0.004862         3
        28        25        24        29     9      180.000000        0.242485         4
        28        25        26        49     9        0.000000       -0.086644         1
        28        25        26        49     9      180.000000        0.035145         2
        28        25        26        49     9        0.000000        0.537983         3
        28        25        26        49     9      180.000000        0.036905         4
        28        25        26        50     9        0.000000       -0.086644         1
        28        25        26        50     9      180.000000        0.035145         2
        28        25        26        50     9        0.000000        0.537983         3
        28        25        26        50     9      180.000000        0.036905         4
        28        25        26        51     9        0.000000       -0.086644         1
        28        25        26        51     9      180.000000        0.035145         2
        28        25        26        51     9        0.000000        0.537983         3
        28        25        26        51     9      180.000000        0.036905         4
        28        25        27        52     9        0.000000       -0.086644         1
        28        25        27        52     9      180.000000        0.035145         2
        28        25        27        52     9        0.000000        0.537983         3
        28        25        27        52     9      180.000000        0.036905         4
        28        25        27        53     9        0.000000       -0.086644         1
        28        25        27        53     9      180.000000        0.035145         2
        28        25        27        53     9        0.000000        0.537983         3
        28        25        27        53     9      180.000000        0.036905         4
        28        25        27        54     9        0.000000       -0.086644         1
        28        25        27        54     9      180.000000        0.035145         2
        28        25        27        54     9        0.000000        0.537983         3
        28        25        27        54     9      180.000000        0.036905         4
        29        24        23        48     9        0.000000       -0.005917         1
        29        24        23        48     9      180.000000       14.558912         2
        29        24        23        48     9        0.000000       -0.672140         3
        29        24        23        48     9      180.000000        0.069638         4
        30        21        20        46     9        0.000000        0.001970         1
        30        21        20        46     9      180.000000        2.217649         2
        30        21        20        46     9        0.000000       -0.038641         3
        30        21        20        46     9      180.000000       -0.108341         4
        30        21        22        47     9        0.000000        0.181755         1
        30        21        22        47     9      180.000000       12.863852         2
        30        21        22        47     9        0.000000       -0.486094         3
        30        21        22        47     9      180.000000        0.100479         4
        32         9        10        33     9        0.000000        0.108926         1
        32         9        10        33     9      180.000000        0.043783         2
        32         9        10        33     9        0.000000        0.565116         3
        32         9        10        33     9      180.000000       -0.025894         4
        32         9        10        34     9        0.000000        0.108926         1
        32         9        10        34     9      180.000000        0.043783         2
        32         9        10        34     9        0.000000        0.565116         3
        32         9        10        34     9      180.000000       -0.025894         4
        32         9        10        35     9        0.000000        0.108926         1
        32         9        10        35     9      180.000000        0.043783         2
        32         9        10        35     9        0.000000        0.565116         3
        32         9        10        35     9      180.000000       -0.025894         4
        32         9        11        36     9        0.000000        0.108926         1
        32         9        11        36     9      180.000000        0.043783         2
        32         9        11        36     9        0.000000        0.565116         3
        32         9        11        36     9      180.000000       -0.025894         4
        32         9        11        37     9        0.000000        0.108926         1
        32         9        11        37     9      180.000000        0.043783         2
        32         9        11        37     9        0.000000        0.565116         3
        32         9        11        37     9      180.000000       -0.025894         4
        32         9        11        38     9        0.000000        0.108926         1
        32         9        11        38     9      180.000000        0.043783         2
        32         9        11        38     9        0.000000        0.565116         3
        32         9        11        38     9      180.000000       -0.025894         4
        39        12        13        40     9        0.000000       -0.209108         1
        39        12        13        40     9      180.000000       11.321332         2
        39        12        13        40     9        0.000000       -0.679119         3
        39        12        13        40     9      180.000000        0.277055         4
        40        13        14        41     9        0.000000       -0.067583         1
        40        13        14        41     9      180.000000       11.932082         2
        40        13        14        41     9        0.000000       -0.603255         3
        40        13        14        41     9      180.000000        0.217131         4
        41        14        15        42     9        0.000000       -0.063191         1
        41        14        15        42     9      180.000000       11.914445         2
        41        14        15        42     9        0.000000       -0.646031         3
        41        14        15        42     9      180.000000        0.201307         4
        43        17        18        44     9        0.000000       -0.153197         1
        43        17        18        44     9      180.000000       12.054830         2
        43        17        18        44     9        0.000000       -0.693173         3
        43        17        18        44     9      180.000000        0.290660         4
        44        18        19        45     9        0.000000       -0.114528         1
        44        18        19        45     9      180.000000       11.840302         2
        44        18        19        45     9        0.000000       -0.671560         3
        44        18        19        45     9      180.000000        0.313357         4
        47        22        23        48     9        0.000000       -0.204325         1
        47        22        23        48     9      180.000000       12.068206         2
        47        22        23        48     9        0.000000       -0.807306         3
        47        22        23        48     9      180.000000        0.348062         4
        58        29        30        59     9        0.000000       -0.204325         1
        58        29        30        59     9      180.000000       12.068206         2
        58        29        30        59     9        0.000000       -0.807306         3
        58        29        30        59     9      180.000000        0.348062         4

[ dihedrals ] ; impropers
;       ai        aj        ak        al funct           phase               k        pn
         2         1         3        20     4      180.000000       20.276479         2
         2         3        20         1     4      180.000000       20.276479         2
         2        20         1         3     4      180.000000       20.276479         2
        12         8        13        39     4      180.000000        1.374544         2
        12        13        39         8     4      180.000000        1.374544         2
        12        39         8        13     4      180.000000        1.374544         2
        13        12        14        40     4      180.000000        0.805260         2
        13        14        40        12     4      180.000000        0.805260         2
        13        40        12        14     4      180.000000        0.805260         2
        14        13        15        41     4      180.000000        1.463014         2
        14        15        41        13     4      180.000000        1.463014         2
        14        41        13        15     4      180.000000        1.463014         2
        15         7        14        42     4      180.000000        0.015108         2
        15        14        42         7     4      180.000000        0.015108         2
        15        42         7        14     4      180.000000        0.015108         2
        17        16        18        43     4      180.000000        0.546116         2
        17        18        43        16     4      180.000000        0.546116         2
        17        43        16        18     4      180.000000        0.546116         2

[ pairs ]
;       ai        aj funct
         1         4     1
         1        21     1
         1        31     1
         1        46     1
         2         5     1
         2        19     1
         2        22     1
         2        30     1
         3         6     1
         3        16     1
         3        18     1
         3        21     1
         3        45     1
         3        46     1
         4         7     1
         4        17     1
         4        20     1
         4        44     1
         5         8     1
         5        15     1
         5        18     1
         5        31     1
         5        43     1
         5        45     1
         6         9     1
         6        12     1
         6        14     1
         6        17     1
         6        19     1
         6        42     1
         7        10     1
         7        11     1
         7        13     1
         7        16     1
         7        32     1
         7        39     1
         7        41     1
         8        14     1
         8        33     1
         8        34     1
         8        35     1
         8        36     1
         8        37     1
         8        38     1
         8        40     1
         8        42     1
         9        13     1
         9        15     1
         9        39     1
        10        12     1
        10        36     1
        10        37     1
        10        38     1
        11        12     1
        11        33     1
        11        34     1
        11        35     1
        12        15     1
        12        32     1
        12        41     1
        13        42     1
        14        39     1
        15        40     1
        16        19     1
        16        44     1
        17        45     1
        19        31     1
        19        43     1
        20        23     1
        20        29     1
        20        31     1
        20        47     1
        20        59     1
        21        24     1
        21        48     1
        21        58     1
        22        25     1
        22        29     1
        22        46     1
        22        59     1
        23        26     1
        23        27     1
        23        28     1
        23        30     1
        23        58     1
        24        47     1
        24        49     1
        24        50     1
        24        51     1
        24        52     1
        24        53     1
        24        54     1
        24        55     1
        24        56     1
        24        57     1
        24        59     1
        25        30     1
        25        48     1
        25        58     1
        26        29     1
        26        52     1
        26        53     1
        26        54     1
        26        55     1
        26        56     1
        26        57     1
        27        29     1
        27        49     1
        27        50     1
        27        51     1
        27        55     1
        27        56     1
        27        57     1
        28        29     1
        28        49     1
        28        50     1
        28        51     1
        28        52     1
        28        53     1
        28        54     1
        29        48     1
        30        46     1
        30        47     1
        32        33     1
        32        34     1
        32        35     1
        32        36     1
        32        37     1
        32        38     1
        39        40     1
        40        41     1
        41        42     1
        43        44     1
        44        45     1
        47        48     1
        58        59     1
