; ITP file created by ByteFF-ML, 2026-03-15 01:46:54.086473

[ atomtypes ]
;name           bonded.type        at.num        mass        charge   ptype           sigma         epsilon
 f0bf                                   9      0.0000       0.00000       A     3.03474e-01     3.50336e-01
 c1bf                                   6      0.0000       0.00000       A     3.39967e-01     4.52452e-01
 f2bf                                   9      0.0000       0.00000       A     3.03474e-01     3.50336e-01
 f3bf                                   9      0.0000       0.00000       A     3.03474e-01     3.50336e-01
 o4bf                                   8      0.0000       0.00000       A     3.15884e-01     3.02398e-01
 c5bf                                   6      0.0000       0.00000       A     3.31648e-01     4.14415e-01
 c6bf                                   6      0.0000       0.00000       A     3.31536e-01     4.12700e-01
 c7bf                                   6      0.0000       0.00000       A     3.31448e-01     4.11586e-01
 c8bf                                   6      0.0000       0.00000       A     3.31332e-01     4.11216e-01
 n9bf                                   7      0.0000       0.00000       A     3.27155e-01     4.89269e-01
 c10bf                                  6      0.0000       0.00000       A     3.31259e-01     4.14898e-01
 o11bf                                  8      0.0000       0.00000       A     3.04781e-01     6.14498e-01
 n12bf                                  7      0.0000       0.00000       A     3.26853e-01     4.96156e-01
 c13bf                                  6      0.0000       0.00000       A     3.31219e-01     4.13182e-01
 c14bf                                  6      0.0000       0.00000       A     3.31208e-01     4.10333e-01
 o15bf                                  8      0.0000       0.00000       A     3.15581e-01     3.04077e-01
 c16bf                                  6      0.0000       0.00000       A     3.31311e-01     4.13613e-01
 c17bf                                  6      0.0000       0.00000       A     3.31456e-01     4.10263e-01
 c18bf                                  6      0.0000       0.00000       A     3.39747e-01     4.50746e-01
 c19bf                                  6      0.0000       0.00000       A     3.39811e-01     4.50352e-01
 c20bf                                  6      0.0000       0.00000       A     3.39811e-01     4.50352e-01
 c21bf                                  6      0.0000       0.00000       A     3.31561e-01     4.12499e-01
 c22bf                                  6      0.0000       0.00000       A     3.31508e-01     4.13087e-01
 c23bf                                  6      0.0000       0.00000       A     3.31526e-01     4.13154e-01
 c24bf                                  6      0.0000       0.00000       A     3.31480e-01     4.13417e-01
 n25bf                                  7      0.0000       0.00000       A     3.38247e-01     3.91955e-01
 c26bf                                  6      0.0000       0.00000       A     3.31514e-01     4.12560e-01
 c27bf                                  6      0.0000       0.00000       A     3.31481e-01     4.12981e-01
 c28bf                                  6      0.0000       0.00000       A     3.31584e-01     4.13224e-01
 c29bf                                  6      0.0000       0.00000       A     3.31448e-01     4.11586e-01
 c30bf                                  6      0.0000       0.00000       A     3.31536e-01     4.12700e-01
 h31bf                                  1      0.0000       0.00000       A     2.62481e-01     6.70078e-02
 h32bf                                  1      0.0000       0.00000       A     2.62511e-01     6.75999e-02
 h33bf                                  1      0.0000       0.00000       A     1.10460e-01     4.18649e-02
 h34bf                                  1      0.0000       0.00000       A     1.10974e-01     4.12520e-02
 h35bf                                  1      0.0000       0.00000       A     2.60085e-01     8.80120e-02
 h36bf                                  1      0.0000       0.00000       A     2.59911e-01     8.75237e-02
 h37bf                                  1      0.0000       0.00000       A     2.59911e-01     8.75237e-02
 h38bf                                  1      0.0000       0.00000       A     2.59911e-01     8.75237e-02
 h39bf                                  1      0.0000       0.00000       A     2.59911e-01     8.75237e-02
 h40bf                                  1      0.0000       0.00000       A     2.59911e-01     8.75237e-02
 h41bf                                  1      0.0000       0.00000       A     2.59911e-01     8.75237e-02
 h42bf                                  1      0.0000       0.00000       A     2.62507e-01     6.79223e-02
 h43bf                                  1      0.0000       0.00000       A     2.62458e-01     6.72983e-02
 h44bf                                  1      0.0000       0.00000       A     2.62489e-01     6.72695e-02
 h45bf                                  1      0.0000       0.00000       A     2.62444e-01     6.72089e-02
 h46bf                                  1      0.0000       0.00000       A     2.53538e-01     6.71594e-02
 h47bf                                  1      0.0000       0.00000       A     2.62506e-01     6.74387e-02
 h48bf                                  1      0.0000       0.00000       A     2.62621e-01     6.73062e-02
 h49bf                                  1      0.0000       0.00000       A     2.62511e-01     6.75999e-02
 h50bf                                  1      0.0000       0.00000       A     2.62481e-01     6.70078e-02

[ moleculetype ]
;name             nrexcl
 19                    3

[ atoms ]
;       nr            type      resi   res      atom      cgnr      charge          mass ; qtot
         1            f0bf         1   UNL        f0         1    -0.09106       18.9980 ; qtot   -0.091
         2            c1bf         1   UNL        c1         2     0.49711       12.0110 ; qtot    0.406
         3            f2bf         1   UNL        f2         3    -0.09106       18.9980 ; qtot    0.315
         4            f3bf         1   UNL        f3         4    -0.09106       18.9980 ; qtot    0.224
         5            o4bf         1   UNL        o4         5    -0.38246       15.9990 ; qtot   -0.159
         6            c5bf         1   UNL        c5         6     0.07653       12.0110 ; qtot   -0.082
         7            c6bf         1   UNL        c6         7    -0.08838       12.0110 ; qtot   -0.170
         8            c7bf         1   UNL        c7         8    -0.12373       12.0110 ; qtot   -0.294
         9            c8bf         1   UNL        c8         9    -0.04617       12.0110 ; qtot   -0.340
        10            n9bf         1   UNL        n9        10    -0.16106       14.0070 ; qtot   -0.501
        11           c10bf         1   UNL       c10        11     0.65911       12.0110 ; qtot    0.158
        12           o11bf         1   UNL       o11        12    -0.59569       15.9990 ; qtot   -0.438
        13           n12bf         1   UNL       n12        13    -0.15042       14.0070 ; qtot   -0.588
        14           c13bf         1   UNL       c13        14    -0.06851       12.0110 ; qtot   -0.657
        15           c14bf         1   UNL       c14        15     0.52000       12.0110 ; qtot   -0.137
        16           o15bf         1   UNL       o15        16    -0.38249       15.9990 ; qtot   -0.519
        17           c16bf         1   UNL       c16        17     0.11000       12.0110 ; qtot   -0.409
        18           c17bf         1   UNL       c17        18    -0.07763       12.0110 ; qtot   -0.487
        19           c18bf         1   UNL       c18        19    -0.01481       12.0110 ; qtot   -0.502
        20           c19bf         1   UNL       c19        20    -0.08705       12.0110 ; qtot   -0.589
        21           c20bf         1   UNL       c20        21    -0.08705       12.0110 ; qtot   -0.676
        22           c21bf         1   UNL       c21        22    -0.09152       12.0110 ; qtot   -0.767
        23           c22bf         1   UNL       c22        23    -0.12538       12.0110 ; qtot   -0.893
        24           c23bf         1   UNL       c23        24    -0.10092       12.0110 ; qtot   -0.994
        25           c24bf         1   UNL       c24        25    -0.11627       12.0110 ; qtot   -1.110
        26           n25bf         1   UNL       n25        26    -0.70674       14.0070 ; qtot   -1.817
        27           c26bf         1   UNL       c26        27     0.34178       12.0110 ; qtot   -1.475
        28           c27bf         1   UNL       c27        28    -0.15962       12.0110 ; qtot   -1.635
        29           c28bf         1   UNL       c28        29    -0.08259       12.0110 ; qtot   -1.717
        30           c29bf         1   UNL       c29        30    -0.12373       12.0110 ; qtot   -1.841
        31           c30bf         1   UNL       c30        31    -0.08838       12.0110 ; qtot   -1.929
        32           h31bf         1   UNL       h31        32     0.13324        1.0080 ; qtot   -1.796
        33           h32bf         1   UNL       h32        33     0.13135        1.0080 ; qtot   -1.665
        34           h33bf         1   UNL       h33        34     0.15557        1.0080 ; qtot   -1.509
        35           h34bf         1   UNL       h34        35     0.17579        1.0080 ; qtot   -1.333
        36           h35bf         1   UNL       h35        36     0.05310        1.0080 ; qtot   -1.280
        37           h36bf         1   UNL       h36        37     0.03686        1.0080 ; qtot   -1.243
        38           h37bf         1   UNL       h37        38     0.03686        1.0080 ; qtot   -1.206
        39           h38bf         1   UNL       h38        39     0.03686        1.0080 ; qtot   -1.170
        40           h39bf         1   UNL       h39        40     0.03686        1.0080 ; qtot   -1.133
        41           h40bf         1   UNL       h40        41     0.03686        1.0080 ; qtot   -1.096
        42           h41bf         1   UNL       h41        42     0.03686        1.0080 ; qtot   -1.059
        43           h42bf         1   UNL       h42        43     0.11747        1.0080 ; qtot   -0.942
        44           h43bf         1   UNL       h43        44     0.11706        1.0080 ; qtot   -0.825
        45           h44bf         1   UNL       h44        45     0.11856        1.0080 ; qtot   -0.706
        46           h45bf         1   UNL       h45        46     0.13094        1.0080 ; qtot   -0.575
        47           h46bf         1   UNL       h46        47     0.02910        1.0080 ; qtot   -0.546
        48           h47bf         1   UNL       h47        48     0.12997        1.0080 ; qtot   -0.416
        49           h48bf         1   UNL       h48        49     0.15134        1.0080 ; qtot   -0.265
        50           h49bf         1   UNL       h49        50     0.13135        1.0080 ; qtot   -0.133
        51           h50bf         1   UNL       h50        51     0.13325        1.0080 ; qtot   -0.000

[ bonds ]
;       ai        aj funct               r               k
         1         2     1        0.134864   220029.317676
         2         3     1        0.134864   220029.317676
         2         4     1        0.134864   220029.317676
         2         5     1        0.135666   213729.746924
         5         6     1        0.140967   208707.542383
         6         7     1        0.139445   303670.628955
         6        31     1        0.139445   303670.628955
         7         8     1        0.139533   327862.443408
         7        32     1        0.108428   324148.070850
         8         9     1        0.140323   287297.919873
         8        33     1        0.108425   324344.732129
         9        10     1        0.141474   245196.981689
         9        30     1        0.140323   287297.894336
        10        11     1        0.138361   251727.561133
        10        34     1        0.101091   419225.921191
        11        12     1        0.122725   593985.707227
        11        13     1        0.138886   239709.822998
        13        14     1        0.140423   262254.059766
        13        35     1        0.101419   408858.186768
        14        15     1        0.141493   241216.997656
        14        29     1        0.139669   302796.953369
        15        16     1        0.137688   229919.533691
        15        26     1        0.131662   340536.893848
        16        17     1        0.140003   215099.480859
        17        18     1        0.140369   270011.416406
        17        25     1        0.139391   303476.827832
        18        19     1        0.152096   182610.046680
        18        22     1        0.140227   292456.492578
        19        20     1        0.154011   178690.100391
        19        21     1        0.154011   178690.100391
        19        36     1        0.109479   301003.380029
        20        37     1        0.109408   299366.706689
        20        38     1        0.109408   299366.706689
        20        39     1        0.109408   299366.706689
        21        40     1        0.109408   299366.706689
        21        41     1        0.109408   299366.706689
        21        42     1        0.109408   299366.706689
        22        23     1        0.139811   311436.514990
        22        43     1        0.108605   317511.537939
        23        24     1        0.139718   309259.859473
        23        44     1        0.108595   320253.687207
        24        25     1        0.139737   313263.414258
        24        45     1        0.108603   320355.963330
        25        46     1        0.108493   322522.199707
        26        27     1        0.134429   311714.895020
        27        28     1        0.139139   305686.170850
        27        47     1        0.108728   317581.203174
        28        29     1        0.140003   313082.713672
        28        48     1        0.108503   324361.765381
        29        49     1        0.108193   330892.421436
        30        31     1        0.139533   327862.443408
        30        50     1        0.108425   324344.732129
        31        51     1        0.108428   324148.070850

[ angles ]
;       ai        aj        ak funct           theta             cth
         1         2         3     1      107.789635      688.122566
         1         2         4     1      107.789635      688.122566
         1         2         5     1      111.080368      593.957029
         2         5         6     1      118.484009      469.942314
         3         2         4     1      107.789635      688.122566
         3         2         5     1      111.080368      593.957029
         4         2         5     1      111.080368      593.957029
         5         6         7     1      119.493362      546.119511
         5         6        31     1      119.493362      546.119447
         6         7         8     1      119.667404      663.781423
         6         7        32     1      120.110886      439.898256
         6        31        30     1      119.667404      663.781423
         6        31        51     1      120.110886      439.898256
         7         6        31     1      120.773544      544.974810
         7         8         9     1      120.400551      726.947655
         7         8        33     1      119.827530      395.021415
         8         7        32     1      119.990219      422.360965
         8         9        10     1      120.710670      608.998450
         8         9        30     1      118.693748      466.142839
         9         8        33     1      119.781570      445.987420
         9        10        11     1      128.318619      460.296756
         9        10        34     1      114.794296      450.963549
         9        30        31     1      120.400551      726.947719
         9        30        50     1      119.781570      445.987420
        10         9        30     1      120.710670      608.998450
        10        11        12     1      124.614891      546.971174
        10        11        13     1      112.608353      544.959169
        11        10        34     1      116.246033      460.361876
        11        13        14     1      126.276352      452.689379
        11        13        35     1      117.628128      436.697498
        12        11        13     1      123.886490      550.707764
        13        14        15     1      117.570358      431.330364
        13        14        29     1      125.502136      569.232191
        14        13        35     1      114.048378      434.130349
        14        15        16     1      117.057785      363.154709
        14        15        26     1      124.240524      669.889964
        14        29        28     1      118.717087      830.537407
        14        29        49     1      119.480087      442.212844
        15        14        29     1      116.908203      645.538096
        15        16        17     1      119.105576      453.726313
        15        26        27     1      118.225037      718.638965
        16        15        26     1      119.284790      571.632552
        16        17        18     1      119.012283      416.035008
        16        17        25     1      118.173058      496.825325
        17        18        19     1      121.963150      472.869824
        17        18        22     1      116.639038      686.014797
        17        25        24     1      119.495911      682.289443
        17        25        46     1      119.308472      396.924217
        18        17        25     1      122.270401      651.135383
        18        19        20     1      111.840332      607.737556
        18        19        21     1      111.840332      607.737556
        18        19        36     1      106.792702      487.872429
        18        22        23     1      121.934067      705.157733
        18        22        43     1      118.851585      384.268536
        19        18        22     1      121.390198      492.041713
        19        20        37     1      110.888367      496.553418
        19        20        38     1      110.888367      496.553418
        19        20        39     1      110.888367      496.553418
        19        21        40     1      110.888367      496.553418
        19        21        41     1      110.888367      496.553418
        19        21        42     1      110.888367      496.553418
        20        19        21     1      111.185913      573.405402
        20        19        36     1      107.297104      492.093618
        21        19        36     1      107.297104      492.093618
        22        23        24     1      119.680313      701.716097
        22        23        44     1      120.030411      432.973454
        23        22        43     1      119.338562      425.493890
        23        24        25     1      119.693092      704.812344
        23        24        45     1      120.541077      419.675132
        24        23        44     1      120.365540      430.932177
        24        25        46     1      121.310501      423.569445
        25        24        45     1      119.805252      428.614940
        26        27        28     1      122.499290      661.638094
        26        27        47     1      116.190018      392.705071
        27        28        29     1      119.055466      724.683024
        27        28        48     1      120.600418      442.820723
        28        27        47     1      121.265182      408.189051
        28        29        49     1      121.786964      385.096928
        29        28        48     1      120.423500      439.039347
        30        31        51     1      119.990219      422.360965
        31        30        50     1      119.827530      395.021447
        37        20        38     1      108.025391      363.335161
        37        20        39     1      108.025391      363.335161
        38        20        39     1      108.025391      363.335161
        40        21        41     1      108.025391      363.335161
        40        21        42     1      108.025391      363.335161
        41        21        42     1      108.025391      363.335161

[ dihedrals ] ; propers for gromacs 4.5 or higher, use funct 9
;       ai        aj        ak        al funct           phase               k        pn
         1         2         5         6     9        0.000000        0.116564         1
         1         2         5         6     9      180.000000       -0.194264         2
         1         2         5         6     9        0.000000        1.252707         3
         1         2         5         6     9      180.000000       -0.000549         4
         2         5         6         7     9        0.000000       -0.154585         1
         2         5         6         7     9      180.000000        1.828369         2
         2         5         6         7     9        0.000000        0.069046         3
         2         5         6         7     9      180.000000        0.005501         4
         2         5         6        31     9        0.000000       -0.154585         1
         2         5         6        31     9      180.000000        1.828369         2
         2         5         6        31     9        0.000000        0.069046         3
         2         5         6        31     9      180.000000        0.005501         4
         3         2         5         6     9        0.000000        0.116564         1
         3         2         5         6     9      180.000000       -0.194264         2
         3         2         5         6     9        0.000000        1.252707         3
         3         2         5         6     9      180.000000       -0.000549         4
         4         2         5         6     9        0.000000        0.116564         1
         4         2         5         6     9      180.000000       -0.194264         2
         4         2         5         6     9        0.000000        1.252707         3
         4         2         5         6     9      180.000000       -0.000549         4
         5         6         7         8     9        0.000000        0.581632         1
         5         6         7         8     9      180.000000       18.503695         2
         5         6         7         8     9        0.000000        0.353273         3
         5         6         7         8     9      180.000000       -0.409629         4
         5         6         7        32     9        0.000000        0.207379         1
         5         6         7        32     9      180.000000       13.499285         2
         5         6         7        32     9        0.000000        0.095434         3
         5         6         7        32     9      180.000000        0.194477         4
         5         6        31        30     9        0.000000        0.581632         1
         5         6        31        30     9      180.000000       18.503695         2
         5         6        31        30     9        0.000000        0.353274         3
         5         6        31        30     9      180.000000       -0.409629         4
         5         6        31        51     9        0.000000        0.207380         1
         5         6        31        51     9      180.000000       13.499285         2
         5         6        31        51     9        0.000000        0.095434         3
         5         6        31        51     9      180.000000        0.194476         4
         6         7         8         9     9        0.000000       -0.107607         1
         6         7         8         9     9      180.000000       18.778119         2
         6         7         8         9     9        0.000000       -1.598431         3
         6         7         8         9     9      180.000000       -0.560085         4
         6         7         8        33     9        0.000000        0.153719         1
         6         7         8        33     9      180.000000       14.866393         2
         6         7         8        33     9        0.000000       -0.371659         3
         6         7         8        33     9      180.000000        0.067468         4
         6        31        30         9     9        0.000000       -0.107607         1
         6        31        30         9     9      180.000000       18.778119         2
         6        31        30         9     9        0.000000       -1.598432         3
         6        31        30         9     9      180.000000       -0.560085         4
         6        31        30        50     9        0.000000        0.153719         1
         6        31        30        50     9      180.000000       14.866396         2
         6        31        30        50     9        0.000000       -0.371659         3
         6        31        30        50     9      180.000000        0.067469         4
         7         6        31        30     9        0.000000       -0.016255         1
         7         6        31        30     9      180.000000       16.814132         2
         7         6        31        30     9        0.000000       -1.195827         3
         7         6        31        30     9      180.000000       -0.326129         4
         7         6        31        51     9        0.000000        0.081829         1
         7         6        31        51     9      180.000000       12.724012         2
         7         6        31        51     9        0.000000       -0.580575         3
         7         6        31        51     9      180.000000        0.149684         4
         7         8         9        10     9        0.000000        0.317687         1
         7         8         9        10     9      180.000000       16.922223         2
         7         8         9        10     9        0.000000        0.094846         3
         7         8         9        10     9      180.000000       -0.239036         4
         7         8         9        30     9        0.000000        0.007992         1
         7         8         9        30     9      180.000000       16.292047         2
         7         8         9        30     9        0.000000       -1.291468         3
         7         8         9        30     9      180.000000       -0.162802         4
         8         7         6        31     9        0.000000       -0.016255         1
         8         7         6        31     9      180.000000       16.814130         2
         8         7         6        31     9        0.000000       -1.195826         3
         8         7         6        31     9      180.000000       -0.326129         4
         8         9        10        11     9        0.000000        0.050801         1
         8         9        10        11     9      180.000000        1.652056         2
         8         9        10        11     9        0.000000       -0.187638         3
         8         9        10        11     9      180.000000        0.312775         4
         8         9        10        34     9        0.000000        0.020986         1
         8         9        10        34     9      180.000000        1.736251         2
         8         9        10        34     9        0.000000       -0.027645         3
         8         9        10        34     9      180.000000       -0.037844         4
         8         9        30        31     9        0.000000        0.007993         1
         8         9        30        31     9      180.000000       16.292047         2
         8         9        30        31     9        0.000000       -1.291468         3
         8         9        30        31     9      180.000000       -0.162801         4
         8         9        30        50     9        0.000000        0.169200         1
         8         9        30        50     9      180.000000       12.671206         2
         8         9        30        50     9        0.000000       -0.507606         3
         8         9        30        50     9      180.000000        0.121684         4
         9         8         7        32     9        0.000000        0.070365         1
         9         8         7        32     9      180.000000       14.433512         2
         9         8         7        32     9        0.000000       -0.509097         3
         9         8         7        32     9      180.000000        0.047992         4
         9        10        11        12     9        0.000000       -3.326496         1
         9        10        11        12     9      180.000000        4.659211         2
         9        10        11        12     9        0.000000       -0.615636         3
         9        10        11        12     9      180.000000       -0.229728         4
         9        10        11        13     9        0.000000        6.364926         1
         9        10        11        13     9      180.000000        5.766825         2
         9        10        11        13     9        0.000000       -0.023160         3
         9        10        11        13     9      180.000000       -0.123542         4
         9        30        31        51     9        0.000000        0.070366         1
         9        30        31        51     9      180.000000       14.433513         2
         9        30        31        51     9        0.000000       -0.509098         3
         9        30        31        51     9      180.000000        0.047991         4
        10         9         8        33     9        0.000000       -0.080423         1
        10         9         8        33     9      180.000000       13.134664         2
        10         9         8        33     9        0.000000       -0.285581         3
        10         9         8        33     9      180.000000        0.234511         4
        10         9        30        31     9        0.000000        0.317686         1
        10         9        30        31     9      180.000000       16.922225         2
        10         9        30        31     9        0.000000        0.094847         3
        10         9        30        31     9      180.000000       -0.239037         4
        10         9        30        50     9        0.000000       -0.080423         1
        10         9        30        50     9      180.000000       13.134664         2
        10         9        30        50     9        0.000000       -0.285581         3
        10         9        30        50     9      180.000000        0.234510         4
        10        11        13        14     9        0.000000        5.532905         1
        10        11        13        14     9      180.000000        6.358717         2
        10        11        13        14     9        0.000000       -0.051282         3
        10        11        13        14     9      180.000000       -0.158612         4
        10        11        13        35     9        0.000000        4.448997         1
        10        11        13        35     9      180.000000        6.844593         2
        10        11        13        35     9        0.000000       -0.391997         3
        10        11        13        35     9      180.000000        0.190844         4
        11        10         9        30     9        0.000000        0.050802         1
        11        10         9        30     9      180.000000        1.652056         2
        11        10         9        30     9        0.000000       -0.187638         3
        11        10         9        30     9      180.000000        0.312775         4
        11        13        14        15     9        0.000000       -1.944441         1
        11        13        14        15     9      180.000000        1.909133         2
        11        13        14        15     9        0.000000        0.330251         3
        11        13        14        15     9      180.000000       -0.057144         4
        11        13        14        29     9        0.000000       -0.468535         1
        11        13        14        29     9      180.000000        1.875921         2
        11        13        14        29     9        0.000000       -0.412224         3
        11        13        14        29     9      180.000000        0.469219         4
        12        11        10        34     9        0.000000       -1.928212         1
        12        11        10        34     9      180.000000        5.896343         2
        12        11        10        34     9        0.000000        0.137627         3
        12        11        10        34     9      180.000000        0.130541         4
        12        11        13        14     9        0.000000       -2.531743         1
        12        11        13        14     9      180.000000        4.872688         2
        12        11        13        14     9        0.000000       -0.696803         3
        12        11        13        14     9      180.000000       -0.176057         4
        12        11        13        35     9        0.000000       -2.204784         1
        12        11        13        35     9      180.000000        5.153815         2
        12        11        13        35     9        0.000000       -0.121163         3
        12        11        13        35     9      180.000000       -0.071652         4
        13        11        10        34     9        0.000000        4.782917         1
        13        11        10        34     9      180.000000        6.982784         2
        13        11        10        34     9        0.000000       -0.564198         3
        13        11        10        34     9      180.000000        0.312932         4
        13        14        15        16     9        0.000000        0.135015         1
        13        14        15        16     9      180.000000       15.761035         2
        13        14        15        16     9        0.000000        0.299689         3
        13        14        15        16     9      180.000000       -0.366476         4
        13        14        15        26     9        0.000000        0.234046         1
        13        14        15        26     9      180.000000       12.396332         2
        13        14        15        26     9        0.000000       -0.098079         3
        13        14        15        26     9      180.000000       -0.323170         4
        13        14        29        28     9        0.000000        0.334774         1
        13        14        29        28     9      180.000000       18.629022         2
        13        14        29        28     9        0.000000        0.316335         3
        13        14        29        28     9      180.000000       -0.464757         4
        13        14        29        49     9        0.000000        0.246514         1
        13        14        29        49     9      180.000000       14.352632         2
        13        14        29        49     9        0.000000       -0.128549         3
        13        14        29        49     9      180.000000        0.162568         4
        14        15        16        17     9        0.000000        3.433305         1
        14        15        16        17     9      180.000000        3.267518         2
        14        15        16        17     9        0.000000       -0.030254         3
        14        15        16        17     9      180.000000       -0.184303         4
        14        15        26        27     9        0.000000        0.153022         1
        14        15        26        27     9      180.000000       23.194030         2
        14        15        26        27     9        0.000000       -0.202035         3
        14        15        26        27     9      180.000000       -0.076951         4
        14        29        28        27     9        0.000000        0.066168         1
        14        29        28        27     9      180.000000       18.396385         2
        14        29        28        27     9        0.000000       -2.102023         3
        14        29        28        27     9      180.000000       -0.535985         4
        14        29        28        48     9        0.000000        0.126273         1
        14        29        28        48     9      180.000000       15.018723         2
        14        29        28        48     9        0.000000       -0.647982         3
        14        29        28        48     9      180.000000       -0.080098         4
        15        14        13        35     9        0.000000        1.829921         1
        15        14        13        35     9      180.000000        1.552929         2
        15        14        13        35     9        0.000000        0.507373         3
        15        14        13        35     9      180.000000       -0.389573         4
        15        14        29        28     9        0.000000        0.032265         1
        15        14        29        28     9      180.000000       17.762490         2
        15        14        29        28     9        0.000000       -1.200442         3
        15        14        29        28     9      180.000000       -0.505589         4
        15        14        29        49     9        0.000000        0.124033         1
        15        14        29        49     9      180.000000       13.604565         2
        15        14        29        49     9        0.000000       -0.394719         3
        15        14        29        49     9      180.000000        0.035208         4
        15        16        17        18     9        0.000000       -0.072089         1
        15        16        17        18     9      180.000000        2.770768         2
        15        16        17        18     9        0.000000        0.217725         3
        15        16        17        18     9      180.000000        0.085142         4
        15        16        17        25     9        0.000000        0.030028         1
        15        16        17        25     9      180.000000        3.352751         2
        15        16        17        25     9        0.000000       -1.060393         3
        15        16        17        25     9      180.000000        0.448819         4
        15        26        27        28     9        0.000000        0.073191         1
        15        26        27        28     9      180.000000       22.238216         2
        15        26        27        28     9        0.000000       -1.107263         3
        15        26        27        28     9      180.000000       -0.348060         4
        15        26        27        47     9        0.000000        1.067233         1
        15        26        27        47     9      180.000000       19.818808         2
        15        26        27        47     9        0.000000        0.282233         3
        15        26        27        47     9      180.000000       -0.593204         4
        16        15        14        29     9        0.000000        0.385460         1
        16        15        14        29     9      180.000000       12.730618         2
        16        15        14        29     9        0.000000        0.253283         3
        16        15        14        29     9      180.000000       -0.055637         4
        16        15        26        27     9        0.000000        0.915794         1
        16        15        26        27     9      180.000000       29.774243         2
        16        15        26        27     9        0.000000        1.284496         3
        16        15        26        27     9      180.000000       -0.728214         4
        16        17        18        19     9        0.000000       -0.022028         1
        16        17        18        19     9      180.000000       16.060701         2
        16        17        18        19     9        0.000000        0.007397         3
        16        17        18        19     9      180.000000       -0.378291         4
        16        17        18        22     9        0.000000        0.555160         1
        16        17        18        22     9      180.000000       17.431110         2
        16        17        18        22     9        0.000000        0.506181         3
        16        17        18        22     9      180.000000       -0.332422         4
        16        17        25        24     9        0.000000        0.674078         1
        16        17        25        24     9      180.000000       19.709792         2
        16        17        25        24     9        0.000000        0.745493         3
        16        17        25        24     9      180.000000       -0.409872         4
        16        17        25        46     9        0.000000        0.210582         1
        16        17        25        46     9      180.000000       14.709273         2
        16        17        25        46     9        0.000000        0.209706         3
        16        17        25        46     9      180.000000        0.262080         4
        17        16        15        26     9        0.000000       -3.279622         1
        17        16        15        26     9      180.000000        4.839142         2
        17        16        15        26     9        0.000000       -0.482855         3
        17        16        15        26     9      180.000000       -0.118443         4
        17        18        19        20     9        0.000000        0.344778         1
        17        18        19        20     9      180.000000        0.281173         2
        17        18        19        20     9        0.000000        0.419587         3
        17        18        19        20     9      180.000000        0.085697         4
        17        18        19        21     9        0.000000        0.344778         1
        17        18        19        21     9      180.000000        0.281173         2
        17        18        19        21     9        0.000000        0.419587         3
        17        18        19        21     9      180.000000        0.085697         4
        17        18        19        36     9        0.000000       -0.001052         1
        17        18        19        36     9      180.000000       -0.049976         2
        17        18        19        36     9        0.000000        0.087083         3
        17        18        19        36     9      180.000000        0.009677         4
        17        18        22        23     9        0.000000       -0.153283         1
        17        18        22        23     9      180.000000       19.430632         2
        17        18        22        23     9        0.000000       -1.453747         3
        17        18        22        23     9      180.000000       -0.501666         4
        17        18        22        43     9        0.000000        0.185514         1
        17        18        22        43     9      180.000000       15.044342         2
        17        18        22        43     9        0.000000       -0.359101         3
        17        18        22        43     9      180.000000       -0.055126         4
        17        25        24        23     9        0.000000       -0.136830         1
        17        25        24        23     9      180.000000       18.888677         2
        17        25        24        23     9        0.000000       -1.596582         3
        17        25        24        23     9      180.000000       -0.515342         4
        17        25        24        45     9        0.000000        0.106659         1
        17        25        24        45     9      180.000000       14.773495         2
        17        25        24        45     9        0.000000       -0.486026         3
        17        25        24        45     9      180.000000       -0.053694         4
        18        17        25        24     9        0.000000        0.019622         1
        18        17        25        24     9      180.000000       17.756842         2
        18        17        25        24     9        0.000000       -1.097773         3
        18        17        25        24     9      180.000000       -0.356276         4
        18        17        25        46     9        0.000000        0.086663         1
        18        17        25        46     9      180.000000       13.204128         2
        18        17        25        46     9        0.000000       -0.385506         3
        18        17        25        46     9      180.000000        0.132051         4
        18        19        20        37     9        0.000000        0.014031         1
        18        19        20        37     9      180.000000       -0.003213         2
        18        19        20        37     9        0.000000        0.573243         3
        18        19        20        37     9      180.000000        0.001845         4
        18        19        20        38     9        0.000000        0.014031         1
        18        19        20        38     9      180.000000       -0.003213         2
        18        19        20        38     9        0.000000        0.573243         3
        18        19        20        38     9      180.000000        0.001845         4
        18        19        20        39     9        0.000000        0.014031         1
        18        19        20        39     9      180.000000       -0.003213         2
        18        19        20        39     9        0.000000        0.573243         3
        18        19        20        39     9      180.000000        0.001845         4
        18        19        21        40     9        0.000000        0.014031         1
        18        19        21        40     9      180.000000       -0.003212         2
        18        19        21        40     9        0.000000        0.573243         3
        18        19        21        40     9      180.000000        0.001845         4
        18        19        21        41     9        0.000000        0.014031         1
        18        19        21        41     9      180.000000       -0.003212         2
        18        19        21        41     9        0.000000        0.573243         3
        18        19        21        41     9      180.000000        0.001845         4
        18        19        21        42     9        0.000000        0.014031         1
        18        19        21        42     9      180.000000       -0.003212         2
        18        19        21        42     9        0.000000        0.573243         3
        18        19        21        42     9      180.000000        0.001845         4
        18        22        23        24     9        0.000000       -0.037704         1
        18        22        23        24     9      180.000000       19.190112         2
        18        22        23        24     9        0.000000       -1.824075         3
        18        22        23        24     9      180.000000       -0.516735         4
        18        22        23        44     9        0.000000        0.077108         1
        18        22        23        44     9      180.000000       14.938778         2
        18        22        23        44     9        0.000000       -0.770331         3
        18        22        23        44     9      180.000000       -0.079507         4
        19        18        17        25     9        0.000000        0.001388         1
        19        18        17        25     9      180.000000       12.309383         2
        19        18        17        25     9        0.000000       -0.060042         3
        19        18        17        25     9      180.000000       -0.048451         4
        19        18        22        23     9        0.000000        0.124401         1
        19        18        22        23     9      180.000000       16.356126         2
        19        18        22        23     9        0.000000       -0.068446         3
        19        18        22        23     9      180.000000       -0.362740         4
        19        18        22        43     9        0.000000        0.080971         1
        19        18        22        43     9      180.000000       12.842266         2
        19        18        22        43     9        0.000000       -0.427987         3
        19        18        22        43     9      180.000000        0.140466         4
        20        19        18        22     9        0.000000       -0.739164         1
        20        19        18        22     9      180.000000        0.413237         2
        20        19        18        22     9        0.000000       -0.488472         3
        20        19        18        22     9      180.000000        0.314809         4
        20        19        21        40     9        0.000000       -0.083054         1
        20        19        21        40     9      180.000000        0.062890         2
        20        19        21        40     9        0.000000        0.542119         3
        20        19        21        40     9      180.000000        0.042069         4
        20        19        21        41     9        0.000000       -0.083054         1
        20        19        21        41     9      180.000000        0.062890         2
        20        19        21        41     9        0.000000        0.542119         3
        20        19        21        41     9      180.000000        0.042069         4
        20        19        21        42     9        0.000000       -0.083054         1
        20        19        21        42     9      180.000000        0.062890         2
        20        19        21        42     9        0.000000        0.542119         3
        20        19        21        42     9      180.000000        0.042069         4
        21        19        18        22     9        0.000000       -0.739164         1
        21        19        18        22     9      180.000000        0.413237         2
        21        19        18        22     9        0.000000       -0.488472         3
        21        19        18        22     9      180.000000        0.314809         4
        21        19        20        37     9        0.000000       -0.083055         1
        21        19        20        37     9      180.000000        0.062890         2
        21        19        20        37     9        0.000000        0.542119         3
        21        19        20        37     9      180.000000        0.042069         4
        21        19        20        38     9        0.000000       -0.083055         1
        21        19        20        38     9      180.000000        0.062890         2
        21        19        20        38     9        0.000000        0.542119         3
        21        19        20        38     9      180.000000        0.042069         4
        21        19        20        39     9        0.000000       -0.083055         1
        21        19        20        39     9      180.000000        0.062890         2
        21        19        20        39     9        0.000000        0.542119         3
        21        19        20        39     9      180.000000        0.042069         4
        22        18        17        25     9        0.000000       -0.112236         1
        22        18        17        25     9      180.000000       17.094238         2
        22        18        17        25     9        0.000000       -1.041149         3
        22        18        17        25     9      180.000000       -0.422073         4
        22        18        19        36     9        0.000000        0.404595         1
        22        18        19        36     9      180.000000       -0.215215         2
        22        18        19        36     9        0.000000       -0.312353         3
        22        18        19        36     9      180.000000       -0.011508         4
        22        23        24        25     9        0.000000       -0.011532         1
        22        23        24        25     9      180.000000       18.981452         2
        22        23        24        25     9        0.000000       -1.800130         3
        22        23        24        25     9      180.000000       -0.385175         4
        22        23        24        45     9        0.000000        0.046766         1
        22        23        24        45     9      180.000000       14.278224         2
        22        23        24        45     9        0.000000       -0.839602         3
        22        23        24        45     9      180.000000        0.112007         4
        23        24        25        46     9        0.000000        0.120391         1
        23        24        25        46     9      180.000000       14.169674         2
        23        24        25        46     9        0.000000       -0.663112         3
        23        24        25        46     9      180.000000        0.116175         4
        24        23        22        43     9        0.000000        0.105989         1
        24        23        22        43     9      180.000000       14.452649         2
        24        23        22        43     9        0.000000       -0.805321         3
        24        23        22        43     9      180.000000        0.161916         4
        25        24        23        44     9        0.000000        0.128074         1
        25        24        23        44     9      180.000000       14.840144         2
        25        24        23        44     9        0.000000       -0.828588         3
        25        24        23        44     9      180.000000        0.073854         4
        26        15        14        29     9        0.000000        0.070432         1
        26        15        14        29     9      180.000000       10.895454         2
        26        15        14        29     9        0.000000       -0.483942         3
        26        15        14        29     9      180.000000       -0.111193         4
        26        27        28        29     9        0.000000        0.100605         1
        26        27        28        29     9      180.000000       20.168024         2
        26        27        28        29     9        0.000000       -1.195335         3
        26        27        28        29     9      180.000000       -0.567771         4
        26        27        28        48     9        0.000000        0.174483         1
        26        27        28        48     9      180.000000       15.688093         2
        26        27        28        48     9        0.000000       -0.259874         3
        26        27        28        48     9      180.000000       -0.156477         4
        27        28        29        49     9        0.000000        0.167049         1
        27        28        29        49     9      180.000000       14.479790         2
        27        28        29        49     9        0.000000       -0.751910         3
        27        28        29        49     9      180.000000        0.148426         4
        29        14        13        35     9        0.000000        0.403978         1
        29        14        13        35     9      180.000000        2.149404         2
        29        14        13        35     9        0.000000        0.432385         3
        29        14        13        35     9      180.000000       -0.165767         4
        29        28        27        47     9        0.000000        0.082489         1
        29        28        27        47     9      180.000000       14.362334         2
        29        28        27        47     9        0.000000       -0.749613         3
        29        28        27        47     9      180.000000        0.097547         4
        30         9         8        33     9        0.000000        0.169199         1
        30         9         8        33     9      180.000000       12.671206         2
        30         9         8        33     9        0.000000       -0.507606         3
        30         9         8        33     9      180.000000        0.121684         4
        30         9        10        34     9        0.000000        0.020986         1
        30         9        10        34     9      180.000000        1.736250         2
        30         9        10        34     9        0.000000       -0.027645         3
        30         9        10        34     9      180.000000       -0.037843         4
        31         6         7        32     9        0.000000        0.081827         1
        31         6         7        32     9      180.000000       12.724013         2
        31         6         7        32     9        0.000000       -0.580575         3
        31         6         7        32     9      180.000000        0.149684         4
        32         7         8        33     9        0.000000       -0.163545         1
        32         7         8        33     9      180.000000       12.353169         2
        32         7         8        33     9        0.000000       -0.679803         3
        32         7         8        33     9      180.000000        0.281767         4
        36        19        20        37     9        0.000000        0.108926         1
        36        19        20        37     9      180.000000        0.043783         2
        36        19        20        37     9        0.000000        0.565116         3
        36        19        20        37     9      180.000000       -0.025894         4
        36        19        20        38     9        0.000000        0.108926         1
        36        19        20        38     9      180.000000        0.043783         2
        36        19        20        38     9        0.000000        0.565116         3
        36        19        20        38     9      180.000000       -0.025894         4
        36        19        20        39     9        0.000000        0.108926         1
        36        19        20        39     9      180.000000        0.043783         2
        36        19        20        39     9        0.000000        0.565116         3
        36        19        20        39     9      180.000000       -0.025894         4
        36        19        21        40     9        0.000000        0.108926         1
        36        19        21        40     9      180.000000        0.043782         2
        36        19        21        40     9        0.000000        0.565115         3
        36        19        21        40     9      180.000000       -0.025894         4
        36        19        21        41     9        0.000000        0.108926         1
        36        19        21        41     9      180.000000        0.043782         2
        36        19        21        41     9        0.000000        0.565115         3
        36        19        21        41     9      180.000000       -0.025894         4
        36        19        21        42     9        0.000000        0.108926         1
        36        19        21        42     9      180.000000        0.043782         2
        36        19        21        42     9        0.000000        0.565115         3
        36        19        21        42     9      180.000000       -0.025894         4
        43        22        23        44     9        0.000000       -0.209107         1
        43        22        23        44     9      180.000000       11.321330         2
        43        22        23        44     9        0.000000       -0.679119         3
        43        22        23        44     9      180.000000        0.277055         4
        44        23        24        45     9        0.000000       -0.067583         1
        44        23        24        45     9      180.000000       11.932081         2
        44        23        24        45     9        0.000000       -0.603255         3
        44        23        24        45     9      180.000000        0.217130         4
        45        24        25        46     9        0.000000       -0.063190         1
        45        24        25        46     9      180.000000       11.914445         2
        45        24        25        46     9        0.000000       -0.646031         3
        45        24        25        46     9      180.000000        0.201307         4
        47        27        28        48     9        0.000000       -0.153197         1
        47        27        28        48     9      180.000000       12.054830         2
        47        27        28        48     9        0.000000       -0.693173         3
        47        27        28        48     9      180.000000        0.290660         4
        48        28        29        49     9        0.000000       -0.114528         1
        48        28        29        49     9      180.000000       11.840300         2
        48        28        29        49     9        0.000000       -0.671560         3
        48        28        29        49     9      180.000000        0.313357         4
        50        30        31        51     9        0.000000       -0.163545         1
        50        30        31        51     9      180.000000       12.353168         2
        50        30        31        51     9        0.000000       -0.679803         3
        50        30        31        51     9      180.000000        0.281767         4

[ dihedrals ] ; impropers
;       ai        aj        ak        al funct           phase               k        pn
        11        10        12        13     4      180.000000       20.276483         2
        11        12        13        10     4      180.000000       20.276483         2
        11        13        10        12     4      180.000000       20.276483         2
        22        18        23        43     4      180.000000        1.374544         2
        22        23        43        18     4      180.000000        1.374544         2
        22        43        18        23     4      180.000000        1.374544         2
        23        22        24        44     4      180.000000        0.805260         2
        23        24        44        22     4      180.000000        0.805260         2
        23        44        22        24     4      180.000000        0.805260         2
        24        23        25        45     4      180.000000        1.463014         2
        24        25        45        23     4      180.000000        1.463014         2
        24        45        23        25     4      180.000000        1.463014         2
        25        17        24        46     4      180.000000        0.015107         2
        25        24        46        17     4      180.000000        0.015107         2
        25        46        17        24     4      180.000000        0.015107         2
        27        26        28        47     4      180.000000        0.546115         2
        27        28        47        26     4      180.000000        0.546115         2
        27        47        26        28     4      180.000000        0.546115         2

[ pairs ]
;       ai        aj funct
         1         6     1
         2         7     1
         2        31     1
         3         6     1
         4         6     1
         5         8     1
         5        30     1
         5        32     1
         5        51     1
         6         9     1
         6        33     1
         6        50     1
         7        10     1
         7        30     1
         7        51     1
         8        11     1
         8        31     1
         8        34     1
         8        50     1
         9        12     1
         9        13     1
         9        32     1
         9        51     1
        10        14     1
        10        31     1
        10        33     1
        10        35     1
        10        50     1
        11        15     1
        11        29     1
        11        30     1
        12        14     1
        12        34     1
        12        35     1
        13        16     1
        13        26     1
        13        28     1
        13        34     1
        13        49     1
        14        17     1
        14        27     1
        14        48     1
        15        18     1
        15        25     1
        15        28     1
        15        35     1
        15        47     1
        15        49     1
        16        19     1
        16        22     1
        16        24     1
        16        27     1
        16        29     1
        16        46     1
        17        20     1
        17        21     1
        17        23     1
        17        26     1
        17        36     1
        17        43     1
        17        45     1
        18        24     1
        18        37     1
        18        38     1
        18        39     1
        18        40     1
        18        41     1
        18        42     1
        18        44     1
        18        46     1
        19        23     1
        19        25     1
        19        43     1
        20        22     1
        20        40     1
        20        41     1
        20        42     1
        21        22     1
        21        37     1
        21        38     1
        21        39     1
        22        25     1
        22        36     1
        22        45     1
        23        46     1
        24        43     1
        25        44     1
        26        29     1
        26        48     1
        27        49     1
        29        35     1
        29        47     1
        30        33     1
        30        34     1
        31        32     1
        32        33     1
        36        37     1
        36        38     1
        36        39     1
        36        40     1
        36        41     1
        36        42     1
        43        44     1
        44        45     1
        45        46     1
        47        48     1
        48        49     1
        50        51     1
