; ITP file created by ByteFF-joint-25, 2025-07-14 11:27:30.874625

[ atomtypes ]
;name           bonded.type        at.num        mass        charge   ptype           sigma         epsilon
 o0bf                                   8      0.0000       0.00000       A     3.04841e-01     6.12021e-01    ;  uncertainty sigma = 0.000032, epsilon = 0.001738
 c1bf                                   6      0.0000       0.00000       A     3.31425e-01     4.13751e-01    ;  uncertainty sigma = 0.000019, epsilon = 0.001293
 o2bf                                   8      0.0000       0.00000       A     3.04841e-01     6.12021e-01    ;  uncertainty sigma = 0.000032, epsilon = 0.001738
 c3bf                                   6      0.0000       0.00000       A     3.31577e-01     4.11616e-01    ;  uncertainty sigma = 0.000043, epsilon = 0.001505
 c4bf                                   6      0.0000       0.00000       A     3.31530e-01     4.13294e-01    ;  uncertainty sigma = 0.000012, epsilon = 0.001338
 c5bf                                   6      0.0000       0.00000       A     3.31535e-01     4.13453e-01    ;  uncertainty sigma = 0.000014, epsilon = 0.000775
 c6bf                                   6      0.0000       0.00000       A     3.31522e-01     4.13078e-01    ;  uncertainty sigma = 0.000006, epsilon = 0.000814
 c7bf                                   6      0.0000       0.00000       A     3.31536e-01     4.13414e-01    ;  uncertainty sigma = 0.000006, epsilon = 0.000520
 c8bf                                   6      0.0000       0.00000       A     3.31510e-01     4.13148e-01    ;  uncertainty sigma = 0.000014, epsilon = 0.000689
 c9bf                                   6      0.0000       0.00000       A     3.31510e-01     4.13521e-01    ;  uncertainty sigma = 0.000007, epsilon = 0.000988
 c10bf                                  6      0.0000       0.00000       A     3.31523e-01     4.13787e-01    ;  uncertainty sigma = 0.000021, epsilon = 0.001432
 h11bf                                  1      0.0000       0.00000       A     2.62557e-01     6.70049e-02    ;  uncertainty sigma = 0.000010, epsilon = 0.000489
 cl12bf                                17      0.0000       0.00000       A     3.46606e-01     1.10417e+00    ;  uncertainty sigma = 0.000019, epsilon = 0.001081
 h13bf                                  1      0.0000       0.00000       A     2.62557e-01     6.72455e-02    ;  uncertainty sigma = 0.000012, epsilon = 0.000763
 br14bf                                35      0.0000       0.00000       A     3.61346e-01     1.64558e+00    ;  uncertainty sigma = 0.000015, epsilon = 0.002383
 h15bf                                  1      0.0000       0.00000       A     2.62498e-01     6.71281e-02    ;  uncertainty sigma = 0.000058, epsilon = 0.001273
 o16bf                                  8      0.0000       0.00000       A     3.15569e-01     3.01884e-01    ;  uncertainty sigma = 0.000023, epsilon = 0.002809

[ moleculetype ]
;name             nrexcl
 MOL                   3

[ atoms ]
;       nr            type      resi   res      atom      cgnr      charge          mass ; qtot
         1            o0bf         1   UNL        o0         1    -0.81445       15.9990 ; qtot   -0.814
         2            c1bf         1   UNL        c1         2     0.93254       12.0110 ; qtot    0.118
         3            o2bf         1   UNL        o2         3    -0.81445       15.9990 ; qtot   -0.696
         4            c3bf         1   UNL        c3         4    -0.00828       12.0110 ; qtot   -0.705
         5            c4bf         1   UNL        c4         5     0.03865       12.0110 ; qtot   -0.666
         6            c5bf         1   UNL        c5         6    -0.11665       12.0110 ; qtot   -0.783
         7            c6bf         1   UNL        c6         7     0.04577       12.0110 ; qtot   -0.737
         8            c7bf         1   UNL        c7         8    -0.11083       12.0110 ; qtot   -0.848
         9            c8bf         1   UNL        c8         9     0.02829       12.0110 ; qtot   -0.819
        10            c9bf         1   UNL        c9        10    -0.08909       12.0110 ; qtot   -0.908
        11           c10bf         1   UNL       c10        11    -0.24252       12.0110 ; qtot   -1.151
        12           h11bf         1   UNL       h11        12     0.17180        1.0080 ; qtot   -0.979
        13          cl12bf         1   UNL      cl12        13    -0.10595       35.4530 ; qtot   -1.085
        14           h13bf         1   UNL       h13        14     0.16681        1.0080 ; qtot   -0.918
        15          br14bf         1   UNL      br14        15    -0.08647       79.9040 ; qtot   -1.005
        16           h15bf         1   UNL       h15        16     0.16851        1.0080 ; qtot   -0.836
        17           o16bf         1   UNL       o16        17    -0.16368       15.9990 ; qtot   -1.000

[ bonds ]
;       ai        aj funct               r               k
         1         2     1        0.125975   531431.434180    ;  uncertainty r = 0.000057, k = 9.635720
         2         3     1        0.125975   531431.434180    ;  uncertainty r = 0.000057, k = 9.635720
         2         4     1        0.153655   115095.368896    ;  uncertainty r = 0.000119, k = 160.388970
         4        11     1        0.137031   402518.012012    ;  uncertainty r = 0.000181, k = 7.883873
         4        17     1        0.139434   238161.712354    ;  uncertainty r = 0.000304, k = 46.775396
         5         6     1        0.138967   364652.352344    ;  uncertainty r = 0.000059, k = 3.342265
         5        10     1        0.141873   367976.262500    ;  uncertainty r = 0.000063, k = 9.456666
         5        17     1        0.135900   293932.384277    ;  uncertainty r = 0.000210, k = 14.976941
         6         7     1        0.139252   362441.502637    ;  uncertainty r = 0.000049, k = 5.542936
         6        12     1        0.108698   336644.834082    ;  uncertainty r = 0.000017, k = 1.240299
         7         8     1        0.140758   346234.861377    ;  uncertainty r = 0.000088, k = 2.724906
         7        13     1        0.175579   196811.973779    ;  uncertainty r = 0.000059, k = 2.933105
         8         9     1        0.139017   361632.793457    ;  uncertainty r = 0.000061, k = 5.977144
         8        14     1        0.108600   336770.604346    ;  uncertainty r = 0.000012, k = 0.933462
         9        10     1        0.140052   362825.197705    ;  uncertainty r = 0.000080, k = 6.849442
         9        15     1        0.191191   161583.467554    ;  uncertainty r = 0.000109, k = 6.023111
        10        11     1        0.143703   293894.206299    ;  uncertainty r = 0.000165, k = 22.850720
        11        16     1        0.108051   339177.527979    ;  uncertainty r = 0.000045, k = 4.251812

[ angles ]
;       ai        aj        ak funct           theta             cth
         1         2         3     1      132.260132      801.175924    ;  uncertainty theta = 0.010250, k = 0.188593
         1         2         4     1      113.246902      370.572505    ;  uncertainty theta = 0.010046, k = 0.558047
         2         4        11     1      130.895752      284.727469    ;  uncertainty theta = 0.009452, k = 0.396694
         2         4        17     1      114.656448      345.709289    ;  uncertainty theta = 0.010233, k = 0.489428
         3         2         4     1      113.246902      370.572505    ;  uncertainty theta = 0.010046, k = 0.558047
         4        11        10     1      107.113647      766.696357    ;  uncertainty theta = 0.005899, k = 0.136812
         4        11        16     1      124.768654      239.716048    ;  uncertainty theta = 0.004194, k = 0.203244
         4        17         5     1      108.675919      991.696741    ;  uncertainty theta = 0.006475, k = 0.211991
         5         6         7     1      114.556870      518.684739    ;  uncertainty theta = 0.000818, k = 0.120371
         5         6        12     1      123.385208      286.721981    ;  uncertainty theta = 0.004545, k = 0.056627
         5        10         9     1      114.713928      393.915147    ;  uncertainty theta = 0.006965, k = 0.202334
         5        10        11     1      105.982338      652.375976    ;  uncertainty theta = 0.001394, k = 0.220249
         6         5        10     1      123.458939      356.548195    ;  uncertainty theta = 0.003965, k = 0.252292
         6         5        17     1      124.439819      422.217989    ;  uncertainty theta = 0.003194, k = 0.057229
         6         7         8     1      124.517990      384.166164    ;  uncertainty theta = 0.001686, k = 0.062394
         6         7        13     1      120.271973      439.192474    ;  uncertainty theta = 0.002346, k = 0.064047
         7         6        12     1      122.517250      286.967521    ;  uncertainty theta = 0.003149, k = 0.065380
         7         8         9     1      119.945480      487.775229    ;  uncertainty theta = 0.001070, k = 0.098655
         7         8        14     1      120.746422      283.962952    ;  uncertainty theta = 0.001343, k = 0.022016
         8         7        13     1      119.110092      449.233506    ;  uncertainty theta = 0.001909, k = 0.118620
         8         9        10     1      121.533730      417.815392    ;  uncertainty theta = 0.005096, k = 0.289928
         8         9        15     1      120.526062      412.837794    ;  uncertainty theta = 0.004044, k = 0.116709
         9         8        14     1      121.337440      283.143658    ;  uncertainty theta = 0.001832, k = 0.112422
         9        10        11     1      134.650925      350.155395    ;  uncertainty theta = 0.004599, k = 0.299204
        10         5        17     1      110.760437      677.101069    ;  uncertainty theta = 0.003203, k = 0.127196
        10         9        15     1      120.100418      391.372353    ;  uncertainty theta = 0.006469, k = 0.070749
        10        11        16     1      125.057053      240.115687    ;  uncertainty theta = 0.007477, k = 0.166508
        11         4        17     1      112.521080      685.443085    ;  uncertainty theta = 0.002565, k = 0.125181

[ dihedrals ] ; propers for gromacs 4.5 or higher, use funct 9
;       ai        aj        ak        al funct           phase               k        pn
         1         2         4        11     9        0.000000       -0.814041         1    ;  uncertainty k = 0.710751
         1         2         4        11     9      180.000000        0.760871         2    ;  uncertainty k = 0.281528
         1         2         4        11     9        0.000000       -0.006250         3    ;  uncertainty k = 0.180812
         1         2         4        11     9      180.000000        0.063334         4    ;  uncertainty k = 0.050582
         1         2         4        17     9        0.000000        0.338877         1    ;  uncertainty k = 0.570899
         1         2         4        17     9      180.000000        3.463453         2    ;  uncertainty k = 0.340269
         1         2         4        17     9        0.000000        0.363697         3    ;  uncertainty k = 0.371553
         1         2         4        17     9      180.000000        0.085485         4    ;  uncertainty k = 0.070245
         2         4        11        10     9        0.000000        0.727223         1    ;  uncertainty k = 1.068366
         2         4        11        10     9      180.000000       11.061042         2    ;  uncertainty k = 0.335822
         2         4        11        10     9        0.000000        2.265139         3    ;  uncertainty k = 0.263978
         2         4        11        10     9      180.000000        1.002102         4    ;  uncertainty k = 0.205498
         2         4        11        16     9        0.000000       -0.405066         1    ;  uncertainty k = 1.265579
         2         4        11        16     9      180.000000        6.739966         2    ;  uncertainty k = 0.698992
         2         4        11        16     9        0.000000        1.744521         3    ;  uncertainty k = 0.283870
         2         4        11        16     9      180.000000        0.470337         4    ;  uncertainty k = 0.207348
         2         4        17         5     9        0.000000        0.614073         1    ;  uncertainty k = 1.020581
         2         4        17         5     9      180.000000        4.446570         2    ;  uncertainty k = 1.382400
         2         4        17         5     9        0.000000        1.547829         3    ;  uncertainty k = 0.314755
         2         4        17         5     9      180.000000        0.469811         4    ;  uncertainty k = 0.199829
         3         2         4        11     9        0.000000       -0.814041         1    ;  uncertainty k = 0.710751
         3         2         4        11     9      180.000000        0.760871         2    ;  uncertainty k = 0.281528
         3         2         4        11     9        0.000000       -0.006250         3    ;  uncertainty k = 0.180812
         3         2         4        11     9      180.000000        0.063334         4    ;  uncertainty k = 0.050582
         3         2         4        17     9        0.000000        0.338877         1    ;  uncertainty k = 0.570899
         3         2         4        17     9      180.000000        3.463453         2    ;  uncertainty k = 0.340269
         3         2         4        17     9        0.000000        0.363697         3    ;  uncertainty k = 0.371553
         3         2         4        17     9      180.000000        0.085485         4    ;  uncertainty k = 0.070245
         4        11        10         5     9        0.000000        0.946877         1    ;  uncertainty k = 1.313753
         4        11        10         5     9      180.000000       12.472329         2    ;  uncertainty k = 1.227636
         4        11        10         5     9        0.000000      -10.344602         3    ;  uncertainty k = 1.679166
         4        11        10         5     9      180.000000        2.026624         4    ;  uncertainty k = 0.981313
         4        11        10         9     9        0.000000        0.171343         1    ;  uncertainty k = 0.858678
         4        11        10         9     9      180.000000        5.295699         2    ;  uncertainty k = 0.812696
         4        11        10         9     9        0.000000        0.678292         3    ;  uncertainty k = 0.715750
         4        11        10         9     9      180.000000        0.788842         4    ;  uncertainty k = 0.419093
         4        17         5         6     9        0.000000        2.062401         1    ;  uncertainty k = 1.876762
         4        17         5         6     9      180.000000        5.915015         2    ;  uncertainty k = 0.616714
         4        17         5         6     9        0.000000        1.205723         3    ;  uncertainty k = 0.534686
         4        17         5         6     9      180.000000        0.290189         4    ;  uncertainty k = 0.261848
         4        17         5        10     9        0.000000       -0.181410         1    ;  uncertainty k = 1.297836
         4        17         5        10     9      180.000000       12.758479         2    ;  uncertainty k = 0.454371
         4        17         5        10     9        0.000000       -5.939308         3    ;  uncertainty k = 0.792936
         4        17         5        10     9      180.000000        1.024519         4    ;  uncertainty k = 0.630059
         5         6         7         8     9        0.000000       -0.020223         1    ;  uncertainty k = 0.089830
         5         6         7         8     9      180.000000       11.446947         2    ;  uncertainty k = 0.381992
         5         6         7         8     9        0.000000        0.144898         3    ;  uncertainty k = 0.589252
         5         6         7         8     9      180.000000        1.154781         4    ;  uncertainty k = 0.447138
         5         6         7        13     9        0.000000       -0.101889         1    ;  uncertainty k = 0.150810
         5         6         7        13     9      180.000000       11.517793         2    ;  uncertainty k = 0.438629
         5         6         7        13     9        0.000000        1.456816         3    ;  uncertainty k = 0.417749
         5         6         7        13     9      180.000000        1.533320         4    ;  uncertainty k = 0.167719
         5        10         9         8     9        0.000000       -0.096416         1    ;  uncertainty k = 0.509370
         5        10         9         8     9      180.000000       10.531307         2    ;  uncertainty k = 0.408195
         5        10         9         8     9        0.000000       -0.803170         3    ;  uncertainty k = 0.152824
         5        10         9         8     9      180.000000        0.869225         4    ;  uncertainty k = 0.201580
         5        10         9        15     9        0.000000        0.447791         1    ;  uncertainty k = 0.592497
         5        10         9        15     9      180.000000        7.886563         2    ;  uncertainty k = 0.371619
         5        10         9        15     9        0.000000        1.354358         3    ;  uncertainty k = 0.429447
         5        10         9        15     9      180.000000        1.044996         4    ;  uncertainty k = 0.267485
         5        10        11        16     9        0.000000       -0.189174         1    ;  uncertainty k = 1.186164
         5        10        11        16     9      180.000000        8.213456         2    ;  uncertainty k = 0.953631
         5        10        11        16     9        0.000000        1.049809         3    ;  uncertainty k = 0.707802
         5        10        11        16     9      180.000000        0.138127         4    ;  uncertainty k = 0.249461
         5        17         4        11     9        0.000000       -0.679389         1    ;  uncertainty k = 0.930464
         5        17         4        11     9      180.000000       14.673442         2    ;  uncertainty k = 0.384823
         5        17         4        11     9        0.000000       -4.238130         3    ;  uncertainty k = 1.176254
         5        17         4        11     9      180.000000        0.979180         4    ;  uncertainty k = 0.238022
         6         5        10         9     9        0.000000       -0.839240         1    ;  uncertainty k = 0.866519
         6         5        10         9     9      180.000000        7.168112         2    ;  uncertainty k = 0.984394
         6         5        10         9     9        0.000000       -0.200432         3    ;  uncertainty k = 0.345910
         6         5        10         9     9      180.000000        1.090020         4    ;  uncertainty k = 0.393029
         6         5        10        11     9        0.000000       -0.083745         1    ;  uncertainty k = 0.445723
         6         5        10        11     9      180.000000        7.141128         2    ;  uncertainty k = 0.346790
         6         5        10        11     9        0.000000        0.076817         3    ;  uncertainty k = 0.281216
         6         5        10        11     9      180.000000        1.240294         4    ;  uncertainty k = 0.217569
         6         7         8         9     9        0.000000       -0.072404         1    ;  uncertainty k = 0.400346
         6         7         8         9     9      180.000000        8.634710         2    ;  uncertainty k = 0.520650
         6         7         8         9     9        0.000000       -0.085133         3    ;  uncertainty k = 0.662345
         6         7         8         9     9      180.000000        1.248640         4    ;  uncertainty k = 0.284101
         6         7         8        14     9        0.000000       -0.042788         1    ;  uncertainty k = 0.263637
         6         7         8        14     9      180.000000        5.783687         2    ;  uncertainty k = 0.575949
         6         7         8        14     9        0.000000        1.349436         3    ;  uncertainty k = 0.308005
         6         7         8        14     9      180.000000        1.453867         4    ;  uncertainty k = 0.173161
         7         6         5        10     9        0.000000       -0.022337         1    ;  uncertainty k = 0.341357
         7         6         5        10     9      180.000000       11.982174         2    ;  uncertainty k = 0.338881
         7         6         5        10     9        0.000000       -1.103759         3    ;  uncertainty k = 0.351135
         7         6         5        10     9      180.000000        0.878621         4    ;  uncertainty k = 0.239743
         7         6         5        17     9        0.000000        0.660141         1    ;  uncertainty k = 0.755004
         7         6         5        17     9      180.000000       10.107540         2    ;  uncertainty k = 0.826406
         7         6         5        17     9        0.000000        1.334944         3    ;  uncertainty k = 0.412841
         7         6         5        17     9      180.000000        1.467229         4    ;  uncertainty k = 0.403971
         7         8         9        10     9        0.000000        0.073178         1    ;  uncertainty k = 0.249492
         7         8         9        10     9      180.000000       12.666642         2    ;  uncertainty k = 0.415642
         7         8         9        10     9        0.000000        0.027640         3    ;  uncertainty k = 0.604895
         7         8         9        10     9      180.000000        1.013763         4    ;  uncertainty k = 0.518690
         7         8         9        15     9        0.000000       -0.222448         1    ;  uncertainty k = 0.316379
         7         8         9        15     9      180.000000       10.729008         2    ;  uncertainty k = 0.485633
         7         8         9        15     9        0.000000        1.580045         3    ;  uncertainty k = 0.402408
         7         8         9        15     9      180.000000        1.634435         4    ;  uncertainty k = 0.253849
         8         7         6        12     9        0.000000        0.192445         1    ;  uncertainty k = 0.252344
         8         7         6        12     9      180.000000        6.751183         2    ;  uncertainty k = 0.524283
         8         7         6        12     9        0.000000        1.536654         3    ;  uncertainty k = 0.338788
         8         7         6        12     9      180.000000        1.556598         4    ;  uncertainty k = 0.161805
         8         9        10        11     9        0.000000        0.057822         1    ;  uncertainty k = 0.596237
         8         9        10        11     9      180.000000        6.572570         2    ;  uncertainty k = 0.362133
         8         9        10        11     9        0.000000        0.653343         3    ;  uncertainty k = 0.385204
         8         9        10        11     9      180.000000        1.153096         4    ;  uncertainty k = 0.097018
         9         8         7        13     9        0.000000       -0.037047         1    ;  uncertainty k = 0.351136
         9         8         7        13     9      180.000000        8.677181         2    ;  uncertainty k = 0.584758
         9         8         7        13     9        0.000000        1.472641         3    ;  uncertainty k = 0.522889
         9         8         7        13     9      180.000000        1.629026         4    ;  uncertainty k = 0.203709
         9        10         5        17     9        0.000000       -0.016925         1    ;  uncertainty k = 0.517458
         9        10         5        17     9      180.000000        9.095111         2    ;  uncertainty k = 0.607338
         9        10         5        17     9        0.000000       -0.060916         3    ;  uncertainty k = 0.357402
         9        10         5        17     9      180.000000        1.316652         4    ;  uncertainty k = 0.366380
         9        10        11        16     9        0.000000        0.519954         1    ;  uncertainty k = 2.004265
         9        10        11        16     9      180.000000        3.814643         2    ;  uncertainty k = 0.767213
         9        10        11        16     9        0.000000        1.314992         3    ;  uncertainty k = 0.199480
         9        10        11        16     9      180.000000        0.023273         4    ;  uncertainty k = 0.185534
        10         5         6        12     9        0.000000        0.186527         1    ;  uncertainty k = 0.375299
        10         5         6        12     9      180.000000        6.199852         2    ;  uncertainty k = 0.802674
        10         5         6        12     9        0.000000        1.358841         3    ;  uncertainty k = 0.190386
        10         5         6        12     9      180.000000        1.330075         4    ;  uncertainty k = 0.237101
        10         9         8        14     9        0.000000       -0.013644         1    ;  uncertainty k = 0.475182
        10         9         8        14     9      180.000000        8.716434         2    ;  uncertainty k = 0.254579
        10         9         8        14     9        0.000000        1.535200         3    ;  uncertainty k = 0.368892
        10         9         8        14     9      180.000000        1.568133         4    ;  uncertainty k = 0.072803
        10        11         4        17     9        0.000000       -0.318170         1    ;  uncertainty k = 0.141985
        10        11         4        17     9      180.000000       21.727166         2    ;  uncertainty k = 0.532061
        10        11         4        17     9        0.000000       -4.307512         3    ;  uncertainty k = 0.551334
        10        11         4        17     9      180.000000        1.315877         4    ;  uncertainty k = 0.633294
        11        10         5        17     9        0.000000       -0.558526         1    ;  uncertainty k = 0.478729
        11        10         5        17     9      180.000000       13.612295         2    ;  uncertainty k = 0.980767
        11        10         5        17     9        0.000000       -3.978232         3    ;  uncertainty k = 0.883281
        11        10         5        17     9      180.000000        1.501616         4    ;  uncertainty k = 0.805089
        11        10         9        15     9        0.000000        0.122510         1    ;  uncertainty k = 0.281179
        11        10         9        15     9      180.000000        5.752849         2    ;  uncertainty k = 0.367643
        11        10         9        15     9        0.000000        1.237778         3    ;  uncertainty k = 0.320998
        11        10         9        15     9      180.000000        0.839574         4    ;  uncertainty k = 0.294104
        12         6         5        17     9        0.000000        0.225831         1    ;  uncertainty k = 0.261460
        12         6         5        17     9      180.000000        6.455757         2    ;  uncertainty k = 0.601051
        12         6         5        17     9        0.000000        1.140218         3    ;  uncertainty k = 0.388412
        12         6         5        17     9      180.000000        0.915525         4    ;  uncertainty k = 0.465492
        12         6         7        13     9        0.000000       -0.283399         1    ;  uncertainty k = 0.345247
        12         6         7        13     9      180.000000        7.760825         2    ;  uncertainty k = 0.386524
        12         6         7        13     9        0.000000        0.672413         3    ;  uncertainty k = 0.356659
        12         6         7        13     9      180.000000        0.967630         4    ;  uncertainty k = 0.276868
        13         7         8        14     9        0.000000       -0.050454         1    ;  uncertainty k = 0.204480
        13         7         8        14     9      180.000000        7.276575         2    ;  uncertainty k = 0.364646
        13         7         8        14     9        0.000000        0.631436         3    ;  uncertainty k = 0.399649
        13         7         8        14     9      180.000000        0.928818         4    ;  uncertainty k = 0.161220
        14         8         9        15     9        0.000000       -0.098601         1    ;  uncertainty k = 0.286310
        14         8         9        15     9      180.000000        8.213569         2    ;  uncertainty k = 0.478845
        14         8         9        15     9        0.000000        0.886908         3    ;  uncertainty k = 0.441115
        14         8         9        15     9      180.000000        1.046242         4    ;  uncertainty k = 0.255753
        16        11         4        17     9        0.000000        0.516109         1    ;  uncertainty k = 1.011018
        16        11         4        17     9      180.000000       16.666052         2    ;  uncertainty k = 0.565463
        16        11         4        17     9        0.000000        1.780371         3    ;  uncertainty k = 0.709054
        16        11         4        17     9      180.000000        0.924904         4    ;  uncertainty k = 0.409032

[ dihedrals ] ; impropers
;       ai        aj        ak        al funct           phase               k        pn
         2         1         3         4     4      180.000000       63.594558         2    ;  uncertainty k = 0.048700
         2         3         4         1     4      180.000000       63.594558         2    ;  uncertainty k = 0.048700
         2         4         1         3     4      180.000000       63.594558         2    ;  uncertainty k = 0.048700
         4         2        11        17     4      180.000000        5.828559         2    ;  uncertainty k = 0.469397
         4        11        17         2     4      180.000000        5.828559         2    ;  uncertainty k = 0.469397
         4        17         2        11     4      180.000000        5.828559         2    ;  uncertainty k = 0.469397
         5         6        10        17     4      180.000000        1.423337         2    ;  uncertainty k = 0.928472
         5        10        17         6     4      180.000000        1.423337         2    ;  uncertainty k = 0.928472
         5        17         6        10     4      180.000000        1.423337         2    ;  uncertainty k = 0.928472
         6         5         7        12     4      180.000000        2.132186         2    ;  uncertainty k = 0.300138
         6         7        12         5     4      180.000000        2.132186         2    ;  uncertainty k = 0.300138
         6        12         5         7     4      180.000000        2.132186         2    ;  uncertainty k = 0.300138
         7         6         8        13     4      180.000000       12.799859         2    ;  uncertainty k = 0.053221
         7         8        13         6     4      180.000000       12.799859         2    ;  uncertainty k = 0.053221
         7        13         6         8     4      180.000000       12.799859         2    ;  uncertainty k = 0.053221
         8         7         9        14     4      180.000000        2.705703         2    ;  uncertainty k = 0.245987
         8         9        14         7     4      180.000000        2.705703         2    ;  uncertainty k = 0.245987
         8        14         7         9     4      180.000000        2.705703         2    ;  uncertainty k = 0.245987
         9         8        10        15     4      180.000000       10.239425         2    ;  uncertainty k = 0.135965
         9        10        15         8     4      180.000000       10.239425         2    ;  uncertainty k = 0.135965
         9        15         8        10     4      180.000000       10.239425         2    ;  uncertainty k = 0.135965
        11         4        10        16     4      180.000000        0.953600         2    ;  uncertainty k = 0.505133
        11        10        16         4     4      180.000000        0.953600         2    ;  uncertainty k = 0.505133
        11        16         4        10     4      180.000000        0.953600         2    ;  uncertainty k = 0.505133

[ pairs ]
;       ai        aj funct
         1        11     1
         1        17     1
         2         5     1
         2        10     1
         2        16     1
         3        11     1
         3        17     1
         4         6     1
         4         9     1
         5         8     1
         5        13     1
         5        15     1
         5        16     1
         6         9     1
         6        11     1
         6        14     1
         7        10     1
         7        15     1
         7        17     1
         8        11     1
         8        12     1
         9        13     1
         9        16     1
         9        17     1
        10        12     1
        10        14     1
        11        15     1
        12        13     1
        12        17     1
        13        14     1
        14        15     1
        16        17     1
