; ITP file created by ByteFF-joint-25, 2025-07-14 11:27:32.418191

[ atomtypes ]
;name           bonded.type        at.num        mass        charge   ptype           sigma         epsilon
 o0bf                                   8      0.0000       0.00000       A     3.04814e-01     6.12165e-01    ;  uncertainty sigma = 0.000020, epsilon = 0.000798
 c1bf                                   6      0.0000       0.00000       A     3.31492e-01     4.13823e-01    ;  uncertainty sigma = 0.000027, epsilon = 0.002514
 o2bf                                   8      0.0000       0.00000       A     3.04814e-01     6.12165e-01    ;  uncertainty sigma = 0.000020, epsilon = 0.000798
 c3bf                                   6      0.0000       0.00000       A     3.31484e-01     4.13023e-01    ;  uncertainty sigma = 0.000037, epsilon = 0.003390
 c4bf                                   6      0.0000       0.00000       A     3.31525e-01     4.13333e-01    ;  uncertainty sigma = 0.000004, epsilon = 0.001092
 c5bf                                   6      0.0000       0.00000       A     3.31529e-01     4.13135e-01    ;  uncertainty sigma = 0.000005, epsilon = 0.000556
 c6bf                                   6      0.0000       0.00000       A     3.31524e-01     4.13305e-01    ;  uncertainty sigma = 0.000004, epsilon = 0.000665
 c7bf                                   6      0.0000       0.00000       A     3.31525e-01     4.13349e-01    ;  uncertainty sigma = 0.000005, epsilon = 0.000507
 c8bf                                   6      0.0000       0.00000       A     3.31526e-01     4.13264e-01    ;  uncertainty sigma = 0.000006, epsilon = 0.000738
 c9bf                                   6      0.0000       0.00000       A     3.31535e-01     4.13242e-01    ;  uncertainty sigma = 0.000011, epsilon = 0.000617
 n10bf                                  7      0.0000       0.00000       A     3.20578e-01     8.54072e-01    ;  uncertainty sigma = 0.000041, epsilon = 0.001369
 h11bf                                  1      0.0000       0.00000       A     2.62567e-01     6.69461e-02    ;  uncertainty sigma = 0.000010, epsilon = 0.000379
 h12bf                                  1      0.0000       0.00000       A     2.62563e-01     6.69792e-02    ;  uncertainty sigma = 0.000011, epsilon = 0.000555
 h13bf                                  1      0.0000       0.00000       A     2.62567e-01     6.69870e-02    ;  uncertainty sigma = 0.000012, epsilon = 0.000553
 h14bf                                  1      0.0000       0.00000       A     2.62568e-01     6.69866e-02    ;  uncertainty sigma = 0.000008, epsilon = 0.000518
 c15bf                                  6      0.0000       0.00000       A     3.39811e-01     4.52002e-01    ;  uncertainty sigma = 0.000019, epsilon = 0.001371
 c16bf                                  6      0.0000       0.00000       A     3.31539e-01     4.13104e-01    ;  uncertainty sigma = 0.000012, epsilon = 0.000927
 h17bf                                  1      0.0000       0.00000       A     2.42199e-01     8.67365e-02    ;  uncertainty sigma = 0.000023, epsilon = 0.000598
 h18bf                                  1      0.0000       0.00000       A     2.42199e-01     8.67365e-02    ;  uncertainty sigma = 0.000023, epsilon = 0.000598
 h19bf                                  1      0.0000       0.00000       A     2.42199e-01     8.67365e-02    ;  uncertainty sigma = 0.000023, epsilon = 0.000598
 h20bf                                  1      0.0000       0.00000       A     2.62562e-01     6.72274e-02    ;  uncertainty sigma = 0.000030, epsilon = 0.000892

[ moleculetype ]
;name             nrexcl
 MOL                   3

[ atoms ]
;       nr            type      resi   res      atom      cgnr      charge          mass ; qtot
         1            o0bf         1   UNL        o0         1    -0.82555       15.9990 ; qtot   -0.826
         2            c1bf         1   UNL        c1         2     0.92809       12.0110 ; qtot    0.103
         3            o2bf         1   UNL        o2         3    -0.82555       15.9990 ; qtot   -0.723
         4            c3bf         1   UNL        c3         4    -0.10423       12.0110 ; qtot   -0.827
         5            c4bf         1   UNL        c4         5    -0.10268       12.0110 ; qtot   -0.930
         6            c5bf         1   UNL        c5         6    -0.10492       12.0110 ; qtot   -1.035
         7            c6bf         1   UNL        c6         7    -0.15960       12.0110 ; qtot   -1.194
         8            c7bf         1   UNL        c7         8    -0.11305       12.0110 ; qtot   -1.307
         9            c8bf         1   UNL        c8         9    -0.16044       12.0110 ; qtot   -1.468
        10            c9bf         1   UNL        c9        10    -0.07089       12.0110 ; qtot   -1.539
        11           n10bf         1   UNL       n10        11    -0.06651       14.0070 ; qtot   -1.605
        12           h11bf         1   UNL       h11        12     0.13362        1.0080 ; qtot   -1.472
        13           h12bf         1   UNL       h12        13     0.12914        1.0080 ; qtot   -1.343
        14           h13bf         1   UNL       h13        14     0.12936        1.0080 ; qtot   -1.213
        15           h14bf         1   UNL       h14        15     0.13178        1.0080 ; qtot   -1.081
        16           c15bf         1   UNL       c15        16     0.02500       12.0110 ; qtot   -1.056
        17           c16bf         1   UNL       c16        17    -0.23418       12.0110 ; qtot   -1.291
        18           h17bf         1   UNL       h17        18     0.04816        1.0080 ; qtot   -1.242
        19           h18bf         1   UNL       h18        19     0.04816        1.0080 ; qtot   -1.194
        20           h19bf         1   UNL       h19        20     0.04816        1.0080 ; qtot   -1.146
        21           h20bf         1   UNL       h20        21     0.14613        1.0080 ; qtot   -1.000

[ bonds ]
;       ai        aj funct               r               k
         1         2     1        0.126261   547700.820117    ;  uncertainty r = 0.000125, k = 6.164590
         2         3     1        0.126261   547700.820117    ;  uncertainty r = 0.000125, k = 6.164590
         2         4     1        0.153830   166598.036499    ;  uncertainty r = 0.000255, k = 69.659349
         4        11     1        0.139838   263832.099902    ;  uncertainty r = 0.000172, k = 28.015465
         4        17     1        0.138437   410029.471826    ;  uncertainty r = 0.000041, k = 10.778457
         5         6     1        0.140704   365826.804004    ;  uncertainty r = 0.000067, k = 9.112300
         5        10     1        0.143154   356974.671484    ;  uncertainty r = 0.000057, k = 27.136817
         5        17     1        0.143002   275016.740918    ;  uncertainty r = 0.000068, k = 19.578713
         6         7     1        0.139076   370348.915332    ;  uncertainty r = 0.000038, k = 2.379308
         6        12     1        0.108849   336470.364551    ;  uncertainty r = 0.000022, k = 1.892272
         7         8     1        0.141149   349517.094971    ;  uncertainty r = 0.000049, k = 2.594719
         7        13     1        0.108810   335680.348535    ;  uncertainty r = 0.000015, k = 0.856441
         8         9     1        0.139318   368673.374512    ;  uncertainty r = 0.000042, k = 1.494630
         8        14     1        0.108793   334449.791846    ;  uncertainty r = 0.000016, k = 1.390266
         9        10     1        0.140121   362537.930762    ;  uncertainty r = 0.000082, k = 5.866541
         9        15     1        0.108818   338239.754248    ;  uncertainty r = 0.000027, k = 1.197642
        10        11     1        0.137767   287740.452441    ;  uncertainty r = 0.000089, k = 15.190621
        11        16     1        0.145611   258328.520850    ;  uncertainty r = 0.000092, k = 7.384901
        16        18     1        0.109480   309435.248340    ;  uncertainty r = 0.000054, k = 5.949788
        16        19     1        0.109480   309435.248340    ;  uncertainty r = 0.000054, k = 5.949788
        16        20     1        0.109480   309435.248340    ;  uncertainty r = 0.000054, k = 5.949780
        17        21     1        0.108119   338402.527783    ;  uncertainty r = 0.000058, k = 6.607508

[ angles ]
;       ai        aj        ak funct           theta             cth
         1         2         3     1      131.477478      798.652091    ;  uncertainty theta = 0.007960, k = 0.143069
         1         2         4     1      115.120522      401.122932    ;  uncertainty theta = 0.008638, k = 0.332566
         2         4        11     1      118.745628      344.823566    ;  uncertainty theta = 0.007555, k = 0.407745
         2         4        17     1      127.479393      310.011889    ;  uncertainty theta = 0.012013, k = 0.375588
         3         2         4     1      115.120522      401.122932    ;  uncertainty theta = 0.008638, k = 0.332566
         4        11        10     1      108.788269      851.109783    ;  uncertainty theta = 0.006294, k = 0.237512
         4        11        16     1      120.864601      398.525936    ;  uncertainty theta = 0.006865, k = 0.144969
         4        17         5     1      107.945480      783.281688    ;  uncertainty theta = 0.006113, k = 0.103006
         4        17        21     1      124.098488      247.691574    ;  uncertainty theta = 0.005676, k = 0.158445
         5         6         7     1      118.899002      556.151509    ;  uncertainty theta = 0.001772, k = 0.034001
         5         6        12     1      121.825218      294.524239    ;  uncertainty theta = 0.001896, k = 0.063004
         5        10         9     1      121.077927      378.576346    ;  uncertainty theta = 0.003035, k = 0.075465
         5        10        11     1      108.894547      676.742081    ;  uncertainty theta = 0.002251, k = 0.169159
         5        17        21     1      125.256798      247.200081    ;  uncertainty theta = 0.003248, k = 0.125959
         6         5        10     1      116.855942      404.917523    ;  uncertainty theta = 0.003481, k = 0.100659
         6         5        17     1      133.566666      376.006962    ;  uncertainty theta = 0.002200, k = 0.056874
         6         7         8     1      121.311096      520.737316    ;  uncertainty theta = 0.001722, k = 0.030939
         6         7        13     1      119.836937      287.218104    ;  uncertainty theta = 0.002719, k = 0.024925
         7         6        12     1      120.817764      284.633365    ;  uncertainty theta = 0.001373, k = 0.024619
         7         8         9     1      122.490807      521.711078    ;  uncertainty theta = 0.001024, k = 0.032716
         7         8        14     1      119.917648      287.728335    ;  uncertainty theta = 0.001182, k = 0.056171
         8         7        13     1      119.614746      287.963947    ;  uncertainty theta = 0.001902, k = 0.019502
         8         9        10     1      117.708618      533.420864    ;  uncertainty theta = 0.001783, k = 0.138560
         8         9        15     1      121.009766      285.939078    ;  uncertainty theta = 0.001720, k = 0.059389
         9         8        14     1      119.488846      285.519694    ;  uncertainty theta = 0.001649, k = 0.041598
         9        10        11     1      127.792343      388.741903    ;  uncertainty theta = 0.001997, k = 0.111129
        10         5        17     1      106.544533      681.036210    ;  uncertainty theta = 0.003847, k = 0.127098
        10         9        15     1      122.251205      290.375193    ;  uncertainty theta = 0.001618, k = 0.071899
        10        11        16     1      120.289291      399.536184    ;  uncertainty theta = 0.002790, k = 0.174017
        11         4        17     1      111.098793      689.078739    ;  uncertainty theta = 0.002464, k = 0.257032
        11        16        18     1      108.244873      471.706737    ;  uncertainty theta = 0.003256, k = 0.042936
        11        16        19     1      108.244873      471.706737    ;  uncertainty theta = 0.003256, k = 0.042936
        11        16        20     1      108.244858      471.706769    ;  uncertainty theta = 0.003256, k = 0.042936
        18        16        19     1      107.435669      321.240428    ;  uncertainty theta = 0.006417, k = 0.031000
        18        16        20     1      107.435669      321.240428    ;  uncertainty theta = 0.006417, k = 0.031000
        19        16        20     1      107.435669      321.240428    ;  uncertainty theta = 0.006417, k = 0.031000

[ dihedrals ] ; propers for gromacs 4.5 or higher, use funct 9
;       ai        aj        ak        al funct           phase               k        pn
         1         2         4        11     9        0.000000        1.612301         1    ;  uncertainty k = 0.575827
         1         2         4        11     9      180.000000        4.282470         2    ;  uncertainty k = 0.369977
         1         2         4        11     9        0.000000        0.637482         3    ;  uncertainty k = 0.265711
         1         2         4        11     9      180.000000        0.154074         4    ;  uncertainty k = 0.194114
         1         2         4        17     9        0.000000       -1.792981         1    ;  uncertainty k = 0.542203
         1         2         4        17     9      180.000000        1.689563         2    ;  uncertainty k = 0.299825
         1         2         4        17     9        0.000000        0.092968         3    ;  uncertainty k = 0.182840
         1         2         4        17     9      180.000000        0.063630         4    ;  uncertainty k = 0.091373
         2         4        11        10     9        0.000000        0.529126         1    ;  uncertainty k = 1.975295
         2         4        11        10     9      180.000000        6.654584         2    ;  uncertainty k = 0.818740
         2         4        11        10     9        0.000000        1.913345         3    ;  uncertainty k = 0.598230
         2         4        11        10     9      180.000000        0.349072         4    ;  uncertainty k = 0.180308
         2         4        11        16     9        0.000000       -0.069528         1    ;  uncertainty k = 1.514711
         2         4        11        16     9      180.000000        4.989340         2    ;  uncertainty k = 0.298768
         2         4        11        16     9        0.000000        1.347648         3    ;  uncertainty k = 0.262923
         2         4        11        16     9      180.000000       -0.163674         4    ;  uncertainty k = 0.257608
         2         4        17         5     9        0.000000        0.795906         1    ;  uncertainty k = 1.290607
         2         4        17         5     9      180.000000       11.587669         2    ;  uncertainty k = 0.311436
         2         4        17         5     9        0.000000        1.980961         3    ;  uncertainty k = 0.265646
         2         4        17         5     9      180.000000        0.980481         4    ;  uncertainty k = 0.248707
         2         4        17        21     9        0.000000       -0.149156         1    ;  uncertainty k = 1.320460
         2         4        17        21     9      180.000000        7.997200         2    ;  uncertainty k = 0.644362
         2         4        17        21     9        0.000000        1.728452         3    ;  uncertainty k = 0.262603
         2         4        17        21     9      180.000000        0.525010         4    ;  uncertainty k = 0.242233
         3         2         4        11     9        0.000000        1.612301         1    ;  uncertainty k = 0.575827
         3         2         4        11     9      180.000000        4.282470         2    ;  uncertainty k = 0.369977
         3         2         4        11     9        0.000000        0.637482         3    ;  uncertainty k = 0.265711
         3         2         4        11     9      180.000000        0.154074         4    ;  uncertainty k = 0.194114
         3         2         4        17     9        0.000000       -1.792981         1    ;  uncertainty k = 0.542203
         3         2         4        17     9      180.000000        1.689563         2    ;  uncertainty k = 0.299825
         3         2         4        17     9        0.000000        0.092968         3    ;  uncertainty k = 0.182840
         3         2         4        17     9      180.000000        0.063630         4    ;  uncertainty k = 0.091373
         4        11        10         5     9        0.000000       -0.061491         1    ;  uncertainty k = 0.837200
         4        11        10         5     9      180.000000       13.155844         2    ;  uncertainty k = 0.912653
         4        11        10         5     9        0.000000       -6.728332         3    ;  uncertainty k = 0.956823
         4        11        10         5     9      180.000000        1.037588         4    ;  uncertainty k = 0.727065
         4        11        10         9     9        0.000000        0.919893         1    ;  uncertainty k = 1.508812
         4        11        10         9     9      180.000000        6.161181         2    ;  uncertainty k = 0.953903
         4        11        10         9     9        0.000000        0.718503         3    ;  uncertainty k = 0.596080
         4        11        10         9     9      180.000000        0.329339         4    ;  uncertainty k = 0.172443
         4        11        16        18     9        0.000000        0.642710         1    ;  uncertainty k = 1.000461
         4        11        16        18     9      180.000000        0.330402         2    ;  uncertainty k = 0.411657
         4        11        16        18     9        0.000000        0.198000         3    ;  uncertainty k = 0.212077
         4        11        16        18     9      180.000000        0.230588         4    ;  uncertainty k = 0.074525
         4        11        16        19     9        0.000000        0.642710         1    ;  uncertainty k = 1.000461
         4        11        16        19     9      180.000000        0.330402         2    ;  uncertainty k = 0.411657
         4        11        16        19     9        0.000000        0.198000         3    ;  uncertainty k = 0.212077
         4        11        16        19     9      180.000000        0.230588         4    ;  uncertainty k = 0.074525
         4        11        16        20     9        0.000000        0.642710         1    ;  uncertainty k = 1.000461
         4        11        16        20     9      180.000000        0.330402         2    ;  uncertainty k = 0.411657
         4        11        16        20     9        0.000000        0.198000         3    ;  uncertainty k = 0.212077
         4        11        16        20     9      180.000000        0.230588         4    ;  uncertainty k = 0.074525
         4        17         5         6     9        0.000000        0.033246         1    ;  uncertainty k = 1.421697
         4        17         5         6     9      180.000000        5.805182         2    ;  uncertainty k = 0.539295
         4        17         5         6     9        0.000000        0.435855         3    ;  uncertainty k = 0.415330
         4        17         5         6     9      180.000000        0.970564         4    ;  uncertainty k = 0.409825
         4        17         5        10     9        0.000000        0.291169         1    ;  uncertainty k = 1.076755
         4        17         5        10     9      180.000000       13.671403         2    ;  uncertainty k = 1.245462
         4        17         5        10     9        0.000000      -10.364520         3    ;  uncertainty k = 2.370737
         4        17         5        10     9      180.000000        1.925659         4    ;  uncertainty k = 0.825892
         5         6         7         8     9        0.000000        0.001539         1    ;  uncertainty k = 0.395496
         5         6         7         8     9      180.000000       17.277343         2    ;  uncertainty k = 0.251777
         5         6         7         8     9        0.000000       -0.538139         3    ;  uncertainty k = 0.447534
         5         6         7         8     9      180.000000        0.499187         4    ;  uncertainty k = 0.390254
         5         6         7        13     9        0.000000        0.077579         1    ;  uncertainty k = 0.315349
         5         6         7        13     9      180.000000       11.303306         2    ;  uncertainty k = 0.385176
         5         6         7        13     9        0.000000        1.492523         3    ;  uncertainty k = 0.318863
         5         6         7        13     9      180.000000        1.624538         4    ;  uncertainty k = 0.274170
         5        10         9         8     9        0.000000        0.025244         1    ;  uncertainty k = 0.380370
         5        10         9         8     9      180.000000       12.545204         2    ;  uncertainty k = 0.108454
         5        10         9         8     9        0.000000       -1.259023         3    ;  uncertainty k = 0.281149
         5        10         9         8     9      180.000000        0.836598         4    ;  uncertainty k = 0.259793
         5        10         9        15     9        0.000000        0.239754         1    ;  uncertainty k = 0.515326
         5        10         9        15     9      180.000000        6.577251         2    ;  uncertainty k = 0.943053
         5        10         9        15     9        0.000000        1.304384         3    ;  uncertainty k = 0.184938
         5        10         9        15     9      180.000000        1.240525         4    ;  uncertainty k = 0.335497
         5        10        11        16     9        0.000000        1.871367         1    ;  uncertainty k = 0.931630
         5        10        11        16     9      180.000000        5.540044         2    ;  uncertainty k = 0.715208
         5        10        11        16     9        0.000000        1.468144         3    ;  uncertainty k = 0.250674
         5        10        11        16     9      180.000000        0.242586         4    ;  uncertainty k = 0.198725
         5        17         4        11     9        0.000000       -0.153245         1    ;  uncertainty k = 0.219066
         5        17         4        11     9      180.000000       20.827629         2    ;  uncertainty k = 0.307892
         5        17         4        11     9        0.000000       -5.628092         3    ;  uncertainty k = 1.094382
         5        17         4        11     9      180.000000        1.283794         4    ;  uncertainty k = 0.559991
         6         5        10         9     9        0.000000       -0.550892         1    ;  uncertainty k = 0.865364
         6         5        10         9     9      180.000000        7.654713         2    ;  uncertainty k = 0.909609
         6         5        10         9     9        0.000000        0.200425         3    ;  uncertainty k = 0.413589
         6         5        10         9     9      180.000000        0.905314         4    ;  uncertainty k = 0.380050
         6         5        10        11     9        0.000000        0.332114         1    ;  uncertainty k = 0.259649
         6         5        10        11     9      180.000000        8.267409         2    ;  uncertainty k = 0.357039
         6         5        10        11     9        0.000000       -0.236814         3    ;  uncertainty k = 0.580013
         6         5        10        11     9      180.000000        1.284040         4    ;  uncertainty k = 0.446549
         6         5        17        21     9        0.000000        0.341786         1    ;  uncertainty k = 1.553907
         6         5        17        21     9      180.000000        4.280700         2    ;  uncertainty k = 0.773616
         6         5        17        21     9        0.000000        1.330483         3    ;  uncertainty k = 0.445897
         6         5        17        21     9      180.000000        0.114411         4    ;  uncertainty k = 0.163781
         6         7         8         9     9        0.000000       -0.189594         1    ;  uncertainty k = 0.196789
         6         7         8         9     9      180.000000       12.791262         2    ;  uncertainty k = 0.292826
         6         7         8         9     9        0.000000       -0.875706         3    ;  uncertainty k = 0.699443
         6         7         8         9     9      180.000000        0.625652         4    ;  uncertainty k = 0.195146
         6         7         8        14     9        0.000000       -0.044438         1    ;  uncertainty k = 0.133958
         6         7         8        14     9      180.000000        6.930633         2    ;  uncertainty k = 0.457528
         6         7         8        14     9        0.000000        1.338388         3    ;  uncertainty k = 0.256395
         6         7         8        14     9      180.000000        1.570174         4    ;  uncertainty k = 0.189941
         7         6         5        10     9        0.000000       -0.068033         1    ;  uncertainty k = 0.329856
         7         6         5        10     9      180.000000       13.427817         2    ;  uncertainty k = 0.247967
         7         6         5        10     9        0.000000       -1.636170         3    ;  uncertainty k = 0.219759
         7         6         5        10     9      180.000000        0.698361         4    ;  uncertainty k = 0.225049
         7         6         5        17     9        0.000000        0.081698         1    ;  uncertainty k = 0.435622
         7         6         5        17     9      180.000000        9.149388         2    ;  uncertainty k = 0.115260
         7         6         5        17     9        0.000000        0.669366         3    ;  uncertainty k = 0.213185
         7         6         5        17     9      180.000000        1.176081         4    ;  uncertainty k = 0.189979
         7         8         9        10     9        0.000000       -0.017391         1    ;  uncertainty k = 0.390485
         7         8         9        10     9      180.000000       16.401370         2    ;  uncertainty k = 0.265828
         7         8         9        10     9        0.000000       -0.447928         3    ;  uncertainty k = 0.387536
         7         8         9        10     9      180.000000        0.650133         4    ;  uncertainty k = 0.280375
         7         8         9        15     9        0.000000        0.178959         1    ;  uncertainty k = 0.205407
         7         8         9        15     9      180.000000        8.827085         2    ;  uncertainty k = 0.613986
         7         8         9        15     9        0.000000        1.595045         3    ;  uncertainty k = 0.252186
         7         8         9        15     9      180.000000        1.897954         4    ;  uncertainty k = 0.305523
         8         7         6        12     9        0.000000        0.159900         1    ;  uncertainty k = 0.204211
         8         7         6        12     9      180.000000        8.854251         2    ;  uncertainty k = 0.547019
         8         7         6        12     9        0.000000        1.540787         3    ;  uncertainty k = 0.261267
         8         7         6        12     9      180.000000        1.869245         4    ;  uncertainty k = 0.286513
         8         9        10        11     9        0.000000        0.208304         1    ;  uncertainty k = 0.471462
         8         9        10        11     9      180.000000       10.541146         2    ;  uncertainty k = 0.332660
         8         9        10        11     9        0.000000        0.733017         3    ;  uncertainty k = 0.207364
         8         9        10        11     9      180.000000        1.100075         4    ;  uncertainty k = 0.177089
         9         8         7        13     9        0.000000        0.092656         1    ;  uncertainty k = 0.082452
         9         8         7        13     9      180.000000        7.089965         2    ;  uncertainty k = 0.391269
         9         8         7        13     9        0.000000        1.382108         3    ;  uncertainty k = 0.266002
         9         8         7        13     9      180.000000        1.648930         4    ;  uncertainty k = 0.215684
         9        10         5        17     9        0.000000        0.119016         1    ;  uncertainty k = 0.421258
         9        10         5        17     9      180.000000        7.859544         2    ;  uncertainty k = 0.490376
         9        10         5        17     9        0.000000        0.099357         3    ;  uncertainty k = 0.547924
         9        10         5        17     9      180.000000        1.181658         4    ;  uncertainty k = 0.403795
         9        10        11        16     9        0.000000        0.031622         1    ;  uncertainty k = 1.759085
         9        10        11        16     9      180.000000        3.710766         2    ;  uncertainty k = 0.778382
         9        10        11        16     9        0.000000        0.842107         3    ;  uncertainty k = 0.203925
         9        10        11        16     9      180.000000        0.150006         4    ;  uncertainty k = 0.133819
        10         5         6        12     9        0.000000        0.206374         1    ;  uncertainty k = 0.320889
        10         5         6        12     9      180.000000        7.019686         2    ;  uncertainty k = 0.808778
        10         5         6        12     9        0.000000        1.440463         3    ;  uncertainty k = 0.402149
        10         5         6        12     9      180.000000        1.201125         4    ;  uncertainty k = 0.384380
        10         5        17        21     9        0.000000        0.066548         1    ;  uncertainty k = 1.276418
        10         5        17        21     9      180.000000        8.475030         2    ;  uncertainty k = 0.644035
        10         5        17        21     9        0.000000        1.290677         3    ;  uncertainty k = 0.481124
        10         5        17        21     9      180.000000        0.221162         4    ;  uncertainty k = 0.310757
        10         9         8        14     9        0.000000        0.056804         1    ;  uncertainty k = 0.314302
        10         9         8        14     9      180.000000       10.418054         2    ;  uncertainty k = 0.351737
        10         9         8        14     9        0.000000        1.399632         3    ;  uncertainty k = 0.350185
        10         9         8        14     9      180.000000        1.577746         4    ;  uncertainty k = 0.278702
        10        11         4        17     9        0.000000       -0.524305         1    ;  uncertainty k = 1.076408
        10        11         4        17     9      180.000000       15.340946         2    ;  uncertainty k = 0.733740
        10        11         4        17     9        0.000000       -6.347196         3    ;  uncertainty k = 1.374800
        10        11         4        17     9      180.000000        0.797799         4    ;  uncertainty k = 0.536246
        10        11        16        18     9        0.000000       -0.963616         1    ;  uncertainty k = 0.505968
        10        11        16        18     9      180.000000       -0.592655         2    ;  uncertainty k = 0.388092
        10        11        16        18     9        0.000000        1.239908         3    ;  uncertainty k = 0.246640
        10        11        16        18     9      180.000000        0.224173         4    ;  uncertainty k = 0.055437
        10        11        16        19     9        0.000000       -0.963616         1    ;  uncertainty k = 0.505968
        10        11        16        19     9      180.000000       -0.592655         2    ;  uncertainty k = 0.388092
        10        11        16        19     9        0.000000        1.239908         3    ;  uncertainty k = 0.246640
        10        11        16        19     9      180.000000        0.224173         4    ;  uncertainty k = 0.055437
        10        11        16        20     9        0.000000       -0.963616         1    ;  uncertainty k = 0.505968
        10        11        16        20     9      180.000000       -0.592655         2    ;  uncertainty k = 0.388092
        10        11        16        20     9        0.000000        1.239908         3    ;  uncertainty k = 0.246640
        10        11        16        20     9      180.000000        0.224173         4    ;  uncertainty k = 0.055437
        11         4        17        21     9        0.000000        0.381790         1    ;  uncertainty k = 0.759935
        11         4        17        21     9      180.000000       14.080160         2    ;  uncertainty k = 0.309385
        11         4        17        21     9        0.000000        1.408629         3    ;  uncertainty k = 0.769941
        11         4        17        21     9      180.000000        0.765439         4    ;  uncertainty k = 0.255650
        11        10         5        17     9        0.000000       -0.325903         1    ;  uncertainty k = 0.383268
        11        10         5        17     9      180.000000       12.529248         2    ;  uncertainty k = 0.968045
        11        10         5        17     9        0.000000       -4.801424         3    ;  uncertainty k = 1.598627
        11        10         5        17     9      180.000000        1.507813         4    ;  uncertainty k = 0.963062
        11        10         9        15     9        0.000000        0.362089         1    ;  uncertainty k = 0.554815
        11        10         9        15     9      180.000000        5.632948         2    ;  uncertainty k = 0.483943
        11        10         9        15     9        0.000000        1.153136         3    ;  uncertainty k = 0.359087
        11        10         9        15     9      180.000000        0.779205         4    ;  uncertainty k = 0.399633
        12         6         5        17     9        0.000000        0.338892         1    ;  uncertainty k = 0.836518
        12         6         5        17     9      180.000000        5.634993         2    ;  uncertainty k = 0.422975
        12         6         5        17     9        0.000000        1.089065         3    ;  uncertainty k = 0.312738
        12         6         5        17     9      180.000000        0.707601         4    ;  uncertainty k = 0.259328
        12         6         7        13     9        0.000000        0.094693         1    ;  uncertainty k = 0.062009
        12         6         7        13     9      180.000000        7.934468         2    ;  uncertainty k = 0.228044
        12         6         7        13     9        0.000000       -0.180089         3    ;  uncertainty k = 0.251966
        12         6         7        13     9      180.000000        0.154939         4    ;  uncertainty k = 0.190076
        13         7         8        14     9        0.000000        0.030284         1    ;  uncertainty k = 0.161761
        13         7         8        14     9      180.000000        6.879258         2    ;  uncertainty k = 0.466193
        13         7         8        14     9        0.000000       -0.245907         3    ;  uncertainty k = 0.202631
        13         7         8        14     9      180.000000        0.087154         4    ;  uncertainty k = 0.140364
        14         8         9        15     9        0.000000        0.112655         1    ;  uncertainty k = 0.287330
        14         8         9        15     9      180.000000        7.657353         2    ;  uncertainty k = 0.246007
        14         8         9        15     9        0.000000       -0.288724         3    ;  uncertainty k = 0.227545
        14         8         9        15     9      180.000000        0.129419         4    ;  uncertainty k = 0.151119
        16        11         4        17     9        0.000000        1.437368         1    ;  uncertainty k = 1.028801
        16        11         4        17     9      180.000000        9.116656         2    ;  uncertainty k = 0.647105
        16        11         4        17     9        0.000000        1.788676         3    ;  uncertainty k = 0.812908
        16        11         4        17     9      180.000000        0.019715         4    ;  uncertainty k = 0.338296

[ dihedrals ] ; impropers
;       ai        aj        ak        al funct           phase               k        pn
         2         1         3         4     4      180.000000       65.358603         2    ;  uncertainty k = 0.071548
         2         3         4         1     4      180.000000       65.358603         2    ;  uncertainty k = 0.071548
         2         4         1         3     4      180.000000       65.358603         2    ;  uncertainty k = 0.071548
         4         2        11        17     4      180.000000        5.853838         2    ;  uncertainty k = 0.614108
         4        11        17         2     4      180.000000        5.853838         2    ;  uncertainty k = 0.614108
         4        17         2        11     4      180.000000        5.853838         2    ;  uncertainty k = 0.614108
         6         5         7        12     4      180.000000        3.876205         2    ;  uncertainty k = 0.147254
         6         7        12         5     4      180.000000        3.876205         2    ;  uncertainty k = 0.147254
         6        12         5         7     4      180.000000        3.876205         2    ;  uncertainty k = 0.147254
         7         6         8        13     4      180.000000        3.024871         2    ;  uncertainty k = 0.212325
         7         8        13         6     4      180.000000        3.024871         2    ;  uncertainty k = 0.212325
         7        13         6         8     4      180.000000        3.024871         2    ;  uncertainty k = 0.212325
         8         7         9        14     4      180.000000        3.676441         2    ;  uncertainty k = 0.161482
         8         9        14         7     4      180.000000        3.676441         2    ;  uncertainty k = 0.161482
         8        14         7         9     4      180.000000        3.676441         2    ;  uncertainty k = 0.161482
         9         8        10        15     4      180.000000        2.102160         2    ;  uncertainty k = 0.389006
         9        10        15         8     4      180.000000        2.102160         2    ;  uncertainty k = 0.389006
         9        15         8        10     4      180.000000        2.102160         2    ;  uncertainty k = 0.389006
        10         5         9        11     4      180.000000        0.246200         2    ;  uncertainty k = 0.550521
        10         9        11         5     4      180.000000        0.246200         2    ;  uncertainty k = 0.550521
        10        11         5         9     4      180.000000        0.246200         2    ;  uncertainty k = 0.550521
        17         4         5        21     4      180.000000        0.247317         2    ;  uncertainty k = 0.553017
        17         5        21         4     4      180.000000        0.247317         2    ;  uncertainty k = 0.553017
        17        21         4         5     4      180.000000        0.247317         2    ;  uncertainty k = 0.553017

[ pairs ]
;       ai        aj funct
         1        11     1
         1        17     1
         2         5     1
         2        10     1
         2        16     1
         2        21     1
         3        11     1
         3        17     1
         4         6     1
         4         9     1
         4        18     1
         4        19     1
         4        20     1
         5         8     1
         5        13     1
         5        15     1
         5        16     1
         6         9     1
         6        11     1
         6        14     1
         6        21     1
         7        10     1
         7        15     1
         7        17     1
         8        11     1
         8        12     1
         9        13     1
         9        16     1
         9        17     1
        10        12     1
        10        14     1
        10        18     1
        10        19     1
        10        20     1
        10        21     1
        11        15     1
        11        21     1
        12        13     1
        12        17     1
        13        14     1
        14        15     1
        16        17     1
