; ITP file created by ByteFF-joint-25, 2025-07-14 11:27:32.727156

[ atomtypes ]
;name           bonded.type        at.num        mass        charge   ptype           sigma         epsilon
 o0bf                                   8      0.0000       0.00000       A     3.04814e-01     6.12165e-01    ;  uncertainty sigma = 0.000020, epsilon = 0.000797
 c1bf                                   6      0.0000       0.00000       A     3.31492e-01     4.13823e-01    ;  uncertainty sigma = 0.000027, epsilon = 0.002514
 o2bf                                   8      0.0000       0.00000       A     3.04814e-01     6.12165e-01    ;  uncertainty sigma = 0.000020, epsilon = 0.000797
 c3bf                                   6      0.0000       0.00000       A     3.31484e-01     4.13023e-01    ;  uncertainty sigma = 0.000037, epsilon = 0.003390
 c4bf                                   6      0.0000       0.00000       A     3.31533e-01     4.13200e-01    ;  uncertainty sigma = 0.000009, epsilon = 0.000593
 c5bf                                   6      0.0000       0.00000       A     3.31525e-01     4.13241e-01    ;  uncertainty sigma = 0.000007, epsilon = 0.000678
 c6bf                                   6      0.0000       0.00000       A     3.31530e-01     4.13536e-01    ;  uncertainty sigma = 0.000005, epsilon = 0.000440
 c7bf                                   6      0.0000       0.00000       A     3.31516e-01     4.13114e-01    ;  uncertainty sigma = 0.000006, epsilon = 0.000553
 c8bf                                   6      0.0000       0.00000       A     3.31517e-01     4.13372e-01    ;  uncertainty sigma = 0.000009, epsilon = 0.000696
 c9bf                                   6      0.0000       0.00000       A     3.31515e-01     4.13243e-01    ;  uncertainty sigma = 0.000005, epsilon = 0.001096
 c10bf                                  6      0.0000       0.00000       A     3.31544e-01     4.13257e-01    ;  uncertainty sigma = 0.000012, epsilon = 0.000813
 h11bf                                  1      0.0000       0.00000       A     2.62562e-01     6.69747e-02    ;  uncertainty sigma = 0.000007, epsilon = 0.000581
 h12bf                                  1      0.0000       0.00000       A     2.62549e-01     6.70686e-02    ;  uncertainty sigma = 0.000009, epsilon = 0.000748
 br13bf                                35      0.0000       0.00000       A     3.61299e-01     1.64555e+00    ;  uncertainty sigma = 0.000010, epsilon = 0.001783
 h14bf                                  1      0.0000       0.00000       A     2.62555e-01     6.70297e-02    ;  uncertainty sigma = 0.000013, epsilon = 0.000561
 h15bf                                  1      0.0000       0.00000       A     2.62562e-01     6.72274e-02    ;  uncertainty sigma = 0.000030, epsilon = 0.000892
 n16bf                                  7      0.0000       0.00000       A     3.20578e-01     8.54072e-01    ;  uncertainty sigma = 0.000041, epsilon = 0.001369
 c17bf                                  6      0.0000       0.00000       A     3.39811e-01     4.52002e-01    ;  uncertainty sigma = 0.000019, epsilon = 0.001371
 h18bf                                  1      0.0000       0.00000       A     2.42199e-01     8.67368e-02    ;  uncertainty sigma = 0.000023, epsilon = 0.000598
 h19bf                                  1      0.0000       0.00000       A     2.42199e-01     8.67368e-02    ;  uncertainty sigma = 0.000023, epsilon = 0.000598
 h20bf                                  1      0.0000       0.00000       A     2.42199e-01     8.67367e-02    ;  uncertainty sigma = 0.000023, epsilon = 0.000598

[ moleculetype ]
;name             nrexcl
 MOL                   3

[ atoms ]
;       nr            type      resi   res      atom      cgnr      charge          mass ; qtot
         1            o0bf         1   UNL        o0         1    -0.82555       15.9990 ; qtot   -0.826
         2            c1bf         1   UNL        c1         2     0.92809       12.0110 ; qtot    0.103
         3            o2bf         1   UNL        o2         3    -0.82555       15.9990 ; qtot   -0.723
         4            c3bf         1   UNL        c3         4    -0.10088       12.0110 ; qtot   -0.824
         5            c4bf         1   UNL        c4         5    -0.06816       12.0110 ; qtot   -0.892
         6            c5bf         1   UNL        c5         6    -0.15370       12.0110 ; qtot   -1.046
         7            c6bf         1   UNL        c6         7    -0.08883       12.0110 ; qtot   -1.135
         8            c7bf         1   UNL        c7         8    -0.03855       12.0110 ; qtot   -1.173
         9            c8bf         1   UNL        c8         9    -0.07452       12.0110 ; qtot   -1.248
        10            c9bf         1   UNL        c9        10    -0.10124       12.0110 ; qtot   -1.349
        11           c10bf         1   UNL       c10        11    -0.23128       12.0110 ; qtot   -1.580
        12           h11bf         1   UNL       h11        12     0.13801        1.0080 ; qtot   -1.442
        13           h12bf         1   UNL       h12        13     0.14799        1.0080 ; qtot   -1.294
        14          br13bf         1   UNL      br13        14    -0.11550       79.9040 ; qtot   -1.410
        15           h14bf         1   UNL       h14        15     0.15200        1.0080 ; qtot   -1.258
        16           h15bf         1   UNL       h15        16     0.14954        1.0080 ; qtot   -1.108
        17           n16bf         1   UNL       n16        17    -0.06137       14.0070 ; qtot   -1.169
        18           c17bf         1   UNL       c17        18     0.02500       12.0110 ; qtot   -1.144
        19           h18bf         1   UNL       h18        19     0.04816        1.0080 ; qtot   -1.096
        20           h19bf         1   UNL       h19        20     0.04816        1.0080 ; qtot   -1.048
        21           h20bf         1   UNL       h20        21     0.04818        1.0080 ; qtot   -1.000

[ bonds ]
;       ai        aj funct               r               k
         1         2     1        0.126261   547700.871191    ;  uncertainty r = 0.000125, k = 6.164512
         2         3     1        0.126261   547700.871191    ;  uncertainty r = 0.000125, k = 6.164512
         2         4     1        0.153830   166598.074805    ;  uncertainty r = 0.000255, k = 69.659417
         4        11     1        0.138512   409073.719971    ;  uncertainty r = 0.000041, k = 9.420101
         4        17     1        0.139838   263832.099902    ;  uncertainty r = 0.000172, k = 28.015406
         5         6     1        0.140043   363488.064453    ;  uncertainty r = 0.000098, k = 6.759085
         5        10     1        0.143152   364175.370215    ;  uncertainty r = 0.000065, k = 19.935254
         5        17     1        0.137639   287708.582129    ;  uncertainty r = 0.000081, k = 13.571189
         6         7     1        0.139176   372504.911328    ;  uncertainty r = 0.000050, k = 2.109341
         6        12     1        0.108767   337630.004687    ;  uncertainty r = 0.000025, k = 0.946709
         7         8     1        0.140886   343028.702832    ;  uncertainty r = 0.000040, k = 1.572397
         7        13     1        0.108645   335161.179102    ;  uncertainty r = 0.000017, k = 1.378783
         8         9     1        0.138730   361253.184326    ;  uncertainty r = 0.000043, k = 3.080808
         8        14     1        0.192085   158968.288794    ;  uncertainty r = 0.000039, k = 8.306919
         9        10     1        0.140639   361861.401660    ;  uncertainty r = 0.000072, k = 11.567756
         9        15     1        0.108710   335130.636719    ;  uncertainty r = 0.000026, k = 0.971422
        10        11     1        0.142865   273506.935938    ;  uncertainty r = 0.000063, k = 14.443037
        11        16     1        0.108119   338321.141016    ;  uncertainty r = 0.000064, k = 6.454221
        17        18     1        0.145611   258328.546387    ;  uncertainty r = 0.000092, k = 7.384905
        18        19     1        0.109480   309435.324951    ;  uncertainty r = 0.000054, k = 5.949813
        18        20     1        0.109480   309435.324951    ;  uncertainty r = 0.000054, k = 5.949813
        18        21     1        0.109480   309435.324951    ;  uncertainty r = 0.000054, k = 5.949813

[ angles ]
;       ai        aj        ak funct           theta             cth
         1         2         3     1      131.477463      798.652155    ;  uncertainty theta = 0.007960, k = 0.143069
         1         2         4     1      115.120506      401.122932    ;  uncertainty theta = 0.008638, k = 0.332567
         2         4        11     1      127.439003      308.666179    ;  uncertainty theta = 0.012115, k = 0.405956
         2         4        17     1      118.745628      344.823566    ;  uncertainty theta = 0.007555, k = 0.407745
         3         2         4     1      115.120506      401.122932    ;  uncertainty theta = 0.008638, k = 0.332567
         4        11        10     1      107.781265      787.875623    ;  uncertainty theta = 0.006472, k = 0.103023
         4        11        16     1      124.147682      247.661440    ;  uncertainty theta = 0.005011, k = 0.159400
         4        17         5     1      108.737961      853.660238    ;  uncertainty theta = 0.006556, k = 0.252172
         4        17        18     1      120.864601      398.525936    ;  uncertainty theta = 0.006865, k = 0.144969
         5         6         7     1      118.614197      526.985768    ;  uncertainty theta = 0.002094, k = 0.105170
         5         6        12     1      122.386581      288.615239    ;  uncertainty theta = 0.001379, k = 0.074407
         5        10         9     1      117.674179      399.019792    ;  uncertainty theta = 0.004072, k = 0.100202
         5        10        11     1      106.713867      678.285225    ;  uncertainty theta = 0.003676, k = 0.138443
         5        17        18     1      120.294983      397.535416    ;  uncertainty theta = 0.002650, k = 0.169336
         6         5        10     1      120.775719      382.251775    ;  uncertainty theta = 0.003470, k = 0.087113
         6         5        17     1      127.802261      388.469997    ;  uncertainty theta = 0.002540, k = 0.126515
         6         7         8     1      121.270531      501.641592    ;  uncertainty theta = 0.001719, k = 0.050386
         6         7        13     1      120.058640      282.652898    ;  uncertainty theta = 0.002034, k = 0.058847
         7         6        12     1      120.334595      281.676423    ;  uncertainty theta = 0.001843, k = 0.053631
         7         8         9     1      123.332191      385.151290    ;  uncertainty theta = 0.002459, k = 0.065104
         7         8        14     1      118.697983      404.317082    ;  uncertainty theta = 0.001380, k = 0.111639
         8         7        13     1      120.404312      287.959861    ;  uncertainty theta = 0.001860, k = 0.025559
         8         9        10     1      117.373062      523.066237    ;  uncertainty theta = 0.003360, k = 0.118542
         8         9        15     1      121.473656      291.790204    ;  uncertainty theta = 0.002252, k = 0.045542
         9         8        14     1      119.588341      395.302100    ;  uncertainty theta = 0.002293, k = 0.038077
         9        10        11     1      132.995590      378.099760    ;  uncertainty theta = 0.001635, k = 0.047609
        10         5        17     1      108.946922      679.229715    ;  uncertainty theta = 0.002640, k = 0.167493
        10         9        15     1      122.373901      286.561545    ;  uncertainty theta = 0.002367, k = 0.086798
        10        11        16     1      125.059647      245.984578    ;  uncertainty theta = 0.003647, k = 0.122302
        11         4        17     1      111.150124      689.348092    ;  uncertainty theta = 0.002437, k = 0.260341
        17        18        19     1      108.244873      471.706769    ;  uncertainty theta = 0.003256, k = 0.042936
        17        18        20     1      108.244873      471.706769    ;  uncertainty theta = 0.003256, k = 0.042936
        17        18        21     1      108.244858      471.706737    ;  uncertainty theta = 0.003256, k = 0.042936
        19        18        20     1      107.435669      321.240492    ;  uncertainty theta = 0.006417, k = 0.031000
        19        18        21     1      107.435669      321.240492    ;  uncertainty theta = 0.006417, k = 0.031000
        20        18        21     1      107.435669      321.240492    ;  uncertainty theta = 0.006417, k = 0.031000

[ dihedrals ] ; propers for gromacs 4.5 or higher, use funct 9
;       ai        aj        ak        al funct           phase               k        pn
         1         2         4        11     9        0.000000       -1.744103         1    ;  uncertainty k = 0.590360
         1         2         4        11     9      180.000000        1.581380         2    ;  uncertainty k = 0.315623
         1         2         4        11     9        0.000000        0.080492         3    ;  uncertainty k = 0.162433
         1         2         4        11     9      180.000000        0.068905         4    ;  uncertainty k = 0.084277
         1         2         4        17     9        0.000000        1.612303         1    ;  uncertainty k = 0.575826
         1         2         4        17     9      180.000000        4.282470         2    ;  uncertainty k = 0.369976
         1         2         4        17     9        0.000000        0.637481         3    ;  uncertainty k = 0.265711
         1         2         4        17     9      180.000000        0.154074         4    ;  uncertainty k = 0.194114
         2         4        11        10     9        0.000000        0.798506         1    ;  uncertainty k = 1.326727
         2         4        11        10     9      180.000000       11.606782         2    ;  uncertainty k = 0.301554
         2         4        11        10     9        0.000000        1.981203         3    ;  uncertainty k = 0.248139
         2         4        11        10     9      180.000000        0.981116         4    ;  uncertainty k = 0.281337
         2         4        11        16     9        0.000000       -0.124580         1    ;  uncertainty k = 1.330850
         2         4        11        16     9      180.000000        8.034638         2    ;  uncertainty k = 0.639774
         2         4        11        16     9        0.000000        1.732985         3    ;  uncertainty k = 0.264524
         2         4        11        16     9      180.000000        0.518112         4    ;  uncertainty k = 0.246333
         2         4        17         5     9        0.000000        0.542882         1    ;  uncertainty k = 2.011773
         2         4        17         5     9      180.000000        6.664786         2    ;  uncertainty k = 0.838503
         2         4        17         5     9        0.000000        1.908133         3    ;  uncertainty k = 0.589537
         2         4        17         5     9      180.000000        0.339202         4    ;  uncertainty k = 0.178163
         2         4        17        18     9        0.000000       -0.069528         1    ;  uncertainty k = 1.514714
         2         4        17        18     9      180.000000        4.989340         2    ;  uncertainty k = 0.298769
         2         4        17        18     9        0.000000        1.347647         3    ;  uncertainty k = 0.262924
         2         4        17        18     9      180.000000       -0.163674         4    ;  uncertainty k = 0.257608
         3         2         4        11     9        0.000000       -1.744103         1    ;  uncertainty k = 0.590360
         3         2         4        11     9      180.000000        1.581380         2    ;  uncertainty k = 0.315623
         3         2         4        11     9        0.000000        0.080492         3    ;  uncertainty k = 0.162433
         3         2         4        11     9      180.000000        0.068905         4    ;  uncertainty k = 0.084277
         3         2         4        17     9        0.000000        1.612303         1    ;  uncertainty k = 0.575826
         3         2         4        17     9      180.000000        4.282470         2    ;  uncertainty k = 0.369976
         3         2         4        17     9        0.000000        0.637481         3    ;  uncertainty k = 0.265711
         3         2         4        17     9      180.000000        0.154074         4    ;  uncertainty k = 0.194114
         4        11        10         5     9        0.000000        0.342642         1    ;  uncertainty k = 1.185359
         4        11        10         5     9      180.000000       13.494652         2    ;  uncertainty k = 1.202335
         4        11        10         5     9        0.000000      -10.514887         3    ;  uncertainty k = 2.432656
         4        11        10         5     9      180.000000        1.942180         4    ;  uncertainty k = 0.816818
         4        11        10         9     9        0.000000        0.065117         1    ;  uncertainty k = 1.645127
         4        11        10         9     9      180.000000        5.710210         2    ;  uncertainty k = 0.661784
         4        11        10         9     9        0.000000        0.575899         3    ;  uncertainty k = 0.432322
         4        11        10         9     9      180.000000        0.944080         4    ;  uncertainty k = 0.412226
         4        17         5         6     9        0.000000        0.810401         1    ;  uncertainty k = 1.381920
         4        17         5         6     9      180.000000        6.337441         2    ;  uncertainty k = 0.926149
         4        17         5         6     9        0.000000        0.711718         3    ;  uncertainty k = 0.578648
         4        17         5         6     9      180.000000        0.315874         4    ;  uncertainty k = 0.192392
         4        17         5        10     9        0.000000       -0.062671         1    ;  uncertainty k = 0.937039
         4        17         5        10     9      180.000000       13.211904         2    ;  uncertainty k = 0.873887
         4        17         5        10     9        0.000000       -6.845725         3    ;  uncertainty k = 1.063307
         4        17         5        10     9      180.000000        1.047676         4    ;  uncertainty k = 0.689941
         4        17        18        19     9        0.000000        0.642711         1    ;  uncertainty k = 1.000462
         4        17        18        19     9      180.000000        0.330402         2    ;  uncertainty k = 0.411656
         4        17        18        19     9        0.000000        0.198001         3    ;  uncertainty k = 0.212076
         4        17        18        19     9      180.000000        0.230588         4    ;  uncertainty k = 0.074525
         4        17        18        20     9        0.000000        0.642711         1    ;  uncertainty k = 1.000462
         4        17        18        20     9      180.000000        0.330402         2    ;  uncertainty k = 0.411656
         4        17        18        20     9        0.000000        0.198001         3    ;  uncertainty k = 0.212076
         4        17        18        20     9      180.000000        0.230588         4    ;  uncertainty k = 0.074525
         4        17        18        21     9        0.000000        0.642711         1    ;  uncertainty k = 1.000462
         4        17        18        21     9      180.000000        0.330402         2    ;  uncertainty k = 0.411656
         4        17        18        21     9        0.000000        0.198001         3    ;  uncertainty k = 0.212076
         4        17        18        21     9      180.000000        0.230588         4    ;  uncertainty k = 0.074525
         5         6         7         8     9        0.000000        0.045720         1    ;  uncertainty k = 0.296311
         5         6         7         8     9      180.000000       16.362676         2    ;  uncertainty k = 0.205139
         5         6         7         8     9        0.000000       -0.585084         3    ;  uncertainty k = 0.552154
         5         6         7         8     9      180.000000        0.686520         4    ;  uncertainty k = 0.367300
         5         6         7        13     9        0.000000        0.095444         1    ;  uncertainty k = 0.206421
         5         6         7        13     9      180.000000       10.455455         2    ;  uncertainty k = 0.344356
         5         6         7        13     9        0.000000        1.411165         3    ;  uncertainty k = 0.344827
         5         6         7        13     9      180.000000        1.615649         4    ;  uncertainty k = 0.242608
         5        10         9         8     9        0.000000       -0.082259         1    ;  uncertainty k = 0.346609
         5        10         9         8     9      180.000000       13.280563         2    ;  uncertainty k = 0.216519
         5        10         9         8     9        0.000000       -1.598069         3    ;  uncertainty k = 0.300865
         5        10         9         8     9      180.000000        0.800039         4    ;  uncertainty k = 0.215678
         5        10         9        15     9        0.000000        0.196273         1    ;  uncertainty k = 0.336530
         5        10         9        15     9      180.000000        6.752834         2    ;  uncertainty k = 0.791550
         5        10         9        15     9        0.000000        1.446803         3    ;  uncertainty k = 0.363973
         5        10         9        15     9      180.000000        1.219930         4    ;  uncertainty k = 0.379894
         5        10        11        16     9        0.000000        0.108787         1    ;  uncertainty k = 1.226594
         5        10        11        16     9      180.000000        8.620943         2    ;  uncertainty k = 0.710105
         5        10        11        16     9        0.000000        1.301886         3    ;  uncertainty k = 0.561280
         5        10        11        16     9      180.000000        0.216783         4    ;  uncertainty k = 0.334001
         5        17         4        11     9        0.000000       -0.519187         1    ;  uncertainty k = 1.090933
         5        17         4        11     9      180.000000       15.233187         2    ;  uncertainty k = 0.748088
         5        17         4        11     9        0.000000       -6.295311         3    ;  uncertainty k = 1.326486
         5        17         4        11     9      180.000000        0.825890         4    ;  uncertainty k = 0.523379
         5        17        18        19     9        0.000000       -0.957309         1    ;  uncertainty k = 0.538227
         5        17        18        19     9      180.000000       -0.599473         2    ;  uncertainty k = 0.360550
         5        17        18        19     9        0.000000        1.222899         3    ;  uncertainty k = 0.231073
         5        17        18        19     9      180.000000        0.229474         4    ;  uncertainty k = 0.054786
         5        17        18        20     9        0.000000       -0.957309         1    ;  uncertainty k = 0.538227
         5        17        18        20     9      180.000000       -0.599473         2    ;  uncertainty k = 0.360550
         5        17        18        20     9        0.000000        1.222899         3    ;  uncertainty k = 0.231073
         5        17        18        20     9      180.000000        0.229474         4    ;  uncertainty k = 0.054786
         5        17        18        21     9        0.000000       -0.957309         1    ;  uncertainty k = 0.538227
         5        17        18        21     9      180.000000       -0.599473         2    ;  uncertainty k = 0.360550
         5        17        18        21     9        0.000000        1.222899         3    ;  uncertainty k = 0.231073
         5        17        18        21     9      180.000000        0.229474         4    ;  uncertainty k = 0.054786
         6         5        10         9     9        0.000000       -0.563525         1    ;  uncertainty k = 0.782609
         6         5        10         9     9      180.000000        7.518101         2    ;  uncertainty k = 0.943175
         6         5        10         9     9        0.000000        0.244815         3    ;  uncertainty k = 0.262684
         6         5        10         9     9      180.000000        0.919966         4    ;  uncertainty k = 0.394673
         6         5        10        11     9        0.000000        0.074174         1    ;  uncertainty k = 0.420826
         6         5        10        11     9      180.000000        7.732517         2    ;  uncertainty k = 0.534193
         6         5        10        11     9        0.000000        0.139069         3    ;  uncertainty k = 0.507938
         6         5        10        11     9      180.000000        1.169018         4    ;  uncertainty k = 0.402294
         6         5        17        18     9        0.000000        0.085732         1    ;  uncertainty k = 1.720582
         6         5        17        18     9      180.000000        3.793549         2    ;  uncertainty k = 0.733111
         6         5        17        18     9        0.000000        0.846488         3    ;  uncertainty k = 0.226537
         6         5        17        18     9      180.000000        0.156293         4    ;  uncertainty k = 0.124163
         6         7         8         9     9        0.000000       -0.131534         1    ;  uncertainty k = 0.277735
         6         7         8         9     9      180.000000        9.358092         2    ;  uncertainty k = 0.519165
         6         7         8         9     9        0.000000       -0.160416         3    ;  uncertainty k = 0.551954
         6         7         8         9     9      180.000000        1.111839         4    ;  uncertainty k = 0.342991
         6         7         8        14     9        0.000000        0.116486         1    ;  uncertainty k = 0.094400
         6         7         8        14     9      180.000000        8.239535         2    ;  uncertainty k = 0.607458
         6         7         8        14     9        0.000000        1.550970         3    ;  uncertainty k = 0.415570
         6         7         8        14     9      180.000000        1.616601         4    ;  uncertainty k = 0.183888
         7         6         5        10     9        0.000000        0.005586         1    ;  uncertainty k = 0.272777
         7         6         5        10     9      180.000000       12.136198         2    ;  uncertainty k = 0.185724
         7         6         5        10     9        0.000000       -1.254249         3    ;  uncertainty k = 0.283697
         7         6         5        10     9      180.000000        0.826779         4    ;  uncertainty k = 0.273570
         7         6         5        17     9        0.000000        0.208771         1    ;  uncertainty k = 0.523809
         7         6         5        17     9      180.000000       10.212259         2    ;  uncertainty k = 0.335978
         7         6         5        17     9        0.000000        0.717377         3    ;  uncertainty k = 0.212909
         7         6         5        17     9      180.000000        1.110885         4    ;  uncertainty k = 0.150774
         7         8         9        10     9        0.000000        0.054166         1    ;  uncertainty k = 0.281493
         7         8         9        10     9      180.000000       12.669584         2    ;  uncertainty k = 0.247745
         7         8         9        10     9        0.000000        0.115697         3    ;  uncertainty k = 0.496134
         7         8         9        10     9      180.000000        1.000232         4    ;  uncertainty k = 0.424363
         7         8         9        15     9        0.000000        0.023895         1    ;  uncertainty k = 0.246285
         7         8         9        15     9      180.000000        7.206426         2    ;  uncertainty k = 0.539180
         7         8         9        15     9        0.000000        1.552606         3    ;  uncertainty k = 0.366575
         7         8         9        15     9      180.000000        1.663195         4    ;  uncertainty k = 0.169427
         8         7         6        12     9        0.000000        0.097690         1    ;  uncertainty k = 0.243678
         8         7         6        12     9      180.000000        8.932156         2    ;  uncertainty k = 0.531522
         8         7         6        12     9        0.000000        1.620592         3    ;  uncertainty k = 0.255755
         8         7         6        12     9      180.000000        1.915905         4    ;  uncertainty k = 0.340626
         8         9        10        11     9        0.000000        0.068134         1    ;  uncertainty k = 0.575866
         8         9        10        11     9      180.000000        9.163399         2    ;  uncertainty k = 0.283847
         8         9        10        11     9        0.000000        0.613457         3    ;  uncertainty k = 0.323400
         8         9        10        11     9      180.000000        1.190281         4    ;  uncertainty k = 0.180763
         9         8         7        13     9        0.000000       -0.196768         1    ;  uncertainty k = 0.158015
         9         8         7        13     9      180.000000        5.626370         2    ;  uncertainty k = 0.560158
         9         8         7        13     9        0.000000        1.291548         3    ;  uncertainty k = 0.282131
         9         8         7        13     9      180.000000        1.399604         4    ;  uncertainty k = 0.196204
         9        10         5        17     9        0.000000        0.285017         1    ;  uncertainty k = 0.228656
         9        10         5        17     9      180.000000        8.230262         2    ;  uncertainty k = 0.358703
         9        10         5        17     9        0.000000       -0.106628         3    ;  uncertainty k = 0.504019
         9        10         5        17     9      180.000000        1.253380         4    ;  uncertainty k = 0.419578
         9        10        11        16     9        0.000000        0.363050         1    ;  uncertainty k = 1.583538
         9        10        11        16     9      180.000000        4.342902         2    ;  uncertainty k = 0.748578
         9        10        11        16     9        0.000000        1.360623         3    ;  uncertainty k = 0.406025
         9        10        11        16     9      180.000000        0.096528         4    ;  uncertainty k = 0.172027
        10         5         6        12     9        0.000000        0.241794         1    ;  uncertainty k = 0.496684
        10         5         6        12     9      180.000000        6.565125         2    ;  uncertainty k = 0.926501
        10         5         6        12     9        0.000000        1.303131         3    ;  uncertainty k = 0.216820
        10         5         6        12     9      180.000000        1.247956         4    ;  uncertainty k = 0.335444
        10         5        17        18     9        0.000000        1.929307         1    ;  uncertainty k = 0.884597
        10         5        17        18     9      180.000000        5.875916         2    ;  uncertainty k = 0.774232
        10         5        17        18     9        0.000000        1.448021         3    ;  uncertainty k = 0.213474
        10         5        17        18     9      180.000000        0.236687         4    ;  uncertainty k = 0.185965
        10         9         8        14     9        0.000000       -0.171302         1    ;  uncertainty k = 0.369364
        10         9         8        14     9      180.000000       12.022890         2    ;  uncertainty k = 0.391538
        10         9         8        14     9        0.000000        1.520255         3    ;  uncertainty k = 0.337541
        10         9         8        14     9      180.000000        1.460305         4    ;  uncertainty k = 0.253374
        10        11         4        17     9        0.000000       -0.109569         1    ;  uncertainty k = 0.239014
        10        11         4        17     9      180.000000       20.967447         2    ;  uncertainty k = 0.292575
        10        11         4        17     9        0.000000       -5.510328         3    ;  uncertainty k = 1.131020
        10        11         4        17     9      180.000000        1.271512         4    ;  uncertainty k = 0.536844
        11         4        17        18     9        0.000000        1.454048         1    ;  uncertainty k = 0.981880
        11         4        17        18     9      180.000000        9.245223         2    ;  uncertainty k = 0.663056
        11         4        17        18     9        0.000000        1.782839         3    ;  uncertainty k = 0.814617
        11         4        17        18     9      180.000000        0.004645         4    ;  uncertainty k = 0.330351
        11        10         5        17     9        0.000000       -0.373026         1    ;  uncertainty k = 0.427007
        11        10         5        17     9      180.000000       12.392595         2    ;  uncertainty k = 1.006242
        11        10         5        17     9        0.000000       -4.722951         3    ;  uncertainty k = 1.596196
        11        10         5        17     9      180.000000        1.539734         4    ;  uncertainty k = 0.990965
        11        10         9        15     9        0.000000        0.361966         1    ;  uncertainty k = 0.976473
        11        10         9        15     9      180.000000        5.544531         2    ;  uncertainty k = 0.438542
        11        10         9        15     9        0.000000        1.118107         3    ;  uncertainty k = 0.316099
        11        10         9        15     9      180.000000        0.749312         4    ;  uncertainty k = 0.247392
        12         6         5        17     9        0.000000        0.340476         1    ;  uncertainty k = 0.540078
        12         6         5        17     9      180.000000        5.586492         2    ;  uncertainty k = 0.434666
        12         6         5        17     9        0.000000        1.134744         3    ;  uncertainty k = 0.354742
        12         6         5        17     9      180.000000        0.800422         4    ;  uncertainty k = 0.391572
        12         6         7        13     9        0.000000        0.068351         1    ;  uncertainty k = 0.345207
        12         6         7        13     9      180.000000        7.718287         2    ;  uncertainty k = 0.343941
        12         6         7        13     9        0.000000       -0.265691         3    ;  uncertainty k = 0.213147
        12         6         7        13     9      180.000000        0.154055         4    ;  uncertainty k = 0.174890
        13         7         8        14     9        0.000000        0.211860         1    ;  uncertainty k = 0.398846
        13         7         8        14     9      180.000000        6.703148         2    ;  uncertainty k = 0.553268
        13         7         8        14     9        0.000000        0.672775         3    ;  uncertainty k = 0.427446
        13         7         8        14     9      180.000000        0.871588         4    ;  uncertainty k = 0.202351
        14         8         9        15     9        0.000000        0.094195         1    ;  uncertainty k = 0.383580
        14         8         9        15     9      180.000000        8.102375         2    ;  uncertainty k = 0.489370
        14         8         9        15     9        0.000000        0.874448         3    ;  uncertainty k = 0.293485
        14         8         9        15     9      180.000000        1.082808         4    ;  uncertainty k = 0.266201
        16        11         4        17     9        0.000000        0.424999         1    ;  uncertainty k = 0.781156
        16        11         4        17     9      180.000000       14.106215         2    ;  uncertainty k = 0.317207
        16        11         4        17     9        0.000000        1.420787         3    ;  uncertainty k = 0.763114
        16        11         4        17     9      180.000000        0.753049         4    ;  uncertainty k = 0.252550

[ dihedrals ] ; impropers
;       ai        aj        ak        al funct           phase               k        pn
         2         1         3         4     4      180.000000       65.358598         2    ;  uncertainty k = 0.071548
         2         3         4         1     4      180.000000       65.358598         2    ;  uncertainty k = 0.071548
         2         4         1         3     4      180.000000       65.358598         2    ;  uncertainty k = 0.071548
         4         2        11        17     4      180.000000        5.992672         2    ;  uncertainty k = 0.604398
         4        11        17         2     4      180.000000        5.992672         2    ;  uncertainty k = 0.604398
         4        17         2        11     4      180.000000        5.992672         2    ;  uncertainty k = 0.604398
         6         5         7        12     4      180.000000        2.522745         2    ;  uncertainty k = 0.275601
         6         7        12         5     4      180.000000        2.522745         2    ;  uncertainty k = 0.275601
         6        12         5         7     4      180.000000        2.522745         2    ;  uncertainty k = 0.275601
         7         6         8        13     4      180.000000        3.526975         2    ;  uncertainty k = 0.111544
         7         8        13         6     4      180.000000        3.526975         2    ;  uncertainty k = 0.111544
         7        13         6         8     4      180.000000        3.526975         2    ;  uncertainty k = 0.111544
         8         7         9        14     4      180.000000        9.432080         2    ;  uncertainty k = 0.055233
         8         9        14         7     4      180.000000        9.432080         2    ;  uncertainty k = 0.055233
         8        14         7         9     4      180.000000        9.432080         2    ;  uncertainty k = 0.055233
         9         8        10        15     4      180.000000        3.717794         2    ;  uncertainty k = 0.172693
         9        10        15         8     4      180.000000        3.717794         2    ;  uncertainty k = 0.172693
         9        15         8        10     4      180.000000        3.717794         2    ;  uncertainty k = 0.172693
        10         5         9        11     4      180.000000        0.292972         2    ;  uncertainty k = 0.655105
        10         9        11         5     4      180.000000        0.292972         2    ;  uncertainty k = 0.655105
        10        11         5         9     4      180.000000        0.292972         2    ;  uncertainty k = 0.655105
        11         4        10        16     4      180.000000        0.225363         2    ;  uncertainty k = 0.503928
        11        10        16         4     4      180.000000        0.225363         2    ;  uncertainty k = 0.503928
        11        16         4        10     4      180.000000        0.225363         2    ;  uncertainty k = 0.503928

[ pairs ]
;       ai        aj funct
         1        11     1
         1        17     1
         2         5     1
         2        10     1
         2        16     1
         2        18     1
         3        11     1
         3        17     1
         4         6     1
         4         9     1
         4        19     1
         4        20     1
         4        21     1
         5         8     1
         5        13     1
         5        15     1
         5        16     1
         5        19     1
         5        20     1
         5        21     1
         6         9     1
         6        11     1
         6        14     1
         6        18     1
         7        10     1
         7        15     1
         7        17     1
         8        11     1
         8        12     1
         9        13     1
         9        16     1
         9        17     1
        10        12     1
        10        14     1
        10        18     1
        11        15     1
        11        18     1
        12        13     1
        12        17     1
        13        14     1
        14        15     1
        16        17     1
