; ITP file created by ByteFF-joint-25, 2025-07-14 11:27:32.107440

[ atomtypes ]
;name           bonded.type        at.num        mass        charge   ptype           sigma         epsilon
 o0bf                                   8      0.0000       0.00000       A     3.04815e-01     6.11364e-01    ;  uncertainty sigma = 0.000053, epsilon = 0.002077
 c1bf                                   6      0.0000       0.00000       A     3.31498e-01     4.12973e-01    ;  uncertainty sigma = 0.000046, epsilon = 0.003056
 o2bf                                   8      0.0000       0.00000       A     3.04815e-01     6.11364e-01    ;  uncertainty sigma = 0.000053, epsilon = 0.002077
 c3bf                                   6      0.0000       0.00000       A     3.31507e-01     4.12481e-01    ;  uncertainty sigma = 0.000035, epsilon = 0.002388
 s4bf                                  16      0.0000       0.00000       A     3.53106e-01     1.18074e+00    ;  uncertainty sigma = 0.000036, epsilon = 0.004462
 c5bf                                   6      0.0000       0.00000       A     3.31554e-01     4.12932e-01    ;  uncertainty sigma = 0.000008, epsilon = 0.001491
 c6bf                                   6      0.0000       0.00000       A     3.31529e-01     4.13410e-01    ;  uncertainty sigma = 0.000003, epsilon = 0.000513
 c7bf                                   6      0.0000       0.00000       A     3.31519e-01     4.13098e-01    ;  uncertainty sigma = 0.000004, epsilon = 0.000857
 c8bf                                   6      0.0000       0.00000       A     3.31519e-01     4.13367e-01    ;  uncertainty sigma = 0.000005, epsilon = 0.000554
 c9bf                                   6      0.0000       0.00000       A     3.31521e-01     4.13269e-01    ;  uncertainty sigma = 0.000008, epsilon = 0.000366
 c10bf                                  6      0.0000       0.00000       A     3.31508e-01     4.13102e-01    ;  uncertainty sigma = 0.000021, epsilon = 0.000783
 c11bf                                  6      0.0000       0.00000       A     3.31512e-01     4.11916e-01    ;  uncertainty sigma = 0.000015, epsilon = 0.000933
 h12bf                                  1      0.0000       0.00000       A     2.62553e-01     6.72154e-02    ;  uncertainty sigma = 0.000020, epsilon = 0.000420
 h13bf                                  1      0.0000       0.00000       A     2.62556e-01     6.70548e-02    ;  uncertainty sigma = 0.000007, epsilon = 0.000600
 h14bf                                  1      0.0000       0.00000       A     2.62566e-01     6.69968e-02    ;  uncertainty sigma = 0.000006, epsilon = 0.000432
 cl15bf                                17      0.0000       0.00000       A     3.46719e-01     1.10725e+00    ;  uncertainty sigma = 0.000036, epsilon = 0.006387
 c16bf                                  6      0.0000       0.00000       A     3.39774e-01     4.50919e-01    ;  uncertainty sigma = 0.000004, epsilon = 0.000375
 h17bf                                  1      0.0000       0.00000       A     2.60031e-01     8.66851e-02    ;  uncertainty sigma = 0.000008, epsilon = 0.000513
 h18bf                                  1      0.0000       0.00000       A     2.60031e-01     8.66851e-02    ;  uncertainty sigma = 0.000008, epsilon = 0.000513
 h19bf                                  1      0.0000       0.00000       A     2.60031e-01     8.66851e-02    ;  uncertainty sigma = 0.000008, epsilon = 0.000513

[ moleculetype ]
;name             nrexcl
 MOL                   3

[ atoms ]
;       nr            type      resi   res      atom      cgnr      charge          mass ; qtot
         1            o0bf         1   UNL        o0         1    -0.81112       15.9990 ; qtot   -0.811
         2            c1bf         1   UNL        c1         2     0.92415       12.0110 ; qtot    0.113
         3            o2bf         1   UNL        o2         3    -0.81112       15.9990 ; qtot   -0.698
         4            c3bf         1   UNL        c3         4    -0.05899       12.0110 ; qtot   -0.757
         5            s4bf         1   UNL        s4         5    -0.08068       32.0670 ; qtot   -0.838
         6            c5bf         1   UNL        c5         6    -0.06333       12.0110 ; qtot   -0.901
         7            c6bf         1   UNL        c6         7    -0.11324       12.0110 ; qtot   -1.014
         8            c7bf         1   UNL        c7         8    -0.06189       12.0110 ; qtot   -1.076
         9            c8bf         1   UNL        c8         9    -0.13493       12.0110 ; qtot   -1.211
        10            c9bf         1   UNL        c9        10    -0.09654       12.0110 ; qtot   -1.308
        11           c10bf         1   UNL       c10        11    -0.07166       12.0110 ; qtot   -1.379
        12           c11bf         1   UNL       c11        12    -0.01536       12.0110 ; qtot   -1.395
        13           h12bf         1   UNL       h12        13     0.13950        1.0080 ; qtot   -1.255
        14           h13bf         1   UNL       h13        14     0.13479        1.0080 ; qtot   -1.120
        15           h14bf         1   UNL       h14        15     0.14481        1.0080 ; qtot   -0.976
        16          cl15bf         1   UNL      cl15        16    -0.11259       35.4530 ; qtot   -1.088
        17           c16bf         1   UNL       c16        17    -0.04814       12.0110 ; qtot   -1.136
        18           h17bf         1   UNL       h17        18     0.04545        1.0080 ; qtot   -1.091
        19           h18bf         1   UNL       h18        19     0.04545        1.0080 ; qtot   -1.045
        20           h19bf         1   UNL       h19        20     0.04544        1.0080 ; qtot   -1.000

[ bonds ]
;       ai        aj funct               r               k
         1         2     1        0.125889   549806.610156    ;  uncertainty r = 0.000209, k = 13.961843
         2         3     1        0.125889   549806.610156    ;  uncertainty r = 0.000209, k = 13.961843
         2         4     1        0.154491   155653.099561    ;  uncertainty r = 0.000284, k = 100.178851
         4         5     1        0.176161   162487.110937    ;  uncertainty r = 0.000035, k = 31.659937
         4        12     1        0.137178   382718.733594    ;  uncertainty r = 0.000229, k = 25.915407
         5         6     1        0.175218   178301.297900    ;  uncertainty r = 0.000050, k = 17.797144
         6         7     1        0.140158   358152.723877    ;  uncertainty r = 0.000021, k = 9.163850
         6        11     1        0.141882   357224.884082    ;  uncertainty r = 0.000134, k = 12.801299
         7         8     1        0.139422   353746.423340    ;  uncertainty r = 0.000046, k = 11.979338
         7        13     1        0.108843   336865.857764    ;  uncertainty r = 0.000016, k = 1.013168
         8         9     1        0.141654   328431.078223    ;  uncertainty r = 0.000035, k = 3.701153
         8        17     1        0.151160   252540.279639    ;  uncertainty r = 0.000011, k = 6.114200
         9        10     1        0.138809   370973.016748    ;  uncertainty r = 0.000071, k = 1.722024
         9        14     1        0.108831   335058.162402    ;  uncertainty r = 0.000018, k = 1.034992
        10        11     1        0.140669   350875.515967    ;  uncertainty r = 0.000103, k = 10.572587
        10        15     1        0.108698   335304.467822    ;  uncertainty r = 0.000022, k = 1.765742
        11        12     1        0.144273   250838.333447    ;  uncertainty r = 0.000131, k = 20.331747
        12        16     1        0.174812   194286.800562    ;  uncertainty r = 0.000253, k = 16.836524
        17        18     1        0.109526   308569.948926    ;  uncertainty r = 0.000011, k = 1.545734
        17        19     1        0.109526   308569.948926    ;  uncertainty r = 0.000011, k = 1.545734
        17        20     1        0.109526   308569.948926    ;  uncertainty r = 0.000011, k = 1.545734

[ angles ]
;       ai        aj        ak funct           theta             cth
         1         2         3     1      131.821320      792.551148    ;  uncertainty theta = 0.007337, k = 0.233786
         1         2         4     1      114.288467      355.218478    ;  uncertainty theta = 0.011696, k = 0.200249
         2         4         5     1      115.951126      318.745964    ;  uncertainty theta = 0.012116, k = 0.486024
         2         4        12     1      127.563393      302.940536    ;  uncertainty theta = 0.012043, k = 0.226571
         3         2         4     1      114.288467      355.218478    ;  uncertainty theta = 0.011696, k = 0.200249
         4         5         6     1       91.414413     1132.133095    ;  uncertainty theta = 0.006418, k = 0.119149
         4        12        11     1      116.795326      543.288403    ;  uncertainty theta = 0.008104, k = 0.268710
         4        12        16     1      122.434158      363.971929    ;  uncertainty theta = 0.006393, k = 0.379592
         5         4        12     1      113.322044      481.723157    ;  uncertainty theta = 0.008504, k = 0.192466
         5         6         7     1      127.283768      382.364840    ;  uncertainty theta = 0.005118, k = 0.187106
         5         6        11     1      110.717834      494.551149    ;  uncertainty theta = 0.003866, k = 0.186798
         6         7         8     1      119.282532      522.965716    ;  uncertainty theta = 0.001909, k = 0.154008
         6         7        13     1      122.076904      294.110793    ;  uncertainty theta = 0.001998, k = 0.093088
         6        11        10     1      117.434608      407.792076    ;  uncertainty theta = 0.001893, k = 0.251074
         6        11        12     1      111.267578      593.202663    ;  uncertainty theta = 0.006213, k = 0.271747
         7         6        11     1      119.971031      394.824971    ;  uncertainty theta = 0.002706, k = 0.022117
         7         8         9     1      120.404030      475.822329    ;  uncertainty theta = 0.001561, k = 0.085080
         7         8        17     1      120.287071      418.668140    ;  uncertainty theta = 0.002376, k = 0.072466
         8         7        13     1      119.780014      277.058229    ;  uncertainty theta = 0.001338, k = 0.122825
         8         9        10     1      122.806763      540.379152    ;  uncertainty theta = 0.001587, k = 0.098715
         8         9        14     1      118.806374      284.811614    ;  uncertainty theta = 0.001338, k = 0.080759
         8        17        18     1      110.004372      397.918791    ;  uncertainty theta = 0.001006, k = 0.014162
         8        17        19     1      110.004372      397.918791    ;  uncertainty theta = 0.001006, k = 0.014162
         8        17        20     1      110.004372      397.918791    ;  uncertainty theta = 0.001006, k = 0.014162
         9         8        17     1      120.204636      433.438389    ;  uncertainty theta = 0.001180, k = 0.038870
         9        10        11     1      119.410866      545.175213    ;  uncertainty theta = 0.003311, k = 0.157451
         9        10        15     1      120.850418      282.440621    ;  uncertainty theta = 0.002840, k = 0.019664
        10         9        14     1      119.541283      293.706955    ;  uncertainty theta = 0.001879, k = 0.061109
        10        11        12     1      128.116302      368.621853    ;  uncertainty theta = 0.004791, k = 0.289665
        11        10        15     1      120.531738      276.486772    ;  uncertainty theta = 0.002782, k = 0.089988
        11        12        16     1      119.553894      382.494569    ;  uncertainty theta = 0.009171, k = 0.274924
        18        17        19     1      106.741577      316.428088    ;  uncertainty theta = 0.000930, k = 0.025384
        18        17        20     1      106.741577      316.428088    ;  uncertainty theta = 0.000930, k = 0.025384
        19        17        20     1      106.741577      316.428088    ;  uncertainty theta = 0.000930, k = 0.025384

[ dihedrals ] ; propers for gromacs 4.5 or higher, use funct 9
;       ai        aj        ak        al funct           phase               k        pn
         1         2         4         5     9        0.000000        0.369793         1    ;  uncertainty k = 1.129892
         1         2         4         5     9      180.000000        3.940895         2    ;  uncertainty k = 0.151008
         1         2         4         5     9        0.000000        0.012949         3    ;  uncertainty k = 0.437766
         1         2         4         5     9      180.000000        0.241194         4    ;  uncertainty k = 0.093072
         1         2         4        12     9        0.000000       -0.232618         1    ;  uncertainty k = 1.161198
         1         2         4        12     9      180.000000        1.657679         2    ;  uncertainty k = 0.646070
         1         2         4        12     9        0.000000        0.055818         3    ;  uncertainty k = 0.414590
         1         2         4        12     9      180.000000        0.228418         4    ;  uncertainty k = 0.100756
         2         4         5         6     9        0.000000       -0.475868         1    ;  uncertainty k = 1.902148
         2         4         5         6     9      180.000000        7.240739         2    ;  uncertainty k = 0.827363
         2         4         5         6     9        0.000000        0.637794         3    ;  uncertainty k = 0.357123
         2         4         5         6     9      180.000000        0.522666         4    ;  uncertainty k = 0.312037
         2         4        12        11     9        0.000000        0.551929         1    ;  uncertainty k = 0.858214
         2         4        12        11     9      180.000000       10.367928         2    ;  uncertainty k = 0.664485
         2         4        12        11     9        0.000000        2.119778         3    ;  uncertainty k = 0.246432
         2         4        12        11     9      180.000000        0.941065         4    ;  uncertainty k = 0.188604
         2         4        12        16     9        0.000000       -0.117618         1    ;  uncertainty k = 0.654528
         2         4        12        16     9      180.000000       10.758802         2    ;  uncertainty k = 0.737073
         2         4        12        16     9        0.000000        1.916819         3    ;  uncertainty k = 0.167566
         2         4        12        16     9      180.000000        0.735320         4    ;  uncertainty k = 0.319951
         3         2         4         5     9        0.000000        0.369793         1    ;  uncertainty k = 1.129892
         3         2         4         5     9      180.000000        3.940895         2    ;  uncertainty k = 0.151008
         3         2         4         5     9        0.000000        0.012949         3    ;  uncertainty k = 0.437766
         3         2         4         5     9      180.000000        0.241194         4    ;  uncertainty k = 0.093072
         3         2         4        12     9        0.000000       -0.232618         1    ;  uncertainty k = 1.161198
         3         2         4        12     9      180.000000        1.657679         2    ;  uncertainty k = 0.646070
         3         2         4        12     9        0.000000        0.055818         3    ;  uncertainty k = 0.414590
         3         2         4        12     9      180.000000        0.228418         4    ;  uncertainty k = 0.100756
         4         5         6         7     9        0.000000       -0.425000         1    ;  uncertainty k = 1.763380
         4         5         6         7     9      180.000000        7.254531         2    ;  uncertainty k = 1.050568
         4         5         6         7     9        0.000000        0.679249         3    ;  uncertainty k = 0.590166
         4         5         6         7     9      180.000000        0.386632         4    ;  uncertainty k = 0.213145
         4         5         6        11     9        0.000000       -0.546560         1    ;  uncertainty k = 1.248211
         4         5         6        11     9      180.000000       14.807900         2    ;  uncertainty k = 0.885949
         4         5         6        11     9        0.000000       -5.716956         3    ;  uncertainty k = 0.687754
         4         5         6        11     9      180.000000        0.614529         4    ;  uncertainty k = 0.654283
         4        12        11         6     9        0.000000       -0.734641         1    ;  uncertainty k = 0.858070
         4        12        11         6     9      180.000000       10.046108         2    ;  uncertainty k = 0.723801
         4        12        11         6     9        0.000000       -4.026038         3    ;  uncertainty k = 0.791400
         4        12        11         6     9      180.000000        1.420378         4    ;  uncertainty k = 0.578248
         4        12        11        10     9        0.000000       -0.523890         1    ;  uncertainty k = 1.199475
         4        12        11        10     9      180.000000        5.333566         2    ;  uncertainty k = 0.905795
         4        12        11        10     9        0.000000        0.908116         3    ;  uncertainty k = 0.560555
         4        12        11        10     9      180.000000        0.570077         4    ;  uncertainty k = 0.239304
         5         4        12        11     9        0.000000       -0.236387         1    ;  uncertainty k = 0.453486
         5         4        12        11     9      180.000000       17.267926         2    ;  uncertainty k = 0.527027
         5         4        12        11     9        0.000000       -0.622030         3    ;  uncertainty k = 0.978539
         5         4        12        11     9      180.000000        0.920062         4    ;  uncertainty k = 0.522371
         5         4        12        16     9        0.000000        0.068488         1    ;  uncertainty k = 0.585475
         5         4        12        16     9      180.000000       16.501138         2    ;  uncertainty k = 0.463703
         5         4        12        16     9        0.000000        2.080105         3    ;  uncertainty k = 0.563412
         5         4        12        16     9      180.000000        0.852412         4    ;  uncertainty k = 0.290763
         5         6         7         8     9        0.000000        0.204944         1    ;  uncertainty k = 0.284094
         5         6         7         8     9      180.000000        8.520366         2    ;  uncertainty k = 0.810808
         5         6         7         8     9        0.000000        1.081440         3    ;  uncertainty k = 0.380090
         5         6         7         8     9      180.000000        1.298694         4    ;  uncertainty k = 0.387809
         5         6         7        13     9        0.000000       -0.102076         1    ;  uncertainty k = 0.635625
         5         6         7        13     9      180.000000        5.261307         2    ;  uncertainty k = 0.659497
         5         6         7        13     9        0.000000        0.879245         3    ;  uncertainty k = 0.291760
         5         6         7        13     9      180.000000        0.675982         4    ;  uncertainty k = 0.267340
         5         6        11        10     9        0.000000        0.188733         1    ;  uncertainty k = 0.744009
         5         6        11        10     9      180.000000        7.948025         2    ;  uncertainty k = 0.429738
         5         6        11        10     9        0.000000        0.527658         3    ;  uncertainty k = 0.343656
         5         6        11        10     9      180.000000        1.165947         4    ;  uncertainty k = 0.272179
         5         6        11        12     9        0.000000       -0.200688         1    ;  uncertainty k = 0.615538
         5         6        11        12     9      180.000000       11.217599         2    ;  uncertainty k = 0.869350
         5         6        11        12     9        0.000000       -1.385479         3    ;  uncertainty k = 0.737098
         5         6        11        12     9      180.000000        1.207891         4    ;  uncertainty k = 0.613679
         6         5         4        12     9        0.000000       -0.890339         1    ;  uncertainty k = 0.645683
         6         5         4        12     9      180.000000       13.595488         2    ;  uncertainty k = 0.451316
         6         5         4        12     9        0.000000       -4.937697         3    ;  uncertainty k = 2.023135
         6         5         4        12     9      180.000000        1.149643         4    ;  uncertainty k = 0.117915
         6         7         8         9     9        0.000000       -0.027117         1    ;  uncertainty k = 0.279037
         6         7         8         9     9      180.000000       13.953923         2    ;  uncertainty k = 0.374054
         6         7         8         9     9        0.000000        0.050494         3    ;  uncertainty k = 0.445696
         6         7         8         9     9      180.000000        0.867219         4    ;  uncertainty k = 0.361733
         6         7         8        17     9        0.000000       -0.116889         1    ;  uncertainty k = 0.235420
         6         7         8        17     9      180.000000       12.406729         2    ;  uncertainty k = 0.224487
         6         7         8        17     9        0.000000        1.208650         3    ;  uncertainty k = 0.299575
         6         7         8        17     9      180.000000        1.520952         4    ;  uncertainty k = 0.139003
         6        11        10         9     9        0.000000        0.059936         1    ;  uncertainty k = 0.505200
         6        11        10         9     9      180.000000       13.595039         2    ;  uncertainty k = 0.270039
         6        11        10         9     9        0.000000       -1.451423         3    ;  uncertainty k = 0.426228
         6        11        10         9     9      180.000000        0.590546         4    ;  uncertainty k = 0.233369
         6        11        10        15     9        0.000000        0.014287         1    ;  uncertainty k = 0.175448
         6        11        10        15     9      180.000000        7.082077         2    ;  uncertainty k = 0.475242
         6        11        10        15     9        0.000000        1.198752         3    ;  uncertainty k = 0.351753
         6        11        10        15     9      180.000000        1.279303         4    ;  uncertainty k = 0.156353
         6        11        12        16     9        0.000000        0.445324         1    ;  uncertainty k = 0.450445
         6        11        12        16     9      180.000000       10.216500         2    ;  uncertainty k = 0.874220
         6        11        12        16     9        0.000000        1.599163         3    ;  uncertainty k = 0.208893
         6        11        12        16     9      180.000000        0.262124         4    ;  uncertainty k = 0.359106
         7         6        11        10     9        0.000000       -0.318781         1    ;  uncertainty k = 0.518816
         7         6        11        10     9      180.000000        8.537360         2    ;  uncertainty k = 0.666018
         7         6        11        10     9        0.000000        0.119487         3    ;  uncertainty k = 0.214523
         7         6        11        10     9      180.000000        1.126655         4    ;  uncertainty k = 0.287004
         7         6        11        12     9        0.000000       -0.021591         1    ;  uncertainty k = 0.343968
         7         6        11        12     9      180.000000        8.314805         2    ;  uncertainty k = 0.702931
         7         6        11        12     9        0.000000        0.358136         3    ;  uncertainty k = 0.108331
         7         6        11        12     9      180.000000        1.263290         4    ;  uncertainty k = 0.291824
         7         8         9        10     9        0.000000       -0.114686         1    ;  uncertainty k = 0.161031
         7         8         9        10     9      180.000000       10.280606         2    ;  uncertainty k = 0.518299
         7         8         9        10     9        0.000000       -0.247068         3    ;  uncertainty k = 0.356041
         7         8         9        10     9      180.000000        0.931797         4    ;  uncertainty k = 0.335652
         7         8         9        14     9        0.000000        0.106005         1    ;  uncertainty k = 0.101356
         7         8         9        14     9      180.000000        6.771237         2    ;  uncertainty k = 0.492720
         7         8         9        14     9        0.000000        1.441125         3    ;  uncertainty k = 0.248639
         7         8         9        14     9      180.000000        1.547188         4    ;  uncertainty k = 0.137503
         7         8        17        18     9        0.000000        0.227141         1    ;  uncertainty k = 0.110815
         7         8        17        18     9      180.000000        1.159529         2    ;  uncertainty k = 0.066426
         7         8        17        18     9        0.000000        0.248215         3    ;  uncertainty k = 0.062333
         7         8        17        18     9      180.000000        0.168344         4    ;  uncertainty k = 0.009302
         7         8        17        19     9        0.000000        0.227141         1    ;  uncertainty k = 0.110815
         7         8        17        19     9      180.000000        1.159529         2    ;  uncertainty k = 0.066426
         7         8        17        19     9        0.000000        0.248215         3    ;  uncertainty k = 0.062333
         7         8        17        19     9      180.000000        0.168344         4    ;  uncertainty k = 0.009302
         7         8        17        20     9        0.000000        0.227141         1    ;  uncertainty k = 0.110815
         7         8        17        20     9      180.000000        1.159529         2    ;  uncertainty k = 0.066426
         7         8        17        20     9        0.000000        0.248215         3    ;  uncertainty k = 0.062333
         7         8        17        20     9      180.000000        0.168344         4    ;  uncertainty k = 0.009302
         8         7         6        11     9        0.000000       -0.234382         1    ;  uncertainty k = 0.405817
         8         7         6        11     9      180.000000       11.464463         2    ;  uncertainty k = 0.300338
         8         7         6        11     9        0.000000       -0.850543         3    ;  uncertainty k = 0.257849
         8         7         6        11     9      180.000000        0.992590         4    ;  uncertainty k = 0.194789
         8         9        10        11     9        0.000000       -0.115598         1    ;  uncertainty k = 0.316660
         8         9        10        11     9      180.000000       15.864722         2    ;  uncertainty k = 0.238199
         8         9        10        11     9        0.000000       -0.460599         3    ;  uncertainty k = 0.654232
         8         9        10        11     9      180.000000        0.702538         4    ;  uncertainty k = 0.405501
         8         9        10        15     9        0.000000        0.125893         1    ;  uncertainty k = 0.248346
         8         9        10        15     9      180.000000        8.470179         2    ;  uncertainty k = 0.541653
         8         9        10        15     9        0.000000        1.467920         3    ;  uncertainty k = 0.280861
         8         9        10        15     9      180.000000        1.951181         4    ;  uncertainty k = 0.321017
         9         8         7        13     9        0.000000        0.123999         1    ;  uncertainty k = 0.249105
         9         8         7        13     9      180.000000        7.918510         2    ;  uncertainty k = 0.298066
         9         8         7        13     9        0.000000        1.678257         3    ;  uncertainty k = 0.315999
         9         8         7        13     9      180.000000        1.693268         4    ;  uncertainty k = 0.123201
         9         8        17        18     9        0.000000       -0.143834         1    ;  uncertainty k = 0.087806
         9         8        17        18     9      180.000000        1.163782         2    ;  uncertainty k = 0.108789
         9         8        17        18     9        0.000000        0.424146         3    ;  uncertainty k = 0.064042
         9         8        17        18     9      180.000000        0.190796         4    ;  uncertainty k = 0.037279
         9         8        17        19     9        0.000000       -0.143834         1    ;  uncertainty k = 0.087806
         9         8        17        19     9      180.000000        1.163782         2    ;  uncertainty k = 0.108789
         9         8        17        19     9        0.000000        0.424146         3    ;  uncertainty k = 0.064042
         9         8        17        19     9      180.000000        0.190796         4    ;  uncertainty k = 0.037279
         9         8        17        20     9        0.000000       -0.143834         1    ;  uncertainty k = 0.087806
         9         8        17        20     9      180.000000        1.163782         2    ;  uncertainty k = 0.108789
         9         8        17        20     9        0.000000        0.424146         3    ;  uncertainty k = 0.064042
         9         8        17        20     9      180.000000        0.190796         4    ;  uncertainty k = 0.037279
         9        10        11        12     9        0.000000        0.330151         1    ;  uncertainty k = 0.514741
         9        10        11        12     9      180.000000        9.321366         2    ;  uncertainty k = 0.301752
         9        10        11        12     9        0.000000        0.582907         3    ;  uncertainty k = 0.385331
         9        10        11        12     9      180.000000        1.318029         4    ;  uncertainty k = 0.098248
        10         9         8        17     9        0.000000        0.279573         1    ;  uncertainty k = 0.216153
        10         9         8        17     9      180.000000        8.240729         2    ;  uncertainty k = 0.388944
        10         9         8        17     9        0.000000        1.395905         3    ;  uncertainty k = 0.198795
        10         9         8        17     9      180.000000        1.825709         4    ;  uncertainty k = 0.140722
        10        11        12        16     9        0.000000        0.481433         1    ;  uncertainty k = 0.765024
        10        11        12        16     9      180.000000        5.859920         2    ;  uncertainty k = 0.838178
        10        11        12        16     9        0.000000        1.009644         3    ;  uncertainty k = 0.274529
        10        11        12        16     9      180.000000        0.329429         4    ;  uncertainty k = 0.249238
        11         6         7        13     9        0.000000        0.122895         1    ;  uncertainty k = 0.415241
        11         6         7        13     9      180.000000        6.472729         2    ;  uncertainty k = 0.865262
        11         6         7        13     9        0.000000        1.464288         3    ;  uncertainty k = 0.328864
        11         6         7        13     9      180.000000        1.358190         4    ;  uncertainty k = 0.279701
        11        10         9        14     9        0.000000        0.154135         1    ;  uncertainty k = 0.290035
        11        10         9        14     9      180.000000       10.686237         2    ;  uncertainty k = 0.331852
        11        10         9        14     9        0.000000        1.507860         3    ;  uncertainty k = 0.237605
        11        10         9        14     9      180.000000        1.758321         4    ;  uncertainty k = 0.243405
        12        11        10        15     9        0.000000        0.285350         1    ;  uncertainty k = 0.305576
        12        11        10        15     9      180.000000        6.053617         2    ;  uncertainty k = 0.568009
        12        11        10        15     9        0.000000        1.174522         3    ;  uncertainty k = 0.302556
        12        11        10        15     9      180.000000        0.926347         4    ;  uncertainty k = 0.225172
        13         7         8        17     9        0.000000       -0.376025         1    ;  uncertainty k = 0.480726
        13         7         8        17     9      180.000000        8.699628         2    ;  uncertainty k = 0.219504
        13         7         8        17     9        0.000000        0.536330         3    ;  uncertainty k = 0.280101
        13         7         8        17     9      180.000000        0.912840         4    ;  uncertainty k = 0.244552
        14         9         8        17     9        0.000000       -0.352551         1    ;  uncertainty k = 0.403820
        14         9         8        17     9      180.000000        8.199856         2    ;  uncertainty k = 0.188238
        14         9         8        17     9        0.000000        0.468806         3    ;  uncertainty k = 0.227199
        14         9         8        17     9      180.000000        0.838120         4    ;  uncertainty k = 0.211430
        14         9        10        15     9        0.000000        0.009298         1    ;  uncertainty k = 0.218296
        14         9        10        15     9      180.000000        8.175878         2    ;  uncertainty k = 0.366386
        14         9        10        15     9        0.000000       -0.279058         3    ;  uncertainty k = 0.220432
        14         9        10        15     9      180.000000        0.216451         4    ;  uncertainty k = 0.201272

[ dihedrals ] ; impropers
;       ai        aj        ak        al funct           phase               k        pn
         2         1         3         4     4      180.000000       66.415919         2    ;  uncertainty k = 0.030810
         2         3         4         1     4      180.000000       66.415919         2    ;  uncertainty k = 0.030810
         2         4         1         3     4      180.000000       66.415919         2    ;  uncertainty k = 0.030810
         4         2         5        12     4      180.000000        5.858738         2    ;  uncertainty k = 0.515915
         4         5        12         2     4      180.000000        5.858738         2    ;  uncertainty k = 0.515915
         4        12         2         5     4      180.000000        5.858738         2    ;  uncertainty k = 0.515915
         6         5         7        11     4      180.000000        1.308539         2    ;  uncertainty k = 0.850379
         6         7        11         5     4      180.000000        1.308539         2    ;  uncertainty k = 0.850379
         6        11         5         7     4      180.000000        1.308539         2    ;  uncertainty k = 0.850379
         7         6         8        13     4      180.000000        3.377604         2    ;  uncertainty k = 0.262831
         7         8        13         6     4      180.000000        3.377604         2    ;  uncertainty k = 0.262831
         7        13         6         8     4      180.000000        3.377604         2    ;  uncertainty k = 0.262831
         8         7         9        17     4      180.000000       15.486544         2    ;  uncertainty k = 0.052376
         8         9        17         7     4      180.000000       15.486544         2    ;  uncertainty k = 0.052376
         8        17         7         9     4      180.000000       15.486544         2    ;  uncertainty k = 0.052376
         9         8        10        14     4      180.000000        3.744379         2    ;  uncertainty k = 0.070896
         9        10        14         8     4      180.000000        3.744379         2    ;  uncertainty k = 0.070896
         9        14         8        10     4      180.000000        3.744379         2    ;  uncertainty k = 0.070896
        10         9        11        15     4      180.000000        3.974214         2    ;  uncertainty k = 0.141127
        10        11        15         9     4      180.000000        3.974214         2    ;  uncertainty k = 0.141127
        10        15         9        11     4      180.000000        3.974214         2    ;  uncertainty k = 0.141127
        11         6        10        12     4      180.000000        1.190667         2    ;  uncertainty k = 0.682640
        11        10        12         6     4      180.000000        1.190667         2    ;  uncertainty k = 0.682640
        11        12         6        10     4      180.000000        1.190667         2    ;  uncertainty k = 0.682640
        12         4        11        16     4      180.000000        5.780587         2    ;  uncertainty k = 0.330121
        12        11        16         4     4      180.000000        5.780587         2    ;  uncertainty k = 0.330121
        12        16         4        11     4      180.000000        5.780587         2    ;  uncertainty k = 0.330121

[ pairs ]
;       ai        aj funct
         1         5     1
         1        12     1
         2         6     1
         2        11     1
         2        16     1
         3         5     1
         3        12     1
         4         7     1
         4        10     1
         5         8     1
         5        10     1
         5        13     1
         5        16     1
         6         9     1
         6        15     1
         6        16     1
         6        17     1
         7        10     1
         7        12     1
         7        14     1
         7        18     1
         7        19     1
         7        20     1
         8        11     1
         8        15     1
         9        12     1
         9        13     1
         9        18     1
         9        19     1
         9        20     1
        10        16     1
        10        17     1
        11        13     1
        11        14     1
        12        15     1
        13        17     1
        14        15     1
        14        17     1
