; ITP file created by ByteFF-joint-25, 2025-07-14 11:27:31.467248

[ atomtypes ]
;name           bonded.type        at.num        mass        charge   ptype           sigma         epsilon
 o0bf                                   8      0.0000       0.00000       A     3.04833e-01     6.12014e-01    ;  uncertainty sigma = 0.000025, epsilon = 0.001440
 c1bf                                   6      0.0000       0.00000       A     3.31479e-01     4.13613e-01    ;  uncertainty sigma = 0.000023, epsilon = 0.002230
 o2bf                                   8      0.0000       0.00000       A     3.04833e-01     6.12014e-01    ;  uncertainty sigma = 0.000025, epsilon = 0.001440
 c3bf                                   6      0.0000       0.00000       A     3.31507e-01     4.11744e-01    ;  uncertainty sigma = 0.000032, epsilon = 0.003389
 c4bf                                   6      0.0000       0.00000       A     3.31516e-01     4.13777e-01    ;  uncertainty sigma = 0.000016, epsilon = 0.001641
 c5bf                                   6      0.0000       0.00000       A     3.31548e-01     4.13454e-01    ;  uncertainty sigma = 0.000010, epsilon = 0.000651
 c6bf                                   6      0.0000       0.00000       A     3.31516e-01     4.13269e-01    ;  uncertainty sigma = 0.000004, epsilon = 0.000629
 c7bf                                   6      0.0000       0.00000       A     3.31523e-01     4.13309e-01    ;  uncertainty sigma = 0.000004, epsilon = 0.000633
 c8bf                                   6      0.0000       0.00000       A     3.31531e-01     4.13152e-01    ;  uncertainty sigma = 0.000007, epsilon = 0.000570
 c9bf                                   6      0.0000       0.00000       A     3.31530e-01     4.13054e-01    ;  uncertainty sigma = 0.000013, epsilon = 0.000765
 c10bf                                  6      0.0000       0.00000       A     3.31511e-01     4.13632e-01    ;  uncertainty sigma = 0.000019, epsilon = 0.001377
 h11bf                                  1      0.0000       0.00000       A     2.62557e-01     6.70576e-02    ;  uncertainty sigma = 0.000008, epsilon = 0.000418
 h12bf                                  1      0.0000       0.00000       A     2.62571e-01     6.69648e-02    ;  uncertainty sigma = 0.000011, epsilon = 0.000491
 h13bf                                  1      0.0000       0.00000       A     2.62566e-01     6.69764e-02    ;  uncertainty sigma = 0.000010, epsilon = 0.000332
 o14bf                                  8      0.0000       0.00000       A     3.15634e-01     3.02843e-01    ;  uncertainty sigma = 0.000037, epsilon = 0.001806
 c15bf                                  6      0.0000       0.00000       A     3.39766e-01     4.51263e-01    ;  uncertainty sigma = 0.000006, epsilon = 0.001151
 h16bf                                  1      0.0000       0.00000       A     2.60033e-01     8.68243e-02    ;  uncertainty sigma = 0.000007, epsilon = 0.000389
 h17bf                                  1      0.0000       0.00000       A     2.60033e-01     8.68243e-02    ;  uncertainty sigma = 0.000007, epsilon = 0.000389
 h18bf                                  1      0.0000       0.00000       A     2.60033e-01     8.68243e-02    ;  uncertainty sigma = 0.000007, epsilon = 0.000389
 c19bf                                  6      0.0000       0.00000       A     3.39776e-01     4.50951e-01    ;  uncertainty sigma = 0.000004, epsilon = 0.000751
 h20bf                                  1      0.0000       0.00000       A     2.60024e-01     8.67312e-02    ;  uncertainty sigma = 0.000010, epsilon = 0.000504
 h21bf                                  1      0.0000       0.00000       A     2.60024e-01     8.67312e-02    ;  uncertainty sigma = 0.000010, epsilon = 0.000504
 h22bf                                  1      0.0000       0.00000       A     2.60024e-01     8.67312e-02    ;  uncertainty sigma = 0.000010, epsilon = 0.000504

[ moleculetype ]
;name             nrexcl
 MOL                   3

[ atoms ]
;       nr            type      resi   res      atom      cgnr      charge          mass ; qtot
         1            o0bf         1   UNL        o0         1    -0.81624       15.9990 ; qtot   -0.816
         2            c1bf         1   UNL        c1         2     0.92878       12.0110 ; qtot    0.113
         3            o2bf         1   UNL        o2         3    -0.81624       15.9990 ; qtot   -0.704
         4            c3bf         1   UNL        c3         4     0.00087       12.0110 ; qtot   -0.703
         5            c4bf         1   UNL        c4         5     0.04299       12.0110 ; qtot   -0.660
         6            c5bf         1   UNL        c5         6    -0.08453       12.0110 ; qtot   -0.744
         7            c6bf         1   UNL        c6         7    -0.11253       12.0110 ; qtot   -0.857
         8            c7bf         1   UNL        c7         8    -0.14894       12.0110 ; qtot   -1.006
         9            c8bf         1   UNL        c8         9    -0.10135       12.0110 ; qtot   -1.107
        10            c9bf         1   UNL        c9        10    -0.10144       12.0110 ; qtot   -1.209
        11           c10bf         1   UNL       c10        11    -0.19295       12.0110 ; qtot   -1.402
        12           h11bf         1   UNL       h11        12     0.13213        1.0080 ; qtot   -1.269
        13           h12bf         1   UNL       h12        13     0.13084        1.0080 ; qtot   -1.139
        14           h13bf         1   UNL       h13        14     0.13677        1.0080 ; qtot   -1.002
        15           o14bf         1   UNL       o14        15    -0.18830       15.9990 ; qtot   -1.190
        16           c15bf         1   UNL       c15        16    -0.01848       12.0110 ; qtot   -1.209
        17           h16bf         1   UNL       h16        17     0.03596        1.0080 ; qtot   -1.173
        18           h17bf         1   UNL       h17        18     0.03596        1.0080 ; qtot   -1.137
        19           h18bf         1   UNL       h18        19     0.03596        1.0080 ; qtot   -1.101
        20           c19bf         1   UNL       c19        20    -0.03940       12.0110 ; qtot   -1.140
        21           h20bf         1   UNL       h20        21     0.04671        1.0080 ; qtot   -1.093
        22           h21bf         1   UNL       h21        22     0.04671        1.0080 ; qtot   -1.047
        23           h22bf         1   UNL       h22        23     0.04672        1.0080 ; qtot   -1.000

[ bonds ]
;       ai        aj funct               r               k
         1         2     1        0.125941   529360.476758    ;  uncertainty r = 0.000038, k = 14.976117
         2         3     1        0.125941   529360.476758    ;  uncertainty r = 0.000038, k = 14.976117
         2         4     1        0.153612   119254.061621    ;  uncertainty r = 0.000143, k = 182.949734
         4        11     1        0.137504   387055.062451    ;  uncertainty r = 0.000122, k = 31.290484
         4        15     1        0.139696   244727.149951    ;  uncertainty r = 0.000148, k = 51.200502
         5         6     1        0.139504   362546.409082    ;  uncertainty r = 0.000082, k = 6.490051
         5        10     1        0.141229   370156.391064    ;  uncertainty r = 0.000114, k = 17.389771
         5        15     1        0.136411   289806.021533    ;  uncertainty r = 0.000262, k = 9.198177
         6         7     1        0.139964   362635.278223    ;  uncertainty r = 0.000059, k = 10.582160
         6        20     1        0.150766   242930.895215    ;  uncertainty r = 0.000024, k = 3.899784
         7         8     1        0.141115   349894.482373    ;  uncertainty r = 0.000047, k = 1.687563
         7        12     1        0.108817   335527.917529    ;  uncertainty r = 0.000019, k = 1.159103
         8         9     1        0.139209   369634.999902    ;  uncertainty r = 0.000033, k = 1.591971
         8        13     1        0.108777   334763.489697    ;  uncertainty r = 0.000020, k = 0.857636
         9        10     1        0.140543   365778.589941    ;  uncertainty r = 0.000090, k = 9.441396
         9        14     1        0.108793   336018.996143    ;  uncertainty r = 0.000012, k = 1.508839
        10        11     1        0.144356   289316.296387    ;  uncertainty r = 0.000133, k = 31.348772
        11        16     1        0.149946   246346.432520    ;  uncertainty r = 0.000031, k = 5.075338
        16        17     1        0.109580   310376.724951    ;  uncertainty r = 0.000059, k = 2.388884
        16        18     1        0.109580   310376.724951    ;  uncertainty r = 0.000059, k = 2.388884
        16        19     1        0.109580   310376.724951    ;  uncertainty r = 0.000059, k = 2.388884
        20        21     1        0.109496   308808.593213    ;  uncertainty r = 0.000009, k = 1.939662
        20        22     1        0.109496   308808.593213    ;  uncertainty r = 0.000009, k = 1.939662
        20        23     1        0.109496   308808.593213    ;  uncertainty r = 0.000009, k = 1.939662

[ angles ]
;       ai        aj        ak funct           theta             cth
         1         2         3     1      131.910736      816.361311    ;  uncertainty theta = 0.009057, k = 0.121725
         1         2         4     1      113.495071      337.278914    ;  uncertainty theta = 0.009980, k = 0.574951
         2         4        11     1      129.216751      286.978374    ;  uncertainty theta = 0.006402, k = 0.312336
         2         4        15     1      113.857010      367.125411    ;  uncertainty theta = 0.005966, k = 0.504555
         3         2         4     1      113.495071      337.278914    ;  uncertainty theta = 0.009980, k = 0.574951
         4        11        10     1      106.554016      751.169539    ;  uncertainty theta = 0.004763, k = 0.219604
         4        11        16     1      126.594627      334.483463    ;  uncertainty theta = 0.008769, k = 0.150184
         4        15         5     1      108.823608      978.048944    ;  uncertainty theta = 0.007270, k = 0.284966
         5         6         7     1      115.832664      469.635198    ;  uncertainty theta = 0.003365, k = 0.033059
         5         6        20     1      121.344299      409.159174    ;  uncertainty theta = 0.002932, k = 0.298921
         5        10         9     1      116.232681      397.937880    ;  uncertainty theta = 0.001761, k = 0.041274
         5        10        11     1      105.885864      683.440593    ;  uncertainty theta = 0.001091, k = 0.158460
         6         5        10     1      123.487228      347.155200    ;  uncertainty theta = 0.002769, k = 0.261943
         6         5        15     1      123.274132      416.224143    ;  uncertainty theta = 0.003560, k = 0.168975
         6         7         8     1      123.856506      529.813716    ;  uncertainty theta = 0.001291, k = 0.067083
         6         7        12     1      118.140724      280.041282    ;  uncertainty theta = 0.002186, k = 0.088061
         6        20        21     1      109.702492      400.658923    ;  uncertainty theta = 0.000765, k = 0.048866
         6        20        22     1      109.702492      400.658923    ;  uncertainty theta = 0.000765, k = 0.048866
         6        20        23     1      109.702492      400.658923    ;  uncertainty theta = 0.000765, k = 0.048866
         7         6        20     1      122.949745      428.521793    ;  uncertainty theta = 0.002792, k = 0.063436
         7         8         9     1      121.861206      522.855396    ;  uncertainty theta = 0.002541, k = 0.010772
         7         8        13     1      119.483009      287.829877    ;  uncertainty theta = 0.001619, k = 0.026722
         8         7        12     1      119.620155      288.731912    ;  uncertainty theta = 0.000757, k = 0.062877
         8         9        10     1      117.678566      552.672972    ;  uncertainty theta = 0.002913, k = 0.056393
         8         9        14     1      121.024940      284.267610    ;  uncertainty theta = 0.001640, k = 0.035429
         9         8        13     1      120.001053      286.675600    ;  uncertainty theta = 0.001749, k = 0.026188
         9        10        11     1      133.335373      351.969870    ;  uncertainty theta = 0.003732, k = 0.184975
        10         5        15     1      110.550522      682.553497    ;  uncertainty theta = 0.002847, k = 0.111417
        10         9        14     1      121.817894      291.316363    ;  uncertainty theta = 0.003835, k = 0.073567
        10        11        16     1      125.933495      361.265634    ;  uncertainty theta = 0.005772, k = 0.232528
        11         4        15     1      112.698143      687.508526    ;  uncertainty theta = 0.005437, k = 0.187501
        11        16        17     1      109.259781      411.366569    ;  uncertainty theta = 0.002380, k = 0.176763
        11        16        18     1      109.259789      411.366569    ;  uncertainty theta = 0.002380, k = 0.176763
        11        16        19     1      109.259789      411.366569    ;  uncertainty theta = 0.002380, k = 0.176763
        17        16        18     1      106.540695      314.483118    ;  uncertainty theta = 0.001138, k = 0.067495
        17        16        19     1      106.540695      314.483118    ;  uncertainty theta = 0.001138, k = 0.067495
        18        16        19     1      106.540695      314.483118    ;  uncertainty theta = 0.001138, k = 0.067495
        21        20        22     1      106.777908      315.505017    ;  uncertainty theta = 0.001432, k = 0.024593
        21        20        23     1      106.777908      315.505017    ;  uncertainty theta = 0.001432, k = 0.024593
        22        20        23     1      106.777908      315.505017    ;  uncertainty theta = 0.001432, k = 0.024593

[ dihedrals ] ; propers for gromacs 4.5 or higher, use funct 9
;       ai        aj        ak        al funct           phase               k        pn
         1         2         4        11     9        0.000000       -0.127578         1    ;  uncertainty k = 1.340427
         1         2         4        11     9      180.000000        1.944758         2    ;  uncertainty k = 0.310885
         1         2         4        11     9        0.000000        0.057093         3    ;  uncertainty k = 0.252968
         1         2         4        11     9      180.000000        0.073117         4    ;  uncertainty k = 0.110671
         1         2         4        15     9        0.000000        0.514450         1    ;  uncertainty k = 0.527055
         1         2         4        15     9      180.000000        4.450712         2    ;  uncertainty k = 0.237089
         1         2         4        15     9        0.000000        0.492212         3    ;  uncertainty k = 0.297463
         1         2         4        15     9      180.000000        0.078672         4    ;  uncertainty k = 0.111480
         2         4        11        10     9        0.000000        0.601443         1    ;  uncertainty k = 1.529799
         2         4        11        10     9      180.000000       10.000059         2    ;  uncertainty k = 0.497132
         2         4        11        10     9        0.000000        1.967276         3    ;  uncertainty k = 0.464796
         2         4        11        10     9      180.000000        0.918685         4    ;  uncertainty k = 0.243534
         2         4        11        16     9        0.000000       -0.076002         1    ;  uncertainty k = 0.875315
         2         4        11        16     9      180.000000        8.489772         2    ;  uncertainty k = 0.608455
         2         4        11        16     9        0.000000        1.394861         3    ;  uncertainty k = 0.319537
         2         4        11        16     9      180.000000        0.534371         4    ;  uncertainty k = 0.332618
         2         4        15         5     9        0.000000       -0.080229         1    ;  uncertainty k = 1.199717
         2         4        15         5     9      180.000000        3.946284         2    ;  uncertainty k = 0.702747
         2         4        15         5     9        0.000000        1.652623         3    ;  uncertainty k = 0.503764
         2         4        15         5     9      180.000000        0.462278         4    ;  uncertainty k = 0.196377
         3         2         4        11     9        0.000000       -0.127578         1    ;  uncertainty k = 1.340427
         3         2         4        11     9      180.000000        1.944758         2    ;  uncertainty k = 0.310885
         3         2         4        11     9        0.000000        0.057093         3    ;  uncertainty k = 0.252968
         3         2         4        11     9      180.000000        0.073117         4    ;  uncertainty k = 0.110671
         3         2         4        15     9        0.000000        0.514450         1    ;  uncertainty k = 0.527055
         3         2         4        15     9      180.000000        4.450712         2    ;  uncertainty k = 0.237089
         3         2         4        15     9        0.000000        0.492212         3    ;  uncertainty k = 0.297463
         3         2         4        15     9      180.000000        0.078672         4    ;  uncertainty k = 0.111480
         4        11        10         5     9        0.000000        0.854725         1    ;  uncertainty k = 0.653973
         4        11        10         5     9      180.000000       11.381598         2    ;  uncertainty k = 1.466256
         4        11        10         5     9        0.000000      -10.562116         3    ;  uncertainty k = 2.562425
         4        11        10         5     9      180.000000        2.007509         4    ;  uncertainty k = 0.813219
         4        11        10         9     9        0.000000       -0.032530         1    ;  uncertainty k = 1.476436
         4        11        10         9     9      180.000000        5.007336         2    ;  uncertainty k = 0.829172
         4        11        10         9     9        0.000000        0.581348         3    ;  uncertainty k = 0.408533
         4        11        10         9     9      180.000000        0.923852         4    ;  uncertainty k = 0.267952
         4        11        16        17     9        0.000000        1.144700         1    ;  uncertainty k = 0.415480
         4        11        16        17     9      180.000000        2.514656         2    ;  uncertainty k = 0.453679
         4        11        16        17     9        0.000000       -0.160203         3    ;  uncertainty k = 0.104133
         4        11        16        17     9      180.000000        0.084907         4    ;  uncertainty k = 0.103534
         4        11        16        18     9        0.000000        1.144700         1    ;  uncertainty k = 0.415480
         4        11        16        18     9      180.000000        2.514656         2    ;  uncertainty k = 0.453679
         4        11        16        18     9        0.000000       -0.160203         3    ;  uncertainty k = 0.104133
         4        11        16        18     9      180.000000        0.084907         4    ;  uncertainty k = 0.103534
         4        11        16        19     9        0.000000        1.144700         1    ;  uncertainty k = 0.415480
         4        11        16        19     9      180.000000        2.514656         2    ;  uncertainty k = 0.453679
         4        11        16        19     9        0.000000       -0.160203         3    ;  uncertainty k = 0.104133
         4        11        16        19     9      180.000000        0.084907         4    ;  uncertainty k = 0.103534
         4        15         5         6     9        0.000000        0.795996         1    ;  uncertainty k = 2.031862
         4        15         5         6     9      180.000000        5.715555         2    ;  uncertainty k = 0.446847
         4        15         5         6     9        0.000000        1.155438         3    ;  uncertainty k = 0.271412
         4        15         5         6     9      180.000000        0.270131         4    ;  uncertainty k = 0.153153
         4        15         5        10     9        0.000000       -0.457405         1    ;  uncertainty k = 1.575638
         4        15         5        10     9      180.000000       12.712087         2    ;  uncertainty k = 0.296791
         4        15         5        10     9        0.000000       -5.792315         3    ;  uncertainty k = 0.974879
         4        15         5        10     9      180.000000        0.954484         4    ;  uncertainty k = 0.692130
         5         6         7         8     9        0.000000       -0.091924         1    ;  uncertainty k = 0.286543
         5         6         7         8     9      180.000000       14.324917         2    ;  uncertainty k = 0.347520
         5         6         7         8     9        0.000000       -0.169635         3    ;  uncertainty k = 0.483083
         5         6         7         8     9      180.000000        0.765913         4    ;  uncertainty k = 0.430208
         5         6         7        12     9        0.000000        0.063322         1    ;  uncertainty k = 0.135746
         5         6         7        12     9      180.000000        9.950807         2    ;  uncertainty k = 0.312694
         5         6         7        12     9        0.000000        1.358871         3    ;  uncertainty k = 0.453331
         5         6         7        12     9      180.000000        1.444750         4    ;  uncertainty k = 0.230737
         5         6        20        21     9        0.000000       -0.582517         1    ;  uncertainty k = 0.224073
         5         6        20        21     9      180.000000        1.751535         2    ;  uncertainty k = 0.397470
         5         6        20        21     9        0.000000        0.643257         3    ;  uncertainty k = 0.098772
         5         6        20        21     9      180.000000        0.296368         4    ;  uncertainty k = 0.060549
         5         6        20        22     9        0.000000       -0.582517         1    ;  uncertainty k = 0.224073
         5         6        20        22     9      180.000000        1.751535         2    ;  uncertainty k = 0.397470
         5         6        20        22     9        0.000000        0.643257         3    ;  uncertainty k = 0.098772
         5         6        20        22     9      180.000000        0.296368         4    ;  uncertainty k = 0.060549
         5         6        20        23     9        0.000000       -0.582517         1    ;  uncertainty k = 0.224073
         5         6        20        23     9      180.000000        1.751535         2    ;  uncertainty k = 0.397470
         5         6        20        23     9        0.000000        0.643257         3    ;  uncertainty k = 0.098772
         5         6        20        23     9      180.000000        0.296368         4    ;  uncertainty k = 0.060549
         5        10         9         8     9        0.000000       -0.019228         1    ;  uncertainty k = 0.261007
         5        10         9         8     9      180.000000       14.372084         2    ;  uncertainty k = 0.253876
         5        10         9         8     9        0.000000       -1.823353         3    ;  uncertainty k = 0.479276
         5        10         9         8     9      180.000000        0.574864         4    ;  uncertainty k = 0.226985
         5        10         9        14     9        0.000000        0.051995         1    ;  uncertainty k = 0.374464
         5        10         9        14     9      180.000000        7.404752         2    ;  uncertainty k = 0.697421
         5        10         9        14     9        0.000000        1.341452         3    ;  uncertainty k = 0.275517
         5        10         9        14     9      180.000000        1.252263         4    ;  uncertainty k = 0.331587
         5        10        11        16     9        0.000000        1.105246         1    ;  uncertainty k = 1.102564
         5        10        11        16     9      180.000000        9.345139         2    ;  uncertainty k = 0.466873
         5        10        11        16     9        0.000000        1.592659         3    ;  uncertainty k = 0.451325
         5        10        11        16     9      180.000000        0.194345         4    ;  uncertainty k = 0.371370
         5        15         4        11     9        0.000000       -1.014322         1    ;  uncertainty k = 0.601670
         5        15         4        11     9      180.000000       13.574008         2    ;  uncertainty k = 0.718298
         5        15         4        11     9        0.000000       -3.942416         3    ;  uncertainty k = 1.660318
         5        15         4        11     9      180.000000        0.992335         4    ;  uncertainty k = 0.501920
         6         5        10         9     9        0.000000       -0.798202         1    ;  uncertainty k = 0.696104
         6         5        10         9     9      180.000000        7.212016         2    ;  uncertainty k = 0.786710
         6         5        10         9     9        0.000000       -0.195412         3    ;  uncertainty k = 0.125448
         6         5        10         9     9      180.000000        0.984383         4    ;  uncertainty k = 0.336953
         6         5        10        11     9        0.000000       -0.244215         1    ;  uncertainty k = 0.396012
         6         5        10        11     9      180.000000        7.058765         2    ;  uncertainty k = 0.390144
         6         5        10        11     9        0.000000       -0.324196         3    ;  uncertainty k = 0.629439
         6         5        10        11     9      180.000000        1.218514         4    ;  uncertainty k = 0.287697
         6         7         8         9     9        0.000000       -0.230402         1    ;  uncertainty k = 0.394295
         6         7         8         9     9      180.000000       12.523440         2    ;  uncertainty k = 0.389454
         6         7         8         9     9        0.000000       -0.698078         3    ;  uncertainty k = 0.717312
         6         7         8         9     9      180.000000        0.814043         4    ;  uncertainty k = 0.181049
         6         7         8        13     9        0.000000        0.115884         1    ;  uncertainty k = 0.165217
         6         7         8        13     9      180.000000        6.731467         2    ;  uncertainty k = 0.375025
         6         7         8        13     9        0.000000        1.466199         3    ;  uncertainty k = 0.223027
         6         7         8        13     9      180.000000        1.713189         4    ;  uncertainty k = 0.108075
         7         6         5        10     9        0.000000        0.008350         1    ;  uncertainty k = 0.214478
         7         6         5        10     9      180.000000        9.957608         2    ;  uncertainty k = 0.344689
         7         6         5        10     9        0.000000       -0.678359         3    ;  uncertainty k = 0.326365
         7         6         5        10     9      180.000000        1.011033         4    ;  uncertainty k = 0.187129
         7         6         5        15     9        0.000000        0.740169         1    ;  uncertainty k = 0.470925
         7         6         5        15     9      180.000000        9.378437         2    ;  uncertainty k = 0.636799
         7         6         5        15     9        0.000000        1.225207         3    ;  uncertainty k = 0.388119
         7         6         5        15     9      180.000000        1.245013         4    ;  uncertainty k = 0.291353
         7         6        20        21     9        0.000000       -0.027130         1    ;  uncertainty k = 0.158310
         7         6        20        21     9      180.000000        1.336064         2    ;  uncertainty k = 0.258621
         7         6        20        21     9        0.000000        0.268494         3    ;  uncertainty k = 0.072988
         7         6        20        21     9      180.000000        0.178132         4    ;  uncertainty k = 0.056846
         7         6        20        22     9        0.000000       -0.027130         1    ;  uncertainty k = 0.158310
         7         6        20        22     9      180.000000        1.336064         2    ;  uncertainty k = 0.258621
         7         6        20        22     9        0.000000        0.268494         3    ;  uncertainty k = 0.072988
         7         6        20        22     9      180.000000        0.178132         4    ;  uncertainty k = 0.056846
         7         6        20        23     9        0.000000       -0.027130         1    ;  uncertainty k = 0.158310
         7         6        20        23     9      180.000000        1.336064         2    ;  uncertainty k = 0.258621
         7         6        20        23     9        0.000000        0.268494         3    ;  uncertainty k = 0.072988
         7         6        20        23     9      180.000000        0.178132         4    ;  uncertainty k = 0.056846
         7         8         9        10     9        0.000000        0.016478         1    ;  uncertainty k = 0.425890
         7         8         9        10     9      180.000000       16.735176         2    ;  uncertainty k = 0.211359
         7         8         9        10     9        0.000000       -0.556496         3    ;  uncertainty k = 0.405605
         7         8         9        10     9      180.000000        0.606716         4    ;  uncertainty k = 0.315066
         7         8         9        14     9        0.000000        0.165643         1    ;  uncertainty k = 0.184762
         7         8         9        14     9      180.000000        8.566665         2    ;  uncertainty k = 0.526644
         7         8         9        14     9        0.000000        1.547351         3    ;  uncertainty k = 0.272220
         7         8         9        14     9      180.000000        1.852045         4    ;  uncertainty k = 0.279133
         8         7         6        20     9        0.000000        0.179082         1    ;  uncertainty k = 0.213376
         8         7         6        20     9      180.000000       10.762677         2    ;  uncertainty k = 0.537209
         8         7         6        20     9        0.000000        1.506648         3    ;  uncertainty k = 0.316870
         8         7         6        20     9      180.000000        1.839012         4    ;  uncertainty k = 0.276485
         8         9        10        11     9        0.000000        0.029051         1    ;  uncertainty k = 0.300238
         8         9        10        11     9      180.000000        9.259730         2    ;  uncertainty k = 0.316684
         8         9        10        11     9        0.000000        0.519620         3    ;  uncertainty k = 0.470211
         8         9        10        11     9      180.000000        1.158605         4    ;  uncertainty k = 0.141267
         9         8         7        12     9        0.000000        0.059588         1    ;  uncertainty k = 0.177682
         9         8         7        12     9      180.000000        7.247933         2    ;  uncertainty k = 0.407614
         9         8         7        12     9        0.000000        1.400706         3    ;  uncertainty k = 0.203804
         9         8         7        12     9      180.000000        1.658052         4    ;  uncertainty k = 0.168011
         9        10         5        15     9        0.000000        0.249519         1    ;  uncertainty k = 0.500674
         9        10         5        15     9      180.000000        9.392761         2    ;  uncertainty k = 0.203723
         9        10         5        15     9        0.000000       -0.018931         3    ;  uncertainty k = 0.464949
         9        10         5        15     9      180.000000        1.348451         4    ;  uncertainty k = 0.397685
         9        10        11        16     9        0.000000        0.755633         1    ;  uncertainty k = 1.258965
         9        10        11        16     9      180.000000        5.577543         2    ;  uncertainty k = 0.500203
         9        10        11        16     9        0.000000        1.483192         3    ;  uncertainty k = 0.340978
         9        10        11        16     9      180.000000        0.212739         4    ;  uncertainty k = 0.284346
        10         5         6        20     9        0.000000        0.396176         1    ;  uncertainty k = 0.134090
        10         5         6        20     9      180.000000        6.872659         2    ;  uncertainty k = 0.702472
        10         5         6        20     9        0.000000        0.958040         3    ;  uncertainty k = 0.242401
        10         5         6        20     9      180.000000        1.363857         4    ;  uncertainty k = 0.241175
        10         9         8        13     9        0.000000        0.082877         1    ;  uncertainty k = 0.328329
        10         9         8        13     9      180.000000       10.947849         2    ;  uncertainty k = 0.414209
        10         9         8        13     9        0.000000        1.474754         3    ;  uncertainty k = 0.342315
        10         9         8        13     9      180.000000        1.621737         4    ;  uncertainty k = 0.353633
        10        11         4        15     9        0.000000       -0.284185         1    ;  uncertainty k = 0.384817
        10        11         4        15     9      180.000000       20.186229         2    ;  uncertainty k = 0.325540
        10        11         4        15     9        0.000000       -4.444793         3    ;  uncertainty k = 1.160358
        10        11         4        15     9      180.000000        1.339793         4    ;  uncertainty k = 0.472373
        10        11        16        17     9        0.000000       -0.939217         1    ;  uncertainty k = 0.503006
        10        11        16        17     9      180.000000        1.416946         2    ;  uncertainty k = 0.197005
        10        11        16        17     9        0.000000        0.827758         3    ;  uncertainty k = 0.132173
        10        11        16        17     9      180.000000        0.198389         4    ;  uncertainty k = 0.091753
        10        11        16        18     9        0.000000       -0.939217         1    ;  uncertainty k = 0.503006
        10        11        16        18     9      180.000000        1.416946         2    ;  uncertainty k = 0.197005
        10        11        16        18     9        0.000000        0.827758         3    ;  uncertainty k = 0.132173
        10        11        16        18     9      180.000000        0.198389         4    ;  uncertainty k = 0.091753
        10        11        16        19     9        0.000000       -0.939217         1    ;  uncertainty k = 0.503006
        10        11        16        19     9      180.000000        1.416946         2    ;  uncertainty k = 0.197005
        10        11        16        19     9        0.000000        0.827758         3    ;  uncertainty k = 0.132173
        10        11        16        19     9      180.000000        0.198389         4    ;  uncertainty k = 0.091753
        11        10         5        15     9        0.000000       -0.392410         1    ;  uncertainty k = 0.616809
        11        10         5        15     9      180.000000       13.667255         2    ;  uncertainty k = 1.013492
        11        10         5        15     9        0.000000       -4.256963         3    ;  uncertainty k = 0.788173
        11        10         5        15     9      180.000000        1.472596         4    ;  uncertainty k = 0.898751
        11        10         9        14     9        0.000000        0.262778         1    ;  uncertainty k = 0.738333
        11        10         9        14     9      180.000000        5.343768         2    ;  uncertainty k = 0.415539
        11        10         9        14     9        0.000000        1.083816         3    ;  uncertainty k = 0.184041
        11        10         9        14     9      180.000000        0.791984         4    ;  uncertainty k = 0.288994
        12         7         6        20     9        0.000000       -0.477910         1    ;  uncertainty k = 0.473401
        12         7         6        20     9      180.000000        8.376821         2    ;  uncertainty k = 0.350671
        12         7         6        20     9        0.000000        0.558836         3    ;  uncertainty k = 0.313403
        12         7         6        20     9      180.000000        1.004978         4    ;  uncertainty k = 0.215281
        12         7         8        13     9        0.000000        0.027605         1    ;  uncertainty k = 0.237112
        12         7         8        13     9      180.000000        7.158768         2    ;  uncertainty k = 0.460094
        12         7         8        13     9        0.000000       -0.294932         3    ;  uncertainty k = 0.228364
        12         7         8        13     9      180.000000        0.095121         4    ;  uncertainty k = 0.144262
        13         8         9        14     9        0.000000        0.156994         1    ;  uncertainty k = 0.150783
        13         8         9        14     9      180.000000        7.805695         2    ;  uncertainty k = 0.285415
        13         8         9        14     9        0.000000       -0.226623         3    ;  uncertainty k = 0.267011
        13         8         9        14     9      180.000000        0.117737         4    ;  uncertainty k = 0.159536
        15         4        11        16     9        0.000000        0.433301         1    ;  uncertainty k = 0.585310
        15         4        11        16     9      180.000000       15.997804         2    ;  uncertainty k = 0.729949
        15         4        11        16     9        0.000000        1.984201         3    ;  uncertainty k = 0.369978
        15         4        11        16     9      180.000000        1.136037         4    ;  uncertainty k = 0.469837
        15         5         6        20     9        0.000000       -0.016694         1    ;  uncertainty k = 0.328988
        15         5         6        20     9      180.000000        8.175379         2    ;  uncertainty k = 0.622276
        15         5         6        20     9        0.000000        1.282957         3    ;  uncertainty k = 0.276102
        15         5         6        20     9      180.000000        1.147202         4    ;  uncertainty k = 0.355498

[ dihedrals ] ; impropers
;       ai        aj        ak        al funct           phase               k        pn
         2         1         3         4     4      180.000000       65.001876         2    ;  uncertainty k = 0.057905
         2         3         4         1     4      180.000000       65.001876         2    ;  uncertainty k = 0.057905
         2         4         1         3     4      180.000000       65.001876         2    ;  uncertainty k = 0.057905
         4         2        11        15     4      180.000000        4.864537         2    ;  uncertainty k = 0.646805
         4        11        15         2     4      180.000000        4.864537         2    ;  uncertainty k = 0.646805
         4        15         2        11     4      180.000000        4.864537         2    ;  uncertainty k = 0.646805
         6         5         7        20     4      180.000000       11.849550         2    ;  uncertainty k = 0.156649
         6         7        20         5     4      180.000000       11.849550         2    ;  uncertainty k = 0.156649
         6        20         5         7     4      180.000000       11.849550         2    ;  uncertainty k = 0.156649
         7         6         8        12     4      180.000000        3.435810         2    ;  uncertainty k = 0.121378
         7         8        12         6     4      180.000000        3.435810         2    ;  uncertainty k = 0.121378
         7        12         6         8     4      180.000000        3.435810         2    ;  uncertainty k = 0.121378
         8         7         9        13     4      180.000000        3.412691         2    ;  uncertainty k = 0.083830
         8         9        13         7     4      180.000000        3.412691         2    ;  uncertainty k = 0.083830
         8        13         7         9     4      180.000000        3.412691         2    ;  uncertainty k = 0.083830
         9         8        10        14     4      180.000000        3.886056         2    ;  uncertainty k = 0.171241
         9        10        14         8     4      180.000000        3.886056         2    ;  uncertainty k = 0.171241
         9        14         8        10     4      180.000000        3.886056         2    ;  uncertainty k = 0.171241
        10         5         9        11     4      180.000000        0.037217         2    ;  uncertainty k = 0.083220
        10         9        11         5     4      180.000000        0.037217         2    ;  uncertainty k = 0.083220
        10        11         5         9     4      180.000000        0.037217         2    ;  uncertainty k = 0.083220
        11         4        10        16     4      180.000000        4.451090         2    ;  uncertainty k = 0.251195
        11        10        16         4     4      180.000000        4.451090         2    ;  uncertainty k = 0.251195
        11        16         4        10     4      180.000000        4.451090         2    ;  uncertainty k = 0.251195

[ pairs ]
;       ai        aj funct
         1        11     1
         1        15     1
         2         5     1
         2        10     1
         2        16     1
         3        11     1
         3        15     1
         4         6     1
         4         9     1
         4        17     1
         4        18     1
         4        19     1
         5         8     1
         5        12     1
         5        14     1
         5        16     1
         5        21     1
         5        22     1
         5        23     1
         6         9     1
         6        11     1
         6        13     1
         7        10     1
         7        14     1
         7        15     1
         7        21     1
         7        22     1
         7        23     1
         8        11     1
         8        20     1
         9        12     1
         9        15     1
         9        16     1
        10        13     1
        10        17     1
        10        18     1
        10        19     1
        10        20     1
        11        14     1
        12        13     1
        12        20     1
        13        14     1
        15        16     1
        15        20     1
