; ITP file created by ByteFF-joint-25, 2025-07-14 11:38:45.174643

[ atomtypes ]
;name           bonded.type        at.num        mass        charge   ptype           sigma         epsilon
 c0bf                                   6      0.0000       0.00000       A     3.31516e-01     4.13155e-01    ;  uncertainty sigma = 0.000011, epsilon = 0.000783
 c1bf                                   6      0.0000       0.00000       A     3.31529e-01     4.13269e-01    ;  uncertainty sigma = 0.000004, epsilon = 0.000688
 c2bf                                   6      0.0000       0.00000       A     3.31523e-01     4.13366e-01    ;  uncertainty sigma = 0.000003, epsilon = 0.000663
 c3bf                                   6      0.0000       0.00000       A     3.31521e-01     4.13306e-01    ;  uncertainty sigma = 0.000004, epsilon = 0.000624
 c4bf                                   6      0.0000       0.00000       A     3.31523e-01     4.12971e-01    ;  uncertainty sigma = 0.000008, epsilon = 0.000481
 n5bf                                   7      0.0000       0.00000       A     3.38429e-01     3.93356e-01    ;  uncertainty sigma = 0.000017, epsilon = 0.000761
 c6bf                                   6      0.0000       0.00000       A     3.31514e-01     4.13636e-01    ;  uncertainty sigma = 0.000009, epsilon = 0.000507
 n7bf                                   7      0.0000       0.00000       A     3.38427e-01     3.93492e-01    ;  uncertainty sigma = 0.000010, epsilon = 0.001515
 c8bf                                   6      0.0000       0.00000       A     3.31510e-01     4.13514e-01    ;  uncertainty sigma = 0.000019, epsilon = 0.001621
 c9bf                                   6      0.0000       0.00000       A     3.31546e-01     4.13764e-01    ;  uncertainty sigma = 0.000016, epsilon = 0.000448
 n10bf                                  7      0.0000       0.00000       A     3.27887e-01     6.46117e-01    ;  uncertainty sigma = 0.000024, epsilon = 0.002698
 c11bf                                  6      0.0000       0.00000       A     3.39771e-01     4.51318e-01    ;  uncertainty sigma = 0.000007, epsilon = 0.001427
 c12bf                                  6      0.0000       0.00000       A     3.39774e-01     4.50838e-01    ;  uncertainty sigma = 0.000018, epsilon = 0.000970
 c13bf                                  6      0.0000       0.00000       A     3.31532e-01     4.13173e-01    ;  uncertainty sigma = 0.000004, epsilon = 0.000808
 c14bf                                  6      0.0000       0.00000       A     3.39785e-01     4.50597e-01    ;  uncertainty sigma = 0.000013, epsilon = 0.000825
 c15bf                                  6      0.0000       0.00000       A     3.31518e-01     4.13394e-01    ;  uncertainty sigma = 0.000003, epsilon = 0.000654
 c16bf                                  6      0.0000       0.00000       A     3.31514e-01     4.13331e-01    ;  uncertainty sigma = 0.000003, epsilon = 0.000476
 c17bf                                  6      0.0000       0.00000       A     3.31519e-01     4.13331e-01    ;  uncertainty sigma = 0.000003, epsilon = 0.000569
 c18bf                                  6      0.0000       0.00000       A     3.31514e-01     4.13331e-01    ;  uncertainty sigma = 0.000003, epsilon = 0.000476
 c19bf                                  6      0.0000       0.00000       A     3.31518e-01     4.13394e-01    ;  uncertainty sigma = 0.000003, epsilon = 0.000654
 c20bf                                  6      0.0000       0.00000       A     3.31532e-01     4.13173e-01    ;  uncertainty sigma = 0.000004, epsilon = 0.000808
 c21bf                                  6      0.0000       0.00000       A     3.31518e-01     4.13394e-01    ;  uncertainty sigma = 0.000003, epsilon = 0.000654
 c22bf                                  6      0.0000       0.00000       A     3.31514e-01     4.13331e-01    ;  uncertainty sigma = 0.000003, epsilon = 0.000476
 c23bf                                  6      0.0000       0.00000       A     3.31519e-01     4.13331e-01    ;  uncertainty sigma = 0.000003, epsilon = 0.000569
 c24bf                                  6      0.0000       0.00000       A     3.31514e-01     4.13331e-01    ;  uncertainty sigma = 0.000003, epsilon = 0.000476
 c25bf                                  6      0.0000       0.00000       A     3.31518e-01     4.13394e-01    ;  uncertainty sigma = 0.000003, epsilon = 0.000654
 h26bf                                  1      0.0000       0.00000       A     2.62558e-01     6.69499e-02    ;  uncertainty sigma = 0.000017, epsilon = 0.000438
 h27bf                                  1      0.0000       0.00000       A     2.62567e-01     6.69735e-02    ;  uncertainty sigma = 0.000010, epsilon = 0.000525
 h28bf                                  1      0.0000       0.00000       A     2.62572e-01     6.69734e-02    ;  uncertainty sigma = 0.000010, epsilon = 0.000548
 h29bf                                  1      0.0000       0.00000       A     2.62558e-01     6.70237e-02    ;  uncertainty sigma = 0.000015, epsilon = 0.000547
 h30bf                                  1      0.0000       0.00000       A     1.10614e-01     4.10442e-02    ;  uncertainty sigma = 0.000117, epsilon = 0.000626
 h31bf                                  1      0.0000       0.00000       A     2.42238e-01     8.67565e-02    ;  uncertainty sigma = 0.000040, epsilon = 0.000454
 h32bf                                  1      0.0000       0.00000       A     2.42238e-01     8.67565e-02    ;  uncertainty sigma = 0.000040, epsilon = 0.000454
 h33bf                                  1      0.0000       0.00000       A     2.60039e-01     8.68308e-02    ;  uncertainty sigma = 0.000021, epsilon = 0.000963
 h34bf                                  1      0.0000       0.00000       A     2.62561e-01     6.70677e-02    ;  uncertainty sigma = 0.000005, epsilon = 0.000548
 h35bf                                  1      0.0000       0.00000       A     2.62558e-01     6.70324e-02    ;  uncertainty sigma = 0.000010, epsilon = 0.000442
 h36bf                                  1      0.0000       0.00000       A     2.62552e-01     6.70646e-02    ;  uncertainty sigma = 0.000011, epsilon = 0.000453
 h37bf                                  1      0.0000       0.00000       A     2.62558e-01     6.70324e-02    ;  uncertainty sigma = 0.000010, epsilon = 0.000442
 h38bf                                  1      0.0000       0.00000       A     2.62561e-01     6.70677e-02    ;  uncertainty sigma = 0.000005, epsilon = 0.000548
 h39bf                                  1      0.0000       0.00000       A     2.62561e-01     6.70677e-02    ;  uncertainty sigma = 0.000005, epsilon = 0.000548
 h40bf                                  1      0.0000       0.00000       A     2.62558e-01     6.70324e-02    ;  uncertainty sigma = 0.000010, epsilon = 0.000442
 h41bf                                  1      0.0000       0.00000       A     2.62552e-01     6.70646e-02    ;  uncertainty sigma = 0.000011, epsilon = 0.000453
 h42bf                                  1      0.0000       0.00000       A     2.62558e-01     6.70324e-02    ;  uncertainty sigma = 0.000010, epsilon = 0.000442
 h43bf                                  1      0.0000       0.00000       A     2.62561e-01     6.70677e-02    ;  uncertainty sigma = 0.000005, epsilon = 0.000548
 h44bf                                  1      0.0000       0.00000       A     2.60039e-01     8.68308e-02    ;  uncertainty sigma = 0.000021, epsilon = 0.000964
 h45bf                                  1      0.0000       0.00000       A     2.60038e-01     8.67242e-02    ;  uncertainty sigma = 0.000036, epsilon = 0.001141
 h46bf                                  1      0.0000       0.00000       A     2.44702e-01     6.71465e-02    ;  uncertainty sigma = 0.000056, epsilon = 0.000645

[ moleculetype ]
;name             nrexcl
 MOL                   3

[ atoms ]
;       nr            type      resi   res      atom      cgnr      charge          mass ; qtot
         1            c0bf         1   UNL        c0         1    -0.09054       12.0110 ; qtot   -0.091
         2            c1bf         1   UNL        c1         2    -0.14251       12.0110 ; qtot   -0.233
         3            c2bf         1   UNL        c2         3    -0.10114       12.0110 ; qtot   -0.334
         4            c3bf         1   UNL        c3         4    -0.18182       12.0110 ; qtot   -0.516
         5            c4bf         1   UNL        c4         5     0.43682       12.0110 ; qtot   -0.079
         6            n5bf         1   UNL        n5         6    -0.72174       14.0070 ; qtot   -0.801
         7            c6bf         1   UNL        c6         7     0.68081       12.0110 ; qtot   -0.120
         8            n7bf         1   UNL        n7         8    -0.79844       14.0070 ; qtot   -0.919
         9            c8bf         1   UNL        c8         9     0.71430       12.0110 ; qtot   -0.204
        10            c9bf         1   UNL        c9        10    -0.30081       12.0110 ; qtot   -0.505
        11           n10bf         1   UNL       n10        11    -0.86813       14.0070 ; qtot   -1.373
        12           c11bf         1   UNL       c11        12     0.22197       12.0110 ; qtot   -1.151
        13           c12bf         1   UNL       c12        13    -0.08950       12.0110 ; qtot   -1.241
        14           c13bf         1   UNL       c13        14    -0.08061       12.0110 ; qtot   -1.321
        15           c14bf         1   UNL       c14        15     0.03143       12.0110 ; qtot   -1.290
        16           c15bf         1   UNL       c15        16    -0.12524       12.0110 ; qtot   -1.415
        17           c16bf         1   UNL       c16        17    -0.13055       12.0110 ; qtot   -1.546
        18           c17bf         1   UNL       c17        18    -0.12610       12.0110 ; qtot   -1.672
        19           c18bf         1   UNL       c18        19    -0.13055       12.0110 ; qtot   -1.802
        20           c19bf         1   UNL       c19        20    -0.12524       12.0110 ; qtot   -1.928
        21           c20bf         1   UNL       c20        21    -0.08061       12.0110 ; qtot   -2.008
        22           c21bf         1   UNL       c21        22    -0.12524       12.0110 ; qtot   -2.133
        23           c22bf         1   UNL       c22        23    -0.13055       12.0110 ; qtot   -2.264
        24           c23bf         1   UNL       c23        24    -0.12610       12.0110 ; qtot   -2.390
        25           c24bf         1   UNL       c24        25    -0.13055       12.0110 ; qtot   -2.521
        26           c25bf         1   UNL       c25        26    -0.12524       12.0110 ; qtot   -2.646
        27           h26bf         1   UNL       h26        27     0.13197        1.0080 ; qtot   -2.514
        28           h27bf         1   UNL       h27        28     0.14045        1.0080 ; qtot   -2.373
        29           h28bf         1   UNL       h28        29     0.13619        1.0080 ; qtot   -2.237
        30           h29bf         1   UNL       h29        30     0.15511        1.0080 ; qtot   -2.082
        31           h30bf         1   UNL       h30        31     0.42846        1.0080 ; qtot   -1.654
        32           h31bf         1   UNL       h31        32     0.05784        1.0080 ; qtot   -1.596
        33           h32bf         1   UNL       h32        33     0.05784        1.0080 ; qtot   -1.538
        34           h33bf         1   UNL       h33        34     0.05289        1.0080 ; qtot   -1.485
        35           h34bf         1   UNL       h34        35     0.13447        1.0080 ; qtot   -1.351
        36           h35bf         1   UNL       h35        36     0.13111        1.0080 ; qtot   -1.220
        37           h36bf         1   UNL       h36        37     0.13198        1.0080 ; qtot   -1.088
        38           h37bf         1   UNL       h37        38     0.13111        1.0080 ; qtot   -0.956
        39           h38bf         1   UNL       h38        39     0.13447        1.0080 ; qtot   -0.822
        40           h39bf         1   UNL       h39        40     0.13447        1.0080 ; qtot   -0.688
        41           h40bf         1   UNL       h40        41     0.13111        1.0080 ; qtot   -0.556
        42           h41bf         1   UNL       h41        42     0.13198        1.0080 ; qtot   -0.424
        43           h42bf         1   UNL       h42        43     0.13111        1.0080 ; qtot   -0.293
        44           h43bf         1   UNL       h43        44     0.13447        1.0080 ; qtot   -0.159
        45           h44bf         1   UNL       h44        45     0.05289        1.0080 ; qtot   -0.106
        46           h45bf         1   UNL       h45        46     0.05710        1.0080 ; qtot   -0.049
        47           h46bf         1   UNL       h46        47     0.04886        1.0080 ; qtot    0.000

[ bonds ]
;       ai        aj funct               r               k
         1         2     1        0.138236   365945.347266    ;  uncertainty r = 0.000080, k = 2.213623
         1        10     1        0.141381   334501.300195    ;  uncertainty r = 0.000090, k = 4.029323
         1        27     1        0.108664   335599.651270    ;  uncertainty r = 0.000044, k = 1.003023
         2         3     1        0.141490   359321.991504    ;  uncertainty r = 0.000039, k = 2.858700
         2        28     1        0.108769   333790.168311    ;  uncertainty r = 0.000024, k = 1.967809
         3         4     1        0.137892   383283.946436    ;  uncertainty r = 0.000060, k = 2.080024
         3        29     1        0.108788   334160.507471    ;  uncertainty r = 0.000010, k = 0.844476
         4         5     1        0.141835   369345.460156    ;  uncertainty r = 0.000031, k = 5.047415
         4        30     1        0.108729   337846.712598    ;  uncertainty r = 0.000008, k = 2.420983
         5         6     1        0.137257   417990.589062    ;  uncertainty r = 0.000044, k = 10.178245
         5        10     1        0.142947   441029.351953    ;  uncertainty r = 0.000091, k = 3.532672
         6         7     1        0.131950   362836.025439    ;  uncertainty r = 0.000035, k = 3.120992
         7         8     1        0.135936   421412.893701    ;  uncertainty r = 0.000104, k = 13.603187
         7        47     1        0.108800   332600.879590    ;  uncertainty r = 0.000032, k = 4.157447
         8         9     1        0.133854   611832.418262    ;  uncertainty r = 0.000074, k = 16.368113
         9        10     1        0.144639   352665.999316    ;  uncertainty r = 0.000124, k = 12.808700
         9        11     1        0.137931   475179.821875    ;  uncertainty r = 0.000191, k = 20.212547
        11        12     1        0.145554   239978.601074    ;  uncertainty r = 0.000079, k = 7.797822
        11        31     1        0.101593   423105.314551    ;  uncertainty r = 0.000029, k = 4.777754
        12        13     1        0.153095   208831.984717    ;  uncertainty r = 0.000059, k = 4.877396
        12        32     1        0.109467   304900.189697    ;  uncertainty r = 0.000013, k = 1.619955
        12        33     1        0.109467   304900.189697    ;  uncertainty r = 0.000013, k = 1.619955
        13        15     1        0.153855   192184.279272    ;  uncertainty r = 0.000165, k = 5.389775
        13        34     1        0.109652   307791.603369    ;  uncertainty r = 0.000018, k = 2.246574
        13        45     1        0.109652   307791.603369    ;  uncertainty r = 0.000018, k = 2.246574
        14        15     1        0.152115   217308.696191    ;  uncertainty r = 0.000049, k = 4.140483
        14        16     1        0.139960   349011.306982    ;  uncertainty r = 0.000022, k = 1.571218
        14        20     1        0.139960   349011.306982    ;  uncertainty r = 0.000022, k = 1.571218
        15        21     1        0.152115   217308.696191    ;  uncertainty r = 0.000049, k = 4.140483
        15        46     1        0.109706   303299.064014    ;  uncertainty r = 0.000028, k = 1.639346
        16        17     1        0.139665   365413.639111    ;  uncertainty r = 0.000021, k = 1.348944
        16        35     1        0.108873   333879.241748    ;  uncertainty r = 0.000011, k = 0.966611
        17        18     1        0.139594   371584.885889    ;  uncertainty r = 0.000017, k = 1.435995
        17        36     1        0.108862   334107.696729    ;  uncertainty r = 0.000010, k = 1.115154
        18        19     1        0.139594   371584.885889    ;  uncertainty r = 0.000017, k = 1.435995
        18        37     1        0.108851   334582.457129    ;  uncertainty r = 0.000012, k = 0.680668
        19        20     1        0.139665   365413.639111    ;  uncertainty r = 0.000021, k = 1.348944
        19        38     1        0.108862   334107.696729    ;  uncertainty r = 0.000010, k = 1.115154
        20        39     1        0.108873   333879.216211    ;  uncertainty r = 0.000011, k = 0.966611
        21        22     1        0.139960   349011.306982    ;  uncertainty r = 0.000022, k = 1.571218
        21        26     1        0.139960   349011.306982    ;  uncertainty r = 0.000022, k = 1.571218
        22        23     1        0.139665   365413.639111    ;  uncertainty r = 0.000021, k = 1.348944
        22        40     1        0.108873   333879.216211    ;  uncertainty r = 0.000011, k = 0.966611
        23        24     1        0.139594   371584.885889    ;  uncertainty r = 0.000017, k = 1.435995
        23        41     1        0.108862   334107.696729    ;  uncertainty r = 0.000010, k = 1.115154
        24        25     1        0.139594   371584.885889    ;  uncertainty r = 0.000017, k = 1.435995
        24        42     1        0.108851   334582.457129    ;  uncertainty r = 0.000012, k = 0.680668
        25        26     1        0.139665   365413.639111    ;  uncertainty r = 0.000021, k = 1.348944
        25        43     1        0.108862   334107.696729    ;  uncertainty r = 0.000010, k = 1.115154
        26        44     1        0.108873   333879.241748    ;  uncertainty r = 0.000011, k = 0.966610

[ angles ]
;       ai        aj        ak funct           theta             cth
         1         2         3     1      120.470726      530.863068    ;  uncertainty theta = 0.001676, k = 0.038772
         1         2        28     1      119.756142      291.268864    ;  uncertainty theta = 0.000786, k = 0.028251
         1        10         5     1      120.569252      438.357059    ;  uncertainty theta = 0.004598, k = 0.241028
         1        10         9     1      121.920593      405.876825    ;  uncertainty theta = 0.004371, k = 0.214804
         2         1        10     1      121.458839      534.230646    ;  uncertainty theta = 0.002198, k = 0.095391
         2         1        27     1      119.871010      290.121960    ;  uncertainty theta = 0.003042, k = 0.032761
         2         3         4     1      119.808617      532.843534    ;  uncertainty theta = 0.002265, k = 0.025017
         2         3        29     1      120.150246      286.105420    ;  uncertainty theta = 0.001132, k = 0.023156
         3         2        28     1      120.574051      289.109190    ;  uncertainty theta = 0.001659, k = 0.025943
         3         4         5     1      118.260399      542.668682    ;  uncertainty theta = 0.002709, k = 0.134464
         3         4        30     1      122.004173      282.068035    ;  uncertainty theta = 0.002517, k = 0.034539
         4         3        29     1      119.727234      284.811103    ;  uncertainty theta = 0.001137, k = 0.032587
         4         5         6     1      122.686539      528.706778    ;  uncertainty theta = 0.002750, k = 0.093222
         4         5        10     1      116.973167      400.628470    ;  uncertainty theta = 0.002549, k = 0.107643
         5         4        30     1      119.482178      274.046829    ;  uncertainty theta = 0.003638, k = 0.084409
         5         6         7     1      112.253395      447.918345    ;  uncertainty theta = 0.003662, k = 0.193896
         5        10         9     1      118.099525      430.979133    ;  uncertainty theta = 0.009537, k = 0.203107
         6         5        10     1      121.782089      595.899573    ;  uncertainty theta = 0.003284, k = 0.066679
         6         7         8     1      126.539894      906.518224    ;  uncertainty theta = 0.002396, k = 0.055857
         6         7        47     1      116.149231      302.470270    ;  uncertainty theta = 0.003617, k = 0.085281
         7         8         9     1      116.404617      409.026764    ;  uncertainty theta = 0.006125, k = 0.127349
         8         7        47     1      115.422340      306.604568    ;  uncertainty theta = 0.003590, k = 0.083301
         8         9        10     1      121.348221      553.818056    ;  uncertainty theta = 0.004202, k = 0.122565
         8         9        11     1      121.192429      830.444005    ;  uncertainty theta = 0.002937, k = 0.053470
         9        11        12     1      115.683067      406.425969    ;  uncertainty theta = 0.003555, k = 0.066505
         9        11        31     1      115.483337      395.164231    ;  uncertainty theta = 0.003372, k = 0.105818
        10         1        27     1      118.633217      265.892303    ;  uncertainty theta = 0.003729, k = 0.123705
        10         9        11     1      121.800003      589.140603    ;  uncertainty theta = 0.003394, k = 0.187149
        11        12        13     1      110.468163      651.597541    ;  uncertainty theta = 0.002083, k = 0.095773
        11        12        32     1      106.411118      448.366840    ;  uncertainty theta = 0.000589, k = 0.079052
        11        12        33     1      106.411118      448.366840    ;  uncertainty theta = 0.000589, k = 0.079052
        12        11        31     1      111.821854      351.641751    ;  uncertainty theta = 0.005165, k = 0.095078
        12        13        15     1      110.008850      526.412077    ;  uncertainty theta = 0.001626, k = 0.085096
        12        13        34     1      106.997353      396.547066    ;  uncertainty theta = 0.001549, k = 0.058281
        12        13        45     1      106.997353      396.547066    ;  uncertainty theta = 0.001549, k = 0.058281
        13        12        32     1      108.320053      400.340475    ;  uncertainty theta = 0.001806, k = 0.046766
        13        12        33     1      108.320053      400.340475    ;  uncertainty theta = 0.001806, k = 0.046766
        13        15        14     1      109.980919      562.510313    ;  uncertainty theta = 0.002928, k = 0.065963
        13        15        21     1      109.980919      562.510313    ;  uncertainty theta = 0.002928, k = 0.065963
        13        15        46     1      105.993080      399.224153    ;  uncertainty theta = 0.002501, k = 0.129594
        14        15        21     1      110.751602      544.157367    ;  uncertainty theta = 0.002410, k = 0.137712
        14        15        46     1      105.784569      410.216665    ;  uncertainty theta = 0.002712, k = 0.056864
        14        16        17     1      121.147766      519.655820    ;  uncertainty theta = 0.001546, k = 0.034116
        14        16        35     1      118.863770      267.004684    ;  uncertainty theta = 0.002034, k = 0.042610
        14        20        19     1      121.147766      519.655820    ;  uncertainty theta = 0.001546, k = 0.034116
        14        20        39     1      118.863770      267.004684    ;  uncertainty theta = 0.002034, k = 0.042610
        15        13        34     1      107.175659      380.953468    ;  uncertainty theta = 0.001065, k = 0.092173
        15        13        45     1      107.175659      380.953468    ;  uncertainty theta = 0.001065, k = 0.092173
        15        14        16     1      120.873497      404.144036    ;  uncertainty theta = 0.002821, k = 0.049020
        15        14        20     1      120.873497      404.144036    ;  uncertainty theta = 0.002821, k = 0.049020
        15        21        22     1      120.873497      404.144036    ;  uncertainty theta = 0.002821, k = 0.049020
        15        21        26     1      120.873497      404.144036    ;  uncertainty theta = 0.002821, k = 0.049020
        16        14        20     1      119.988968      455.458495    ;  uncertainty theta = 0.000985, k = 0.044790
        16        17        18     1      119.610184      513.784264    ;  uncertainty theta = 0.000969, k = 0.021057
        16        17        36     1      120.192970      284.639622    ;  uncertainty theta = 0.001837, k = 0.019742
        17        16        35     1      119.998611      294.785100    ;  uncertainty theta = 0.002588, k = 0.017940
        17        18        19     1      118.025597      524.818849    ;  uncertainty theta = 0.000621, k = 0.036256
        17        18        37     1      120.665054      289.683584    ;  uncertainty theta = 0.001645, k = 0.013838
        18        17        36     1      120.613792      288.542203    ;  uncertainty theta = 0.001920, k = 0.015291
        18        19        20     1      119.610184      513.784264    ;  uncertainty theta = 0.000969, k = 0.021057
        18        19        38     1      120.613792      288.542203    ;  uncertainty theta = 0.001920, k = 0.015291
        19        18        37     1      120.665054      289.683584    ;  uncertainty theta = 0.001645, k = 0.013838
        19        20        39     1      119.998611      294.785100    ;  uncertainty theta = 0.002588, k = 0.017940
        20        19        38     1      120.192970      284.639622    ;  uncertainty theta = 0.001837, k = 0.019742
        21        15        46     1      105.784569      410.216697    ;  uncertainty theta = 0.002712, k = 0.056864
        21        22        23     1      121.147766      519.655756    ;  uncertainty theta = 0.001546, k = 0.034116
        21        22        40     1      118.863770      267.004684    ;  uncertainty theta = 0.002034, k = 0.042610
        21        26        25     1      121.147766      519.655756    ;  uncertainty theta = 0.001546, k = 0.034116
        21        26        44     1      118.863770      267.004684    ;  uncertainty theta = 0.002034, k = 0.042610
        22        21        26     1      119.988953      455.458432    ;  uncertainty theta = 0.000985, k = 0.044790
        22        23        24     1      119.610184      513.784264    ;  uncertainty theta = 0.000969, k = 0.021057
        22        23        41     1      120.192955      284.639622    ;  uncertainty theta = 0.001837, k = 0.019742
        23        22        40     1      119.998611      294.785068    ;  uncertainty theta = 0.002588, k = 0.017940
        23        24        25     1      118.025597      524.818849    ;  uncertainty theta = 0.000621, k = 0.036256
        23        24        42     1      120.665054      289.683584    ;  uncertainty theta = 0.001645, k = 0.013838
        24        23        41     1      120.613785      288.542203    ;  uncertainty theta = 0.001920, k = 0.015291
        24        25        26     1      119.610184      513.784264    ;  uncertainty theta = 0.000969, k = 0.021057
        24        25        43     1      120.613785      288.542203    ;  uncertainty theta = 0.001920, k = 0.015291
        25        24        42     1      120.665054      289.683584    ;  uncertainty theta = 0.001645, k = 0.013838
        25        26        44     1      119.998611      294.785068    ;  uncertainty theta = 0.002588, k = 0.017940
        26        25        43     1      120.192955      284.639622    ;  uncertainty theta = 0.001837, k = 0.019742
        32        12        33     1      105.909706      319.623642    ;  uncertainty theta = 0.001832, k = 0.028790
        34        13        45     1      105.362503      319.323613    ;  uncertainty theta = 0.003294, k = 0.031825

[ dihedrals ] ; propers for gromacs 4.5 or higher, use funct 9
;       ai        aj        ak        al funct           phase               k        pn
         1         2         3         4     9        0.000000       -0.107301         1    ;  uncertainty k = 0.135910
         1         2         3         4     9      180.000000       11.927971         2    ;  uncertainty k = 0.485211
         1         2         3         4     9        0.000000       -0.808979         3    ;  uncertainty k = 0.606907
         1         2         3         4     9      180.000000        0.694706         4    ;  uncertainty k = 0.238021
         1         2         3        29     9        0.000000        0.045267         1    ;  uncertainty k = 0.250833
         1         2         3        29     9      180.000000        6.643038         2    ;  uncertainty k = 0.494409
         1         2         3        29     9        0.000000        1.383674         3    ;  uncertainty k = 0.185125
         1         2         3        29     9      180.000000        1.541947         4    ;  uncertainty k = 0.111659
         1        10         5         4     9        0.000000       -0.160867         1    ;  uncertainty k = 0.317538
         1        10         5         4     9      180.000000        6.121912         2    ;  uncertainty k = 0.655251
         1        10         5         4     9        0.000000        0.146770         3    ;  uncertainty k = 0.193575
         1        10         5         4     9      180.000000        1.392599         4    ;  uncertainty k = 0.224240
         1        10         5         6     9        0.000000       -0.057181         1    ;  uncertainty k = 0.216078
         1        10         5         6     9      180.000000        7.510132         2    ;  uncertainty k = 0.596399
         1        10         5         6     9        0.000000        0.311814         3    ;  uncertainty k = 0.243328
         1        10         5         6     9      180.000000        1.504337         4    ;  uncertainty k = 0.314662
         1        10         9         8     9        0.000000        0.425651         1    ;  uncertainty k = 0.212361
         1        10         9         8     9      180.000000        4.556544         2    ;  uncertainty k = 1.185332
         1        10         9         8     9        0.000000        0.031975         3    ;  uncertainty k = 0.630021
         1        10         9         8     9      180.000000        0.712042         4    ;  uncertainty k = 0.391525
         1        10         9        11     9        0.000000       -0.387321         1    ;  uncertainty k = 0.727339
         1        10         9        11     9      180.000000        5.037360         2    ;  uncertainty k = 1.262897
         1        10         9        11     9        0.000000        0.058569         3    ;  uncertainty k = 0.371645
         1        10         9        11     9      180.000000        0.545493         4    ;  uncertainty k = 0.157126
         2         1        10         5     9        0.000000       -0.134018         1    ;  uncertainty k = 0.388083
         2         1        10         5     9      180.000000       10.183164         2    ;  uncertainty k = 0.103228
         2         1        10         5     9        0.000000       -0.629062         3    ;  uncertainty k = 0.363532
         2         1        10         5     9      180.000000        1.077954         4    ;  uncertainty k = 0.270387
         2         1        10         9     9        0.000000        0.017530         1    ;  uncertainty k = 0.655013
         2         1        10         9     9      180.000000        9.064060         2    ;  uncertainty k = 0.815758
         2         1        10         9     9        0.000000        0.362000         3    ;  uncertainty k = 0.301441
         2         1        10         9     9      180.000000        1.369577         4    ;  uncertainty k = 0.231291
         2         3         4         5     9        0.000000       -0.137189         1    ;  uncertainty k = 0.297335
         2         3         4         5     9      180.000000       16.460758         2    ;  uncertainty k = 0.144656
         2         3         4         5     9        0.000000       -0.424796         3    ;  uncertainty k = 0.439006
         2         3         4         5     9      180.000000        0.771710         4    ;  uncertainty k = 0.140580
         2         3         4        30     9        0.000000        0.118093         1    ;  uncertainty k = 0.180481
         2         3         4        30     9      180.000000        9.331449         2    ;  uncertainty k = 0.376378
         2         3         4        30     9        0.000000        1.442118         3    ;  uncertainty k = 0.350736
         2         3         4        30     9      180.000000        1.987955         4    ;  uncertainty k = 0.251837
         3         2         1        10     9        0.000000       -0.002968         1    ;  uncertainty k = 0.404320
         3         2         1        10     9      180.000000       15.512048         2    ;  uncertainty k = 0.303520
         3         2         1        10     9        0.000000       -0.623950         3    ;  uncertainty k = 0.468033
         3         2         1        10     9      180.000000        0.823463         4    ;  uncertainty k = 0.322319
         3         2         1        27     9        0.000000        0.091377         1    ;  uncertainty k = 0.066265
         3         2         1        27     9      180.000000        9.152606         2    ;  uncertainty k = 0.236848
         3         2         1        27     9        0.000000        1.410613         3    ;  uncertainty k = 0.317963
         3         2         1        27     9      180.000000        1.904073         4    ;  uncertainty k = 0.198558
         3         4         5         6     9        0.000000        0.097815         1    ;  uncertainty k = 0.197629
         3         4         5         6     9      180.000000        9.925323         2    ;  uncertainty k = 0.498893
         3         4         5         6     9        0.000000        0.634943         3    ;  uncertainty k = 0.282510
         3         4         5         6     9      180.000000        1.352590         4    ;  uncertainty k = 0.325428
         3         4         5        10     9        0.000000        0.145002         1    ;  uncertainty k = 0.231335
         3         4         5        10     9      180.000000        8.262675         2    ;  uncertainty k = 0.545592
         3         4         5        10     9        0.000000       -0.419472         3    ;  uncertainty k = 0.270707
         3         4         5        10     9      180.000000        1.056487         4    ;  uncertainty k = 0.198075
         4         3         2        28     9        0.000000       -0.040845         1    ;  uncertainty k = 0.400588
         4         3         2        28     9      180.000000        6.658808         2    ;  uncertainty k = 0.489911
         4         3         2        28     9        0.000000        1.385543         3    ;  uncertainty k = 0.262517
         4         3         2        28     9      180.000000        1.584828         4    ;  uncertainty k = 0.102129
         4         5         6         7     9        0.000000        0.130686         1    ;  uncertainty k = 0.571059
         4         5         6         7     9      180.000000       12.691928         2    ;  uncertainty k = 0.457717
         4         5         6         7     9        0.000000        1.650789         3    ;  uncertainty k = 0.218284
         4         5         6         7     9      180.000000        1.217644         4    ;  uncertainty k = 0.199082
         4         5        10         9     9        0.000000       -0.192106         1    ;  uncertainty k = 0.488375
         4         5        10         9     9      180.000000        6.364228         2    ;  uncertainty k = 1.064206
         4         5        10         9     9        0.000000       -0.149802         3    ;  uncertainty k = 0.493886
         4         5        10         9     9      180.000000        1.332085         4    ;  uncertainty k = 0.282391
         5         4         3        29     9        0.000000        0.017002         1    ;  uncertainty k = 0.232298
         5         4         3        29     9      180.000000       10.078213         2    ;  uncertainty k = 0.426276
         5         4         3        29     9        0.000000        1.409654         3    ;  uncertainty k = 0.135477
         5         4         3        29     9      180.000000        1.679426         4    ;  uncertainty k = 0.173527
         5         6         7         8     9        0.000000       -0.123680         1    ;  uncertainty k = 0.300580
         5         6         7         8     9      180.000000       18.587823         2    ;  uncertainty k = 0.279355
         5         6         7         8     9        0.000000        0.898873         3    ;  uncertainty k = 0.360471
         5         6         7         8     9      180.000000        1.384508         4    ;  uncertainty k = 0.398650
         5         6         7        47     9        0.000000       -0.116058         1    ;  uncertainty k = 0.796446
         5         6         7        47     9      180.000000       14.826628         2    ;  uncertainty k = 0.569586
         5         6         7        47     9        0.000000        2.079727         3    ;  uncertainty k = 0.408837
         5         6         7        47     9      180.000000        1.309615         4    ;  uncertainty k = 0.382392
         5        10         1        27     9        0.000000       -0.213305         1    ;  uncertainty k = 0.643463
         5        10         1        27     9      180.000000        7.043147         2    ;  uncertainty k = 0.694615
         5        10         1        27     9        0.000000        1.055973         3    ;  uncertainty k = 0.317290
         5        10         1        27     9      180.000000        1.110586         4    ;  uncertainty k = 0.237970
         5        10         9         8     9        0.000000        0.111981         1    ;  uncertainty k = 1.441414
         5        10         9         8     9      180.000000        4.976791         2    ;  uncertainty k = 1.346553
         5        10         9         8     9        0.000000       -0.204214         3    ;  uncertainty k = 0.467812
         5        10         9         8     9      180.000000        0.800030         4    ;  uncertainty k = 0.332274
         5        10         9        11     9        0.000000       -0.989625         1    ;  uncertainty k = 0.592005
         5        10         9        11     9      180.000000        4.400143         2    ;  uncertainty k = 1.252076
         5        10         9        11     9        0.000000       -0.033608         3    ;  uncertainty k = 0.367347
         5        10         9        11     9      180.000000        0.585080         4    ;  uncertainty k = 0.223747
         6         5         4        30     9        0.000000       -0.148586         1    ;  uncertainty k = 0.225267
         6         5         4        30     9      180.000000        7.735345         2    ;  uncertainty k = 0.299875
         6         5         4        30     9        0.000000        1.130806         3    ;  uncertainty k = 0.372751
         6         5         4        30     9      180.000000        1.235155         4    ;  uncertainty k = 0.172474
         6         5        10         9     9        0.000000        0.032737         1    ;  uncertainty k = 0.458339
         6         5        10         9     9      180.000000        7.456151         2    ;  uncertainty k = 0.601078
         6         5        10         9     9        0.000000        0.132785         3    ;  uncertainty k = 0.265442
         6         5        10         9     9      180.000000        1.430666         4    ;  uncertainty k = 0.220665
         6         7         8         9     9        0.000000       -0.446753         1    ;  uncertainty k = 1.090251
         6         7         8         9     9      180.000000       12.542746         2    ;  uncertainty k = 0.580325
         6         7         8         9     9        0.000000        0.362716         3    ;  uncertainty k = 0.330308
         6         7         8         9     9      180.000000        0.773768         4    ;  uncertainty k = 0.232623
         7         6         5        10     9        0.000000       -0.060345         1    ;  uncertainty k = 0.238094
         7         6         5        10     9      180.000000       12.798123         2    ;  uncertainty k = 0.477240
         7         6         5        10     9        0.000000        0.477240         3    ;  uncertainty k = 0.175481
         7         6         5        10     9      180.000000        1.275072         4    ;  uncertainty k = 0.156316
         7         8         9        10     9        0.000000       -0.454681         1    ;  uncertainty k = 0.660296
         7         8         9        10     9      180.000000       10.901186         2    ;  uncertainty k = 0.153059
         7         8         9        10     9        0.000000        1.022758         3    ;  uncertainty k = 0.481488
         7         8         9        10     9      180.000000        1.652375         4    ;  uncertainty k = 0.579510
         7         8         9        11     9        0.000000        0.004464         1    ;  uncertainty k = 1.159721
         7         8         9        11     9      180.000000       15.004922         2    ;  uncertainty k = 0.305497
         7         8         9        11     9        0.000000        2.514571         3    ;  uncertainty k = 0.612202
         7         8         9        11     9      180.000000        1.851861         4    ;  uncertainty k = 0.456946
         8         9        11        12     9        0.000000        7.056904         1    ;  uncertainty k = 0.305258
         8         9        11        12     9      180.000000       15.035074         2    ;  uncertainty k = 0.230739
         8         9        11        12     9        0.000000        1.062697         3    ;  uncertainty k = 0.347588
         8         9        11        12     9      180.000000       -0.560385         4    ;  uncertainty k = 0.189868
         8         9        11        31     9        0.000000       11.713319         1    ;  uncertainty k = 0.311587
         8         9        11        31     9      180.000000       10.538909         2    ;  uncertainty k = 0.250013
         8         9        11        31     9        0.000000        0.531885         3    ;  uncertainty k = 0.127060
         8         9        11        31     9      180.000000       -0.282286         4    ;  uncertainty k = 0.229852
         9         8         7        47     9        0.000000        0.047828         1    ;  uncertainty k = 0.850288
         9         8         7        47     9      180.000000        9.352221         2    ;  uncertainty k = 0.781193
         9         8         7        47     9        0.000000        1.135199         3    ;  uncertainty k = 0.822565
         9         8         7        47     9      180.000000        0.589474         4    ;  uncertainty k = 0.243212
         9        10         1        27     9        0.000000        0.074610         1    ;  uncertainty k = 0.473974
         9        10         1        27     9      180.000000        7.127221         2    ;  uncertainty k = 0.661359
         9        10         1        27     9        0.000000        1.150460         3    ;  uncertainty k = 0.094541
         9        10         1        27     9      180.000000        0.789784         4    ;  uncertainty k = 0.262934
         9        11        12        13     9        0.000000       -3.611086         1    ;  uncertainty k = 1.050356
         9        11        12        13     9      180.000000        0.380817         2    ;  uncertainty k = 0.097641
         9        11        12        13     9        0.000000        0.417011         3    ;  uncertainty k = 0.146250
         9        11        12        13     9      180.000000        0.397522         4    ;  uncertainty k = 0.138069
         9        11        12        32     9        0.000000       -0.247963         1    ;  uncertainty k = 0.705916
         9        11        12        32     9      180.000000       -0.727990         2    ;  uncertainty k = 0.300032
         9        11        12        32     9        0.000000        0.270500         3    ;  uncertainty k = 0.099067
         9        11        12        32     9      180.000000        0.342801         4    ;  uncertainty k = 0.140346
         9        11        12        33     9        0.000000       -0.247963         1    ;  uncertainty k = 0.705916
         9        11        12        33     9      180.000000       -0.727990         2    ;  uncertainty k = 0.300032
         9        11        12        33     9        0.000000        0.270500         3    ;  uncertainty k = 0.099067
         9        11        12        33     9      180.000000        0.342801         4    ;  uncertainty k = 0.140346
        10         1         2        28     9        0.000000        0.179524         1    ;  uncertainty k = 0.177859
        10         1         2        28     9      180.000000        9.281507         2    ;  uncertainty k = 0.098464
        10         1         2        28     9        0.000000        1.601740         3    ;  uncertainty k = 0.402602
        10         1         2        28     9      180.000000        1.866165         4    ;  uncertainty k = 0.171918
        10         5         4        30     9        0.000000       -0.342588         1    ;  uncertainty k = 0.153571
        10         5         4        30     9      180.000000        4.863673         2    ;  uncertainty k = 0.505216
        10         5         4        30     9        0.000000        1.041571         3    ;  uncertainty k = 0.287682
        10         5         4        30     9      180.000000        1.179501         4    ;  uncertainty k = 0.133560
        10         9        11        12     9        0.000000        6.886303         1    ;  uncertainty k = 0.282740
        10         9        11        12     9      180.000000        9.960425         2    ;  uncertainty k = 0.125368
        10         9        11        12     9        0.000000        0.544336         3    ;  uncertainty k = 0.285446
        10         9        11        12     9      180.000000       -0.271495         4    ;  uncertainty k = 0.134711
        10         9        11        31     9        0.000000        3.959776         1    ;  uncertainty k = 0.850062
        10         9        11        31     9      180.000000        6.216220         2    ;  uncertainty k = 0.277702
        10         9        11        31     9        0.000000        1.390928         3    ;  uncertainty k = 0.221434
        10         9        11        31     9      180.000000       -0.143386         4    ;  uncertainty k = 0.215253
        11        12        13        15     9        0.000000       -5.047310         1    ;  uncertainty k = 1.130051
        11        12        13        15     9      180.000000       -1.203986         2    ;  uncertainty k = 0.127864
        11        12        13        15     9        0.000000        2.144563         3    ;  uncertainty k = 0.220148
        11        12        13        15     9      180.000000       -0.430794         4    ;  uncertainty k = 0.179078
        11        12        13        34     9        0.000000       -0.925068         1    ;  uncertainty k = 0.327482
        11        12        13        34     9      180.000000       -1.136389         2    ;  uncertainty k = 0.334991
        11        12        13        34     9        0.000000        1.371491         3    ;  uncertainty k = 0.074725
        11        12        13        34     9      180.000000       -0.080112         4    ;  uncertainty k = 0.073137
        11        12        13        45     9        0.000000       -0.925068         1    ;  uncertainty k = 0.327482
        11        12        13        45     9      180.000000       -1.136389         2    ;  uncertainty k = 0.334991
        11        12        13        45     9        0.000000        1.371491         3    ;  uncertainty k = 0.074725
        11        12        13        45     9      180.000000       -0.080112         4    ;  uncertainty k = 0.073137
        12        13        15        14     9        0.000000       -1.954416         1    ;  uncertainty k = 0.347512
        12        13        15        14     9      180.000000       -0.390617         2    ;  uncertainty k = 0.310446
        12        13        15        14     9        0.000000        1.309021         3    ;  uncertainty k = 0.170623
        12        13        15        14     9      180.000000       -0.263009         4    ;  uncertainty k = 0.107635
        12        13        15        21     9        0.000000       -1.954416         1    ;  uncertainty k = 0.347512
        12        13        15        21     9      180.000000       -0.390617         2    ;  uncertainty k = 0.310446
        12        13        15        21     9        0.000000        1.309021         3    ;  uncertainty k = 0.170623
        12        13        15        21     9      180.000000       -0.263009         4    ;  uncertainty k = 0.107635
        12        13        15        46     9        0.000000       -1.914226         1    ;  uncertainty k = 0.270914
        12        13        15        46     9      180.000000       -0.588053         2    ;  uncertainty k = 0.275120
        12        13        15        46     9        0.000000        0.801633         3    ;  uncertainty k = 0.204047
        12        13        15        46     9      180.000000       -0.284827         4    ;  uncertainty k = 0.113317
        13        12        11        31     9        0.000000        3.266039         1    ;  uncertainty k = 0.540311
        13        12        11        31     9      180.000000       -2.020115         2    ;  uncertainty k = 0.141134
        13        12        11        31     9        0.000000        0.488890         3    ;  uncertainty k = 0.108725
        13        12        11        31     9      180.000000        0.069788         4    ;  uncertainty k = 0.070081
        13        15        14        16     9        0.000000       -0.534986         1    ;  uncertainty k = 0.210831
        13        15        14        16     9      180.000000        2.156487         2    ;  uncertainty k = 0.165383
        13        15        14        16     9        0.000000        0.481118         3    ;  uncertainty k = 0.129237
        13        15        14        16     9      180.000000        0.389140         4    ;  uncertainty k = 0.043084
        13        15        14        20     9        0.000000       -0.534986         1    ;  uncertainty k = 0.210831
        13        15        14        20     9      180.000000        2.156487         2    ;  uncertainty k = 0.165383
        13        15        14        20     9        0.000000        0.481118         3    ;  uncertainty k = 0.129237
        13        15        14        20     9      180.000000        0.389140         4    ;  uncertainty k = 0.043084
        13        15        21        22     9        0.000000       -0.534986         1    ;  uncertainty k = 0.210831
        13        15        21        22     9      180.000000        2.156487         2    ;  uncertainty k = 0.165383
        13        15        21        22     9        0.000000        0.481118         3    ;  uncertainty k = 0.129237
        13        15        21        22     9      180.000000        0.389140         4    ;  uncertainty k = 0.043084
        13        15        21        26     9        0.000000       -0.534986         1    ;  uncertainty k = 0.210831
        13        15        21        26     9      180.000000        2.156487         2    ;  uncertainty k = 0.165383
        13        15        21        26     9        0.000000        0.481118         3    ;  uncertainty k = 0.129237
        13        15        21        26     9      180.000000        0.389140         4    ;  uncertainty k = 0.043084
        14        15        13        34     9        0.000000        0.387875         1    ;  uncertainty k = 0.275245
        14        15        13        34     9      180.000000       -0.125483         2    ;  uncertainty k = 0.093414
        14        15        13        34     9        0.000000        0.746884         3    ;  uncertainty k = 0.118765
        14        15        13        34     9      180.000000        0.001428         4    ;  uncertainty k = 0.027598
        14        15        13        45     9        0.000000        0.387875         1    ;  uncertainty k = 0.275245
        14        15        13        45     9      180.000000       -0.125483         2    ;  uncertainty k = 0.093414
        14        15        13        45     9        0.000000        0.746884         3    ;  uncertainty k = 0.118765
        14        15        13        45     9      180.000000        0.001428         4    ;  uncertainty k = 0.027598
        14        15        21        22     9        0.000000        0.885880         1    ;  uncertainty k = 0.134899
        14        15        21        22     9      180.000000        1.611483         2    ;  uncertainty k = 0.193425
        14        15        21        22     9        0.000000        0.494536         3    ;  uncertainty k = 0.133670
        14        15        21        22     9      180.000000        0.293059         4    ;  uncertainty k = 0.063421
        14        15        21        26     9        0.000000        0.885880         1    ;  uncertainty k = 0.134899
        14        15        21        26     9      180.000000        1.611483         2    ;  uncertainty k = 0.193425
        14        15        21        26     9        0.000000        0.494536         3    ;  uncertainty k = 0.133670
        14        15        21        26     9      180.000000        0.293059         4    ;  uncertainty k = 0.063421
        14        16        17        18     9        0.000000       -0.132940         1    ;  uncertainty k = 0.148569
        14        16        17        18     9      180.000000       13.741563         2    ;  uncertainty k = 0.229673
        14        16        17        18     9        0.000000       -0.958021         3    ;  uncertainty k = 0.526948
        14        16        17        18     9      180.000000        0.714175         4    ;  uncertainty k = 0.269736
        14        16        17        36     9        0.000000        0.021583         1    ;  uncertainty k = 0.195828
        14        16        17        36     9      180.000000        7.439527         2    ;  uncertainty k = 0.369844
        14        16        17        36     9        0.000000        1.412238         3    ;  uncertainty k = 0.161152
        14        16        17        36     9      180.000000        1.768969         4    ;  uncertainty k = 0.163259
        14        20        19        18     9        0.000000       -0.132940         1    ;  uncertainty k = 0.148569
        14        20        19        18     9      180.000000       13.741563         2    ;  uncertainty k = 0.229673
        14        20        19        18     9        0.000000       -0.958021         3    ;  uncertainty k = 0.526948
        14        20        19        18     9      180.000000        0.714175         4    ;  uncertainty k = 0.269736
        14        20        19        38     9        0.000000        0.021583         1    ;  uncertainty k = 0.195828
        14        20        19        38     9      180.000000        7.439527         2    ;  uncertainty k = 0.369844
        14        20        19        38     9        0.000000        1.412238         3    ;  uncertainty k = 0.161152
        14        20        19        38     9      180.000000        1.768969         4    ;  uncertainty k = 0.163259
        15        13        12        32     9        0.000000       -0.905292         1    ;  uncertainty k = 0.606439
        15        13        12        32     9      180.000000       -0.383020         2    ;  uncertainty k = 0.298610
        15        13        12        32     9        0.000000        0.819345         3    ;  uncertainty k = 0.102523
        15        13        12        32     9      180.000000       -0.395498         4    ;  uncertainty k = 0.095095
        15        13        12        33     9        0.000000       -0.905292         1    ;  uncertainty k = 0.606439
        15        13        12        33     9      180.000000       -0.383020         2    ;  uncertainty k = 0.298610
        15        13        12        33     9        0.000000        0.819345         3    ;  uncertainty k = 0.102523
        15        13        12        33     9      180.000000       -0.395498         4    ;  uncertainty k = 0.095095
        15        14        16        17     9        0.000000        0.228879         1    ;  uncertainty k = 0.288114
        15        14        16        17     9      180.000000        8.954077         2    ;  uncertainty k = 0.571103
        15        14        16        17     9        0.000000        1.508901         3    ;  uncertainty k = 0.415139
        15        14        16        17     9      180.000000        1.889313         4    ;  uncertainty k = 0.191688
        15        14        16        35     9        0.000000       -0.108936         1    ;  uncertainty k = 0.153381
        15        14        16        35     9      180.000000        7.526589         2    ;  uncertainty k = 0.234390
        15        14        16        35     9        0.000000        0.548892         3    ;  uncertainty k = 0.237327
        15        14        16        35     9      180.000000        0.980539         4    ;  uncertainty k = 0.153345
        15        14        20        19     9        0.000000        0.228879         1    ;  uncertainty k = 0.288114
        15        14        20        19     9      180.000000        8.954077         2    ;  uncertainty k = 0.571103
        15        14        20        19     9        0.000000        1.508901         3    ;  uncertainty k = 0.415139
        15        14        20        19     9      180.000000        1.889313         4    ;  uncertainty k = 0.191688
        15        14        20        39     9        0.000000       -0.108936         1    ;  uncertainty k = 0.153381
        15        14        20        39     9      180.000000        7.526589         2    ;  uncertainty k = 0.234390
        15        14        20        39     9        0.000000        0.548892         3    ;  uncertainty k = 0.237327
        15        14        20        39     9      180.000000        0.980539         4    ;  uncertainty k = 0.153345
        15        21        22        23     9        0.000000        0.228879         1    ;  uncertainty k = 0.288114
        15        21        22        23     9      180.000000        8.954077         2    ;  uncertainty k = 0.571103
        15        21        22        23     9        0.000000        1.508901         3    ;  uncertainty k = 0.415139
        15        21        22        23     9      180.000000        1.889313         4    ;  uncertainty k = 0.191688
        15        21        22        40     9        0.000000       -0.108936         1    ;  uncertainty k = 0.153381
        15        21        22        40     9      180.000000        7.526589         2    ;  uncertainty k = 0.234390
        15        21        22        40     9        0.000000        0.548892         3    ;  uncertainty k = 0.237327
        15        21        22        40     9      180.000000        0.980539         4    ;  uncertainty k = 0.153345
        15        21        26        25     9        0.000000        0.228879         1    ;  uncertainty k = 0.288114
        15        21        26        25     9      180.000000        8.954077         2    ;  uncertainty k = 0.571103
        15        21        26        25     9        0.000000        1.508901         3    ;  uncertainty k = 0.415139
        15        21        26        25     9      180.000000        1.889313         4    ;  uncertainty k = 0.191688
        15        21        26        44     9        0.000000       -0.108936         1    ;  uncertainty k = 0.153381
        15        21        26        44     9      180.000000        7.526589         2    ;  uncertainty k = 0.234390
        15        21        26        44     9        0.000000        0.548892         3    ;  uncertainty k = 0.237327
        15        21        26        44     9      180.000000        0.980539         4    ;  uncertainty k = 0.153345
        16        14        15        21     9        0.000000        0.885880         1    ;  uncertainty k = 0.134899
        16        14        15        21     9      180.000000        1.611483         2    ;  uncertainty k = 0.193425
        16        14        15        21     9        0.000000        0.494536         3    ;  uncertainty k = 0.133670
        16        14        15        21     9      180.000000        0.293059         4    ;  uncertainty k = 0.063421
        16        14        15        46     9        0.000000       -0.463632         1    ;  uncertainty k = 0.215493
        16        14        15        46     9      180.000000        2.085711         2    ;  uncertainty k = 0.135321
        16        14        15        46     9        0.000000        0.372587         3    ;  uncertainty k = 0.100086
        16        14        15        46     9      180.000000        0.237631         4    ;  uncertainty k = 0.034108
        16        14        20        19     9        0.000000       -0.201159         1    ;  uncertainty k = 0.106141
        16        14        20        19     9      180.000000       11.587476         2    ;  uncertainty k = 0.422797
        16        14        20        19     9        0.000000       -0.368690         3    ;  uncertainty k = 0.331164
        16        14        20        19     9      180.000000        0.812817         4    ;  uncertainty k = 0.441354
        16        14        20        39     9        0.000000        0.127596         1    ;  uncertainty k = 0.132505
        16        14        20        39     9      180.000000        7.370503         2    ;  uncertainty k = 0.583449
        16        14        20        39     9        0.000000        1.406174         3    ;  uncertainty k = 0.304208
        16        14        20        39     9      180.000000        1.644754         4    ;  uncertainty k = 0.190928
        16        17        18        19     9        0.000000        0.025223         1    ;  uncertainty k = 0.050246
        16        17        18        19     9      180.000000       15.105674         2    ;  uncertainty k = 0.273730
        16        17        18        19     9        0.000000       -1.225365         3    ;  uncertainty k = 0.476648
        16        17        18        19     9      180.000000        0.467570         4    ;  uncertainty k = 0.315583
        16        17        18        37     9        0.000000        0.057833         1    ;  uncertainty k = 0.066324
        16        17        18        37     9      180.000000        7.477742         2    ;  uncertainty k = 0.371189
        16        17        18        37     9        0.000000        1.437882         3    ;  uncertainty k = 0.275019
        16        17        18        37     9      180.000000        1.783101         4    ;  uncertainty k = 0.188352
        17        16        14        20     9        0.000000       -0.201159         1    ;  uncertainty k = 0.106141
        17        16        14        20     9      180.000000       11.587476         2    ;  uncertainty k = 0.422797
        17        16        14        20     9        0.000000       -0.368690         3    ;  uncertainty k = 0.331164
        17        16        14        20     9      180.000000        0.812817         4    ;  uncertainty k = 0.441354
        17        18        19        20     9        0.000000        0.025223         1    ;  uncertainty k = 0.050246
        17        18        19        20     9      180.000000       15.105674         2    ;  uncertainty k = 0.273730
        17        18        19        20     9        0.000000       -1.225365         3    ;  uncertainty k = 0.476648
        17        18        19        20     9      180.000000        0.467570         4    ;  uncertainty k = 0.315583
        17        18        19        38     9        0.000000        0.035953         1    ;  uncertainty k = 0.050449
        17        18        19        38     9      180.000000        7.543484         2    ;  uncertainty k = 0.339425
        17        18        19        38     9        0.000000        1.429341         3    ;  uncertainty k = 0.322375
        17        18        19        38     9      180.000000        1.780447         4    ;  uncertainty k = 0.173522
        18        17        16        35     9        0.000000        0.055864         1    ;  uncertainty k = 0.059930
        18        17        16        35     9      180.000000        7.935085         2    ;  uncertainty k = 0.358754
        18        17        16        35     9        0.000000        1.407710         3    ;  uncertainty k = 0.285179
        18        17        16        35     9      180.000000        1.842929         4    ;  uncertainty k = 0.155502
        18        19        20        39     9        0.000000        0.055864         1    ;  uncertainty k = 0.059930
        18        19        20        39     9      180.000000        7.935085         2    ;  uncertainty k = 0.358754
        18        19        20        39     9        0.000000        1.407710         3    ;  uncertainty k = 0.285179
        18        19        20        39     9      180.000000        1.842929         4    ;  uncertainty k = 0.155502
        19        18        17        36     9        0.000000        0.035953         1    ;  uncertainty k = 0.050449
        19        18        17        36     9      180.000000        7.543484         2    ;  uncertainty k = 0.339425
        19        18        17        36     9        0.000000        1.429341         3    ;  uncertainty k = 0.322375
        19        18        17        36     9      180.000000        1.780447         4    ;  uncertainty k = 0.173522
        20        14        15        21     9        0.000000        0.885880         1    ;  uncertainty k = 0.134899
        20        14        15        21     9      180.000000        1.611483         2    ;  uncertainty k = 0.193425
        20        14        15        21     9        0.000000        0.494536         3    ;  uncertainty k = 0.133670
        20        14        15        21     9      180.000000        0.293059         4    ;  uncertainty k = 0.063421
        20        14        15        46     9        0.000000       -0.463632         1    ;  uncertainty k = 0.215493
        20        14        15        46     9      180.000000        2.085711         2    ;  uncertainty k = 0.135321
        20        14        15        46     9        0.000000        0.372587         3    ;  uncertainty k = 0.100086
        20        14        15        46     9      180.000000        0.237631         4    ;  uncertainty k = 0.034108
        20        14        16        35     9        0.000000        0.127596         1    ;  uncertainty k = 0.132505
        20        14        16        35     9      180.000000        7.370503         2    ;  uncertainty k = 0.583449
        20        14        16        35     9        0.000000        1.406174         3    ;  uncertainty k = 0.304208
        20        14        16        35     9      180.000000        1.644754         4    ;  uncertainty k = 0.190928
        20        19        18        37     9        0.000000        0.057833         1    ;  uncertainty k = 0.066324
        20        19        18        37     9      180.000000        7.477742         2    ;  uncertainty k = 0.371189
        20        19        18        37     9        0.000000        1.437882         3    ;  uncertainty k = 0.275019
        20        19        18        37     9      180.000000        1.783101         4    ;  uncertainty k = 0.188352
        21        15        13        34     9        0.000000        0.387875         1    ;  uncertainty k = 0.275245
        21        15        13        34     9      180.000000       -0.125483         2    ;  uncertainty k = 0.093414
        21        15        13        34     9        0.000000        0.746884         3    ;  uncertainty k = 0.118765
        21        15        13        34     9      180.000000        0.001428         4    ;  uncertainty k = 0.027598
        21        15        13        45     9        0.000000        0.387875         1    ;  uncertainty k = 0.275245
        21        15        13        45     9      180.000000       -0.125483         2    ;  uncertainty k = 0.093414
        21        15        13        45     9        0.000000        0.746884         3    ;  uncertainty k = 0.118765
        21        15        13        45     9      180.000000        0.001428         4    ;  uncertainty k = 0.027598
        21        22        23        24     9        0.000000       -0.132940         1    ;  uncertainty k = 0.148569
        21        22        23        24     9      180.000000       13.741563         2    ;  uncertainty k = 0.229673
        21        22        23        24     9        0.000000       -0.958021         3    ;  uncertainty k = 0.526948
        21        22        23        24     9      180.000000        0.714175         4    ;  uncertainty k = 0.269736
        21        22        23        41     9        0.000000        0.021583         1    ;  uncertainty k = 0.195828
        21        22        23        41     9      180.000000        7.439527         2    ;  uncertainty k = 0.369844
        21        22        23        41     9        0.000000        1.412238         3    ;  uncertainty k = 0.161152
        21        22        23        41     9      180.000000        1.768969         4    ;  uncertainty k = 0.163259
        21        26        25        24     9        0.000000       -0.132940         1    ;  uncertainty k = 0.148569
        21        26        25        24     9      180.000000       13.741563         2    ;  uncertainty k = 0.229673
        21        26        25        24     9        0.000000       -0.958021         3    ;  uncertainty k = 0.526948
        21        26        25        24     9      180.000000        0.714175         4    ;  uncertainty k = 0.269736
        21        26        25        43     9        0.000000        0.021583         1    ;  uncertainty k = 0.195828
        21        26        25        43     9      180.000000        7.439527         2    ;  uncertainty k = 0.369844
        21        26        25        43     9        0.000000        1.412238         3    ;  uncertainty k = 0.161152
        21        26        25        43     9      180.000000        1.768969         4    ;  uncertainty k = 0.163259
        22        21        15        46     9        0.000000       -0.463632         1    ;  uncertainty k = 0.215493
        22        21        15        46     9      180.000000        2.085711         2    ;  uncertainty k = 0.135321
        22        21        15        46     9        0.000000        0.372587         3    ;  uncertainty k = 0.100086
        22        21        15        46     9      180.000000        0.237631         4    ;  uncertainty k = 0.034108
        22        21        26        25     9        0.000000       -0.201159         1    ;  uncertainty k = 0.106141
        22        21        26        25     9      180.000000       11.587476         2    ;  uncertainty k = 0.422797
        22        21        26        25     9        0.000000       -0.368690         3    ;  uncertainty k = 0.331164
        22        21        26        25     9      180.000000        0.812817         4    ;  uncertainty k = 0.441354
        22        21        26        44     9        0.000000        0.127596         1    ;  uncertainty k = 0.132505
        22        21        26        44     9      180.000000        7.370503         2    ;  uncertainty k = 0.583449
        22        21        26        44     9        0.000000        1.406174         3    ;  uncertainty k = 0.304208
        22        21        26        44     9      180.000000        1.644754         4    ;  uncertainty k = 0.190928
        22        23        24        25     9        0.000000        0.025223         1    ;  uncertainty k = 0.050246
        22        23        24        25     9      180.000000       15.105674         2    ;  uncertainty k = 0.273730
        22        23        24        25     9        0.000000       -1.225365         3    ;  uncertainty k = 0.476648
        22        23        24        25     9      180.000000        0.467570         4    ;  uncertainty k = 0.315583
        22        23        24        42     9        0.000000        0.057833         1    ;  uncertainty k = 0.066324
        22        23        24        42     9      180.000000        7.477742         2    ;  uncertainty k = 0.371189
        22        23        24        42     9        0.000000        1.437882         3    ;  uncertainty k = 0.275019
        22        23        24        42     9      180.000000        1.783101         4    ;  uncertainty k = 0.188352
        23        22        21        26     9        0.000000       -0.201159         1    ;  uncertainty k = 0.106141
        23        22        21        26     9      180.000000       11.587476         2    ;  uncertainty k = 0.422797
        23        22        21        26     9        0.000000       -0.368690         3    ;  uncertainty k = 0.331164
        23        22        21        26     9      180.000000        0.812817         4    ;  uncertainty k = 0.441354
        23        24        25        26     9        0.000000        0.025223         1    ;  uncertainty k = 0.050246
        23        24        25        26     9      180.000000       15.105674         2    ;  uncertainty k = 0.273730
        23        24        25        26     9        0.000000       -1.225365         3    ;  uncertainty k = 0.476648
        23        24        25        26     9      180.000000        0.467570         4    ;  uncertainty k = 0.315583
        23        24        25        43     9        0.000000        0.035953         1    ;  uncertainty k = 0.050449
        23        24        25        43     9      180.000000        7.543484         2    ;  uncertainty k = 0.339425
        23        24        25        43     9        0.000000        1.429341         3    ;  uncertainty k = 0.322375
        23        24        25        43     9      180.000000        1.780447         4    ;  uncertainty k = 0.173522
        24        23        22        40     9        0.000000        0.055864         1    ;  uncertainty k = 0.059930
        24        23        22        40     9      180.000000        7.935085         2    ;  uncertainty k = 0.358754
        24        23        22        40     9        0.000000        1.407710         3    ;  uncertainty k = 0.285179
        24        23        22        40     9      180.000000        1.842929         4    ;  uncertainty k = 0.155502
        24        25        26        44     9        0.000000        0.055864         1    ;  uncertainty k = 0.059930
        24        25        26        44     9      180.000000        7.935085         2    ;  uncertainty k = 0.358754
        24        25        26        44     9        0.000000        1.407710         3    ;  uncertainty k = 0.285179
        24        25        26        44     9      180.000000        1.842929         4    ;  uncertainty k = 0.155502
        25        24        23        41     9        0.000000        0.035953         1    ;  uncertainty k = 0.050449
        25        24        23        41     9      180.000000        7.543484         2    ;  uncertainty k = 0.339425
        25        24        23        41     9        0.000000        1.429341         3    ;  uncertainty k = 0.322375
        25        24        23        41     9      180.000000        1.780447         4    ;  uncertainty k = 0.173522
        26        21        15        46     9        0.000000       -0.463632         1    ;  uncertainty k = 0.215493
        26        21        15        46     9      180.000000        2.085711         2    ;  uncertainty k = 0.135321
        26        21        15        46     9        0.000000        0.372587         3    ;  uncertainty k = 0.100086
        26        21        15        46     9      180.000000        0.237631         4    ;  uncertainty k = 0.034108
        26        21        22        40     9        0.000000        0.127596         1    ;  uncertainty k = 0.132505
        26        21        22        40     9      180.000000        7.370503         2    ;  uncertainty k = 0.583449
        26        21        22        40     9        0.000000        1.406174         3    ;  uncertainty k = 0.304208
        26        21        22        40     9      180.000000        1.644754         4    ;  uncertainty k = 0.190928
        26        25        24        42     9        0.000000        0.057833         1    ;  uncertainty k = 0.066324
        26        25        24        42     9      180.000000        7.477742         2    ;  uncertainty k = 0.371189
        26        25        24        42     9        0.000000        1.437882         3    ;  uncertainty k = 0.275019
        26        25        24        42     9      180.000000        1.783101         4    ;  uncertainty k = 0.188352
        27         1         2        28     9        0.000000       -0.121424         1    ;  uncertainty k = 0.340050
        27         1         2        28     9      180.000000        8.509241         2    ;  uncertainty k = 0.426735
        27         1         2        28     9        0.000000       -0.288950         3    ;  uncertainty k = 0.259726
        27         1         2        28     9      180.000000        0.226721         4    ;  uncertainty k = 0.204449
        28         2         3        29     9        0.000000       -0.116737         1    ;  uncertainty k = 0.175174
        28         2         3        29     9      180.000000        7.087300         2    ;  uncertainty k = 0.537041
        28         2         3        29     9        0.000000       -0.251297         3    ;  uncertainty k = 0.303033
        28         2         3        29     9      180.000000        0.091349         4    ;  uncertainty k = 0.159103
        29         3         4        30     9        0.000000       -0.059305         1    ;  uncertainty k = 0.270245
        29         3         4        30     9      180.000000        8.646850         2    ;  uncertainty k = 0.325171
        29         3         4        30     9        0.000000       -0.263609         3    ;  uncertainty k = 0.251579
        29         3         4        30     9      180.000000        0.222094         4    ;  uncertainty k = 0.261098
        31        11        12        32     9        0.000000        1.601644         1    ;  uncertainty k = 0.205325
        31        11        12        32     9      180.000000       -1.641859         2    ;  uncertainty k = 0.163761
        31        11        12        32     9        0.000000        0.206080         3    ;  uncertainty k = 0.093717
        31        11        12        32     9      180.000000        0.124494         4    ;  uncertainty k = 0.037554
        31        11        12        33     9        0.000000        1.601644         1    ;  uncertainty k = 0.205325
        31        11        12        33     9      180.000000       -1.641859         2    ;  uncertainty k = 0.163761
        31        11        12        33     9        0.000000        0.206080         3    ;  uncertainty k = 0.093717
        31        11        12        33     9      180.000000        0.124494         4    ;  uncertainty k = 0.037554
        32        12        13        34     9        0.000000        0.803232         1    ;  uncertainty k = 0.194938
        32        12        13        34     9      180.000000       -0.470606         2    ;  uncertainty k = 0.183160
        32        12        13        34     9        0.000000        0.105181         3    ;  uncertainty k = 0.055793
        32        12        13        34     9      180.000000       -0.051547         4    ;  uncertainty k = 0.066501
        32        12        13        45     9        0.000000        0.803232         1    ;  uncertainty k = 0.194938
        32        12        13        45     9      180.000000       -0.470606         2    ;  uncertainty k = 0.183160
        32        12        13        45     9        0.000000        0.105181         3    ;  uncertainty k = 0.055793
        32        12        13        45     9      180.000000       -0.051547         4    ;  uncertainty k = 0.066501
        33        12        13        34     9        0.000000        0.803232         1    ;  uncertainty k = 0.194938
        33        12        13        34     9      180.000000       -0.470606         2    ;  uncertainty k = 0.183160
        33        12        13        34     9        0.000000        0.105181         3    ;  uncertainty k = 0.055793
        33        12        13        34     9      180.000000       -0.051547         4    ;  uncertainty k = 0.066501
        33        12        13        45     9        0.000000        0.803232         1    ;  uncertainty k = 0.194938
        33        12        13        45     9      180.000000       -0.470606         2    ;  uncertainty k = 0.183160
        33        12        13        45     9        0.000000        0.105181         3    ;  uncertainty k = 0.055793
        33        12        13        45     9      180.000000       -0.051547         4    ;  uncertainty k = 0.066501
        34        13        15        46     9        0.000000        1.015864         1    ;  uncertainty k = 0.263461
        34        13        15        46     9      180.000000       -1.013815         2    ;  uncertainty k = 0.217056
        34        13        15        46     9        0.000000       -0.127608         3    ;  uncertainty k = 0.118452
        34        13        15        46     9      180.000000       -0.070425         4    ;  uncertainty k = 0.037431
        35        16        17        36     9        0.000000       -0.082344         1    ;  uncertainty k = 0.150999
        35        16        17        36     9      180.000000        7.502228         2    ;  uncertainty k = 0.216639
        35        16        17        36     9        0.000000       -0.420659         3    ;  uncertainty k = 0.249789
        35        16        17        36     9      180.000000        0.145489         4    ;  uncertainty k = 0.102701
        36        17        18        37     9        0.000000        0.005408         1    ;  uncertainty k = 0.074111
        36        17        18        37     9      180.000000        7.403319         2    ;  uncertainty k = 0.300291
        36        17        18        37     9        0.000000       -0.404187         3    ;  uncertainty k = 0.267619
        36        17        18        37     9      180.000000        0.063244         4    ;  uncertainty k = 0.147423
        37        18        19        38     9        0.000000        0.005408         1    ;  uncertainty k = 0.074111
        37        18        19        38     9      180.000000        7.403319         2    ;  uncertainty k = 0.300291
        37        18        19        38     9        0.000000       -0.404187         3    ;  uncertainty k = 0.267619
        37        18        19        38     9      180.000000        0.063244         4    ;  uncertainty k = 0.147423
        38        19        20        39     9        0.000000       -0.082344         1    ;  uncertainty k = 0.150999
        38        19        20        39     9      180.000000        7.502228         2    ;  uncertainty k = 0.216639
        38        19        20        39     9        0.000000       -0.420659         3    ;  uncertainty k = 0.249789
        38        19        20        39     9      180.000000        0.145489         4    ;  uncertainty k = 0.102701
        40        22        23        41     9        0.000000       -0.082344         1    ;  uncertainty k = 0.150999
        40        22        23        41     9      180.000000        7.502228         2    ;  uncertainty k = 0.216639
        40        22        23        41     9        0.000000       -0.420659         3    ;  uncertainty k = 0.249789
        40        22        23        41     9      180.000000        0.145489         4    ;  uncertainty k = 0.102701
        41        23        24        42     9        0.000000        0.005408         1    ;  uncertainty k = 0.074111
        41        23        24        42     9      180.000000        7.403319         2    ;  uncertainty k = 0.300291
        41        23        24        42     9        0.000000       -0.404187         3    ;  uncertainty k = 0.267619
        41        23        24        42     9      180.000000        0.063244         4    ;  uncertainty k = 0.147423
        42        24        25        43     9        0.000000        0.005408         1    ;  uncertainty k = 0.074111
        42        24        25        43     9      180.000000        7.403319         2    ;  uncertainty k = 0.300291
        42        24        25        43     9        0.000000       -0.404187         3    ;  uncertainty k = 0.267619
        42        24        25        43     9      180.000000        0.063244         4    ;  uncertainty k = 0.147423
        43        25        26        44     9        0.000000       -0.082344         1    ;  uncertainty k = 0.150999
        43        25        26        44     9      180.000000        7.502229         2    ;  uncertainty k = 0.216639
        43        25        26        44     9        0.000000       -0.420659         3    ;  uncertainty k = 0.249789
        43        25        26        44     9      180.000000        0.145489         4    ;  uncertainty k = 0.102701
        45        13        15        46     9        0.000000        1.015864         1    ;  uncertainty k = 0.263461
        45        13        15        46     9      180.000000       -1.013815         2    ;  uncertainty k = 0.217056
        45        13        15        46     9        0.000000       -0.127608         3    ;  uncertainty k = 0.118452
        45        13        15        46     9      180.000000       -0.070425         4    ;  uncertainty k = 0.037431

[ dihedrals ] ; impropers
;       ai        aj        ak        al funct           phase               k        pn
         1         2        10        27     4      180.000000        5.033860         2    ;  uncertainty k = 0.138435
         1        10        27         2     4      180.000000        5.033860         2    ;  uncertainty k = 0.138435
         1        27         2        10     4      180.000000        5.033860         2    ;  uncertainty k = 0.138435
         2         1         3        28     4      180.000000        3.568475         2    ;  uncertainty k = 0.135525
         2         3        28         1     4      180.000000        3.568475         2    ;  uncertainty k = 0.135525
         2        28         1         3     4      180.000000        3.568475         2    ;  uncertainty k = 0.135525
         3         2         4        29     4      180.000000        5.381866         2    ;  uncertainty k = 0.048075
         3         4        29         2     4      180.000000        5.381866         2    ;  uncertainty k = 0.048075
         3        29         2         4     4      180.000000        5.381866         2    ;  uncertainty k = 0.048075
         4         3         5        30     4      180.000000        3.065334         2    ;  uncertainty k = 0.182227
         4         5        30         3     4      180.000000        3.065334         2    ;  uncertainty k = 0.182227
         4        30         3         5     4      180.000000        3.065334         2    ;  uncertainty k = 0.182227
         5         4         6        10     4      180.000000       19.552715         2    ;  uncertainty k = 0.025406
         5         6        10         4     4      180.000000       19.552715         2    ;  uncertainty k = 0.025406
         5        10         4         6     4      180.000000       19.552715         2    ;  uncertainty k = 0.025406
         7         6         8        47     4      180.000000       23.944708         2    ;  uncertainty k = 0.047583
         7         8        47         6     4      180.000000       23.944708         2    ;  uncertainty k = 0.047583
         7        47         6         8     4      180.000000       23.944708         2    ;  uncertainty k = 0.047583
         9         8        10        11     4      180.000000       34.079844         2    ;  uncertainty k = 0.063728
         9        10        11         8     4      180.000000       34.079844         2    ;  uncertainty k = 0.063728
         9        11         8        10     4      180.000000       34.079844         2    ;  uncertainty k = 0.063728
        10         1         5         9     4      180.000000        5.392155         2    ;  uncertainty k = 0.209133
        10         5         9         1     4      180.000000        5.392155         2    ;  uncertainty k = 0.209133
        10         9         1         5     4      180.000000        5.392155         2    ;  uncertainty k = 0.209133
        14        15        16        20     4      180.000000       13.380619         2    ;  uncertainty k = 0.107818
        14        16        20        15     4      180.000000       13.380619         2    ;  uncertainty k = 0.107818
        14        20        15        16     4      180.000000       13.380619         2    ;  uncertainty k = 0.107818
        16        14        17        35     4      180.000000        4.433088         2    ;  uncertainty k = 0.081412
        16        17        35        14     4      180.000000        4.433088         2    ;  uncertainty k = 0.081412
        16        35        14        17     4      180.000000        4.433088         2    ;  uncertainty k = 0.081412
        17        16        18        36     4      180.000000        4.395053         2    ;  uncertainty k = 0.066478
        17        18        36        16     4      180.000000        4.395053         2    ;  uncertainty k = 0.066478
        17        36        16        18     4      180.000000        4.395053         2    ;  uncertainty k = 0.066478
        18        17        19        37     4      180.000000        4.412111         2    ;  uncertainty k = 0.108727
        18        19        37        17     4      180.000000        4.412111         2    ;  uncertainty k = 0.108727
        18        37        17        19     4      180.000000        4.412111         2    ;  uncertainty k = 0.108727
        19        18        20        38     4      180.000000        4.395053         2    ;  uncertainty k = 0.066478
        19        20        38        18     4      180.000000        4.395053         2    ;  uncertainty k = 0.066478
        19        38        18        20     4      180.000000        4.395053         2    ;  uncertainty k = 0.066478
        20        14        19        39     4      180.000000        4.433088         2    ;  uncertainty k = 0.081412
        20        19        39        14     4      180.000000        4.433088         2    ;  uncertainty k = 0.081412
        20        39        14        19     4      180.000000        4.433088         2    ;  uncertainty k = 0.081412
        21        15        22        26     4      180.000000       13.380619         2    ;  uncertainty k = 0.107818
        21        22        26        15     4      180.000000       13.380619         2    ;  uncertainty k = 0.107818
        21        26        15        22     4      180.000000       13.380619         2    ;  uncertainty k = 0.107818
        22        21        23        40     4      180.000000        4.433088         2    ;  uncertainty k = 0.081412
        22        23        40        21     4      180.000000        4.433088         2    ;  uncertainty k = 0.081412
        22        40        21        23     4      180.000000        4.433088         2    ;  uncertainty k = 0.081412
        23        22        24        41     4      180.000000        4.395053         2    ;  uncertainty k = 0.066478
        23        24        41        22     4      180.000000        4.395053         2    ;  uncertainty k = 0.066478
        23        41        22        24     4      180.000000        4.395053         2    ;  uncertainty k = 0.066478
        24        23        25        42     4      180.000000        4.412111         2    ;  uncertainty k = 0.108727
        24        25        42        23     4      180.000000        4.412111         2    ;  uncertainty k = 0.108727
        24        42        23        25     4      180.000000        4.412111         2    ;  uncertainty k = 0.108727
        25        24        26        43     4      180.000000        4.395053         2    ;  uncertainty k = 0.066478
        25        26        43        24     4      180.000000        4.395053         2    ;  uncertainty k = 0.066478
        25        43        24        26     4      180.000000        4.395053         2    ;  uncertainty k = 0.066478
        26        21        25        44     4      180.000000        4.433089         2    ;  uncertainty k = 0.081412
        26        25        44        21     4      180.000000        4.433089         2    ;  uncertainty k = 0.081412
        26        44        21        25     4      180.000000        4.433089         2    ;  uncertainty k = 0.081412

[ pairs ]
;       ai        aj funct
         1         4     1
         1         6     1
         1         8     1
         1        11     1
         1        29     1
         2         5     1
         2         9     1
         2        30     1
         3         6     1
         3        10     1
         3        27     1
         4         7     1
         4         9     1
         4        28     1
         5         8     1
         5        11     1
         5        27     1
         5        29     1
         5        47     1
         6         9     1
         6        30     1
         7        10     1
         7        11     1
         8        12     1
         8        31     1
         9        13     1
         9        27     1
         9        32     1
         9        33     1
         9        47     1
        10        12     1
        10        28     1
        10        30     1
        10        31     1
        11        15     1
        11        34     1
        11        45     1
        12        14     1
        12        21     1
        12        46     1
        13        16     1
        13        20     1
        13        22     1
        13        26     1
        13        31     1
        14        18     1
        14        22     1
        14        26     1
        14        34     1
        14        36     1
        14        38     1
        14        45     1
        15        17     1
        15        19     1
        15        23     1
        15        25     1
        15        32     1
        15        33     1
        15        35     1
        15        39     1
        15        40     1
        15        44     1
        16        19     1
        16        21     1
        16        37     1
        16        39     1
        16        46     1
        17        20     1
        17        38     1
        18        35     1
        18        39     1
        19        36     1
        20        21     1
        20        35     1
        20        37     1
        20        46     1
        21        24     1
        21        34     1
        21        41     1
        21        43     1
        21        45     1
        22        25     1
        22        42     1
        22        44     1
        22        46     1
        23        26     1
        23        43     1
        24        40     1
        24        44     1
        25        41     1
        26        40     1
        26        42     1
        26        46     1
        27        28     1
        28        29     1
        29        30     1
        31        32     1
        31        33     1
        32        34     1
        32        45     1
        33        34     1
        33        45     1
        34        46     1
        35        36     1
        36        37     1
        37        38     1
        38        39     1
        40        41     1
        41        42     1
        42        43     1
        43        44     1
        45        46     1
