; ITP file created by ByteFF-joint-25, 2025-07-14 11:38:45.942747

[ atomtypes ]
;name           bonded.type        at.num        mass        charge   ptype           sigma         epsilon
 c0bf                                   6      0.0000       0.00000       A     3.31510e-01     4.13341e-01    ;  uncertainty sigma = 0.000011, epsilon = 0.000836
 c1bf                                   6      0.0000       0.00000       A     3.31529e-01     4.13269e-01    ;  uncertainty sigma = 0.000004, epsilon = 0.000688
 c2bf                                   6      0.0000       0.00000       A     3.31523e-01     4.13533e-01    ;  uncertainty sigma = 0.000005, epsilon = 0.000668
 c3bf                                   6      0.0000       0.00000       A     3.31520e-01     4.13261e-01    ;  uncertainty sigma = 0.000004, epsilon = 0.000707
 c4bf                                   6      0.0000       0.00000       A     3.31542e-01     4.13044e-01    ;  uncertainty sigma = 0.000009, epsilon = 0.000695
 n5bf                                   7      0.0000       0.00000       A     3.38346e-01     3.92643e-01    ;  uncertainty sigma = 0.000027, epsilon = 0.002159
 n6bf                                   7      0.0000       0.00000       A     3.38315e-01     3.91762e-01    ;  uncertainty sigma = 0.000044, epsilon = 0.003505
 n7bf                                   7      0.0000       0.00000       A     3.38448e-01     3.93643e-01    ;  uncertainty sigma = 0.000027, epsilon = 0.002370
 c8bf                                   6      0.0000       0.00000       A     3.31509e-01     4.13829e-01    ;  uncertainty sigma = 0.000007, epsilon = 0.001554
 c9bf                                   6      0.0000       0.00000       A     3.31503e-01     4.14362e-01    ;  uncertainty sigma = 0.000018, epsilon = 0.001165
 n10bf                                  7      0.0000       0.00000       A     3.27916e-01     6.45387e-01    ;  uncertainty sigma = 0.000017, epsilon = 0.003304
 c11bf                                  6      0.0000       0.00000       A     3.39773e-01     4.51319e-01    ;  uncertainty sigma = 0.000006, epsilon = 0.001405
 c12bf                                  6      0.0000       0.00000       A     3.39774e-01     4.50838e-01    ;  uncertainty sigma = 0.000018, epsilon = 0.000970
 c13bf                                  6      0.0000       0.00000       A     3.31532e-01     4.13173e-01    ;  uncertainty sigma = 0.000004, epsilon = 0.000808
 c14bf                                  6      0.0000       0.00000       A     3.39785e-01     4.50597e-01    ;  uncertainty sigma = 0.000013, epsilon = 0.000825
 c15bf                                  6      0.0000       0.00000       A     3.31518e-01     4.13394e-01    ;  uncertainty sigma = 0.000003, epsilon = 0.000654
 c16bf                                  6      0.0000       0.00000       A     3.31514e-01     4.13331e-01    ;  uncertainty sigma = 0.000003, epsilon = 0.000476
 c17bf                                  6      0.0000       0.00000       A     3.31519e-01     4.13331e-01    ;  uncertainty sigma = 0.000003, epsilon = 0.000569
 c18bf                                  6      0.0000       0.00000       A     3.31514e-01     4.13331e-01    ;  uncertainty sigma = 0.000003, epsilon = 0.000476
 c19bf                                  6      0.0000       0.00000       A     3.31518e-01     4.13394e-01    ;  uncertainty sigma = 0.000003, epsilon = 0.000654
 c20bf                                  6      0.0000       0.00000       A     3.31532e-01     4.13173e-01    ;  uncertainty sigma = 0.000004, epsilon = 0.000808
 c21bf                                  6      0.0000       0.00000       A     3.31518e-01     4.13394e-01    ;  uncertainty sigma = 0.000003, epsilon = 0.000654
 c22bf                                  6      0.0000       0.00000       A     3.31514e-01     4.13331e-01    ;  uncertainty sigma = 0.000003, epsilon = 0.000476
 c23bf                                  6      0.0000       0.00000       A     3.31519e-01     4.13331e-01    ;  uncertainty sigma = 0.000003, epsilon = 0.000569
 c24bf                                  6      0.0000       0.00000       A     3.31514e-01     4.13331e-01    ;  uncertainty sigma = 0.000003, epsilon = 0.000476
 c25bf                                  6      0.0000       0.00000       A     3.31518e-01     4.13394e-01    ;  uncertainty sigma = 0.000003, epsilon = 0.000654
 h26bf                                  1      0.0000       0.00000       A     2.62558e-01     6.69499e-02    ;  uncertainty sigma = 0.000017, epsilon = 0.000438
 h27bf                                  1      0.0000       0.00000       A     2.62567e-01     6.69735e-02    ;  uncertainty sigma = 0.000010, epsilon = 0.000525
 h28bf                                  1      0.0000       0.00000       A     2.62572e-01     6.69734e-02    ;  uncertainty sigma = 0.000010, epsilon = 0.000548
 h29bf                                  1      0.0000       0.00000       A     2.62566e-01     6.69882e-02    ;  uncertainty sigma = 0.000010, epsilon = 0.000627
 h30bf                                  1      0.0000       0.00000       A     1.10605e-01     4.11549e-02    ;  uncertainty sigma = 0.000108, epsilon = 0.000573
 h31bf                                  1      0.0000       0.00000       A     2.42238e-01     8.67565e-02    ;  uncertainty sigma = 0.000040, epsilon = 0.000454
 h32bf                                  1      0.0000       0.00000       A     2.42238e-01     8.67565e-02    ;  uncertainty sigma = 0.000040, epsilon = 0.000454
 h33bf                                  1      0.0000       0.00000       A     2.60039e-01     8.68308e-02    ;  uncertainty sigma = 0.000021, epsilon = 0.000963
 h34bf                                  1      0.0000       0.00000       A     2.62561e-01     6.70677e-02    ;  uncertainty sigma = 0.000005, epsilon = 0.000548
 h35bf                                  1      0.0000       0.00000       A     2.62558e-01     6.70324e-02    ;  uncertainty sigma = 0.000010, epsilon = 0.000442
 h36bf                                  1      0.0000       0.00000       A     2.62552e-01     6.70646e-02    ;  uncertainty sigma = 0.000011, epsilon = 0.000453
 h37bf                                  1      0.0000       0.00000       A     2.62558e-01     6.70324e-02    ;  uncertainty sigma = 0.000010, epsilon = 0.000442
 h38bf                                  1      0.0000       0.00000       A     2.62561e-01     6.70677e-02    ;  uncertainty sigma = 0.000005, epsilon = 0.000548
 h39bf                                  1      0.0000       0.00000       A     2.62561e-01     6.70677e-02    ;  uncertainty sigma = 0.000005, epsilon = 0.000548
 h40bf                                  1      0.0000       0.00000       A     2.62558e-01     6.70324e-02    ;  uncertainty sigma = 0.000010, epsilon = 0.000442
 h41bf                                  1      0.0000       0.00000       A     2.62552e-01     6.70646e-02    ;  uncertainty sigma = 0.000011, epsilon = 0.000453
 h42bf                                  1      0.0000       0.00000       A     2.62558e-01     6.70324e-02    ;  uncertainty sigma = 0.000010, epsilon = 0.000442
 h43bf                                  1      0.0000       0.00000       A     2.62561e-01     6.70677e-02    ;  uncertainty sigma = 0.000005, epsilon = 0.000548
 h44bf                                  1      0.0000       0.00000       A     2.60039e-01     8.68308e-02    ;  uncertainty sigma = 0.000021, epsilon = 0.000964
 h45bf                                  1      0.0000       0.00000       A     2.60038e-01     8.67242e-02    ;  uncertainty sigma = 0.000036, epsilon = 0.001141

[ moleculetype ]
;name             nrexcl
 MOL                   3

[ atoms ]
;       nr            type      resi   res      atom      cgnr      charge          mass ; qtot
         1            c0bf         1   UNL        c0         1    -0.10105       12.0110 ; qtot   -0.101
         2            c1bf         1   UNL        c1         2    -0.12134       12.0110 ; qtot   -0.222
         3            c2bf         1   UNL        c2         3    -0.10379       12.0110 ; qtot   -0.326
         4            c3bf         1   UNL        c3         4    -0.16210       12.0110 ; qtot   -0.488
         5            c4bf         1   UNL        c4         5     0.37064       12.0110 ; qtot   -0.118
         6            n5bf         1   UNL        n5         6    -0.37671       14.0070 ; qtot   -0.494
         7            n6bf         1   UNL        n6         7     0.08093       14.0070 ; qtot   -0.413
         8            n7bf         1   UNL        n7         8    -0.47638       14.0070 ; qtot   -0.890
         9            c8bf         1   UNL        c8         9     0.66522       12.0110 ; qtot   -0.225
        10            c9bf         1   UNL        c9        10    -0.26058       12.0110 ; qtot   -0.485
        11           n10bf         1   UNL       n10        11    -0.85802       14.0070 ; qtot   -1.343
        12           c11bf         1   UNL       c11        12     0.22056       12.0110 ; qtot   -1.123
        13           c12bf         1   UNL       c12        13    -0.08973       12.0110 ; qtot   -1.212
        14           c13bf         1   UNL       c13        14    -0.08061       12.0110 ; qtot   -1.293
        15           c14bf         1   UNL       c14        15     0.03143       12.0110 ; qtot   -1.262
        16           c15bf         1   UNL       c15        16    -0.12524       12.0110 ; qtot   -1.387
        17           c16bf         1   UNL       c16        17    -0.13055       12.0110 ; qtot   -1.517
        18           c17bf         1   UNL       c17        18    -0.12610       12.0110 ; qtot   -1.643
        19           c18bf         1   UNL       c18        19    -0.13055       12.0110 ; qtot   -1.774
        20           c19bf         1   UNL       c19        20    -0.12524       12.0110 ; qtot   -1.899
        21           c20bf         1   UNL       c20        21    -0.08061       12.0110 ; qtot   -1.980
        22           c21bf         1   UNL       c21        22    -0.12524       12.0110 ; qtot   -2.105
        23           c22bf         1   UNL       c22        23    -0.13055       12.0110 ; qtot   -2.236
        24           c23bf         1   UNL       c23        24    -0.12610       12.0110 ; qtot   -2.362
        25           c24bf         1   UNL       c24        25    -0.13055       12.0110 ; qtot   -2.492
        26           c25bf         1   UNL       c25        26    -0.12524       12.0110 ; qtot   -2.617
        27           h26bf         1   UNL       h26        27     0.13924        1.0080 ; qtot   -2.478
        28           h27bf         1   UNL       h27        28     0.14045        1.0080 ; qtot   -2.338
        29           h28bf         1   UNL       h28        29     0.14097        1.0080 ; qtot   -2.197
        30           h29bf         1   UNL       h29        30     0.16271        1.0080 ; qtot   -2.034
        31           h30bf         1   UNL       h30        31     0.42919        1.0080 ; qtot   -1.605
        32           h31bf         1   UNL       h31        32     0.05791        1.0080 ; qtot   -1.547
        33           h32bf         1   UNL       h32        33     0.05791        1.0080 ; qtot   -1.489
        34           h33bf         1   UNL       h33        34     0.05289        1.0080 ; qtot   -1.436
        35           h34bf         1   UNL       h34        35     0.13447        1.0080 ; qtot   -1.302
        36           h35bf         1   UNL       h35        36     0.13111        1.0080 ; qtot   -1.171
        37           h36bf         1   UNL       h36        37     0.13198        1.0080 ; qtot   -1.039
        38           h37bf         1   UNL       h37        38     0.13111        1.0080 ; qtot   -0.908
        39           h38bf         1   UNL       h38        39     0.13447        1.0080 ; qtot   -0.773
        40           h39bf         1   UNL       h39        40     0.13447        1.0080 ; qtot   -0.639
        41           h40bf         1   UNL       h40        41     0.13111        1.0080 ; qtot   -0.508
        42           h41bf         1   UNL       h41        42     0.13198        1.0080 ; qtot   -0.376
        43           h42bf         1   UNL       h42        43     0.13111        1.0080 ; qtot   -0.244
        44           h43bf         1   UNL       h43        44     0.13447        1.0080 ; qtot   -0.110
        45           h44bf         1   UNL       h44        45     0.05289        1.0080 ; qtot   -0.057
        46           h45bf         1   UNL       h45        46     0.05706        1.0080 ; qtot    0.000

[ bonds ]
;       ai        aj funct               r               k
         1         2     1        0.138279   366657.321875    ;  uncertainty r = 0.000135, k = 2.267568
         1        10     1        0.141101   339530.629590    ;  uncertainty r = 0.000123, k = 5.943496
         1        27     1        0.108652   334676.535840    ;  uncertainty r = 0.000057, k = 1.152431
         2         3     1        0.141910   361712.443701    ;  uncertainty r = 0.000088, k = 1.491572
         2        28     1        0.108769   333790.168311    ;  uncertainty r = 0.000024, k = 1.967809
         3         4     1        0.137743   378513.078125    ;  uncertainty r = 0.000044, k = 2.288309
         3        29     1        0.108755   334424.816553    ;  uncertainty r = 0.000017, k = 0.992116
         4         5     1        0.141516   374008.280957    ;  uncertainty r = 0.000085, k = 8.147127
         4        30     1        0.108712   336887.130176    ;  uncertainty r = 0.000032, k = 1.260987
         5         6     1        0.137626   339648.713184    ;  uncertainty r = 0.000238, k = 16.832657
         5        10     1        0.141856   413873.036621    ;  uncertainty r = 0.000149, k = 11.665024
         6         7     1        0.129181   312654.252051    ;  uncertainty r = 0.000230, k = 31.635559
         7         8     1        0.134736   232008.724609    ;  uncertainty r = 0.000206, k = 23.776512
         8         9     1        0.133756   401775.827002    ;  uncertainty r = 0.000081, k = 33.692397
         9        10     1        0.143233   364374.866113    ;  uncertainty r = 0.000140, k = 18.960384
         9        11     1        0.136975   347865.124902    ;  uncertainty r = 0.000145, k = 16.515698
        11        12     1        0.145634   238834.845020    ;  uncertainty r = 0.000108, k = 3.354902
        11        31     1        0.101632   421793.217871    ;  uncertainty r = 0.000078, k = 4.297683
        12        13     1        0.153097   208983.509155    ;  uncertainty r = 0.000060, k = 4.980933
        12        32     1        0.109474   304956.499023    ;  uncertainty r = 0.000009, k = 1.362855
        12        33     1        0.109474   304956.499023    ;  uncertainty r = 0.000009, k = 1.362855
        13        15     1        0.153855   192184.279272    ;  uncertainty r = 0.000165, k = 5.389775
        13        34     1        0.109652   307791.603369    ;  uncertainty r = 0.000018, k = 2.246574
        13        45     1        0.109652   307791.603369    ;  uncertainty r = 0.000018, k = 2.246574
        14        15     1        0.152115   217308.696191    ;  uncertainty r = 0.000049, k = 4.140483
        14        16     1        0.139960   349011.306982    ;  uncertainty r = 0.000022, k = 1.571218
        14        20     1        0.139960   349011.306982    ;  uncertainty r = 0.000022, k = 1.571218
        15        21     1        0.152115   217308.696191    ;  uncertainty r = 0.000049, k = 4.140483
        15        46     1        0.109706   303299.064014    ;  uncertainty r = 0.000028, k = 1.639346
        16        17     1        0.139665   365413.639111    ;  uncertainty r = 0.000021, k = 1.348944
        16        35     1        0.108873   333879.241748    ;  uncertainty r = 0.000011, k = 0.966611
        17        18     1        0.139594   371584.885889    ;  uncertainty r = 0.000017, k = 1.435995
        17        36     1        0.108862   334107.696729    ;  uncertainty r = 0.000010, k = 1.115154
        18        19     1        0.139594   371584.885889    ;  uncertainty r = 0.000017, k = 1.435995
        18        37     1        0.108851   334582.457129    ;  uncertainty r = 0.000012, k = 0.680668
        19        20     1        0.139665   365413.639111    ;  uncertainty r = 0.000021, k = 1.348944
        19        38     1        0.108862   334107.696729    ;  uncertainty r = 0.000010, k = 1.115154
        20        39     1        0.108873   333879.216211    ;  uncertainty r = 0.000011, k = 0.966611
        21        22     1        0.139960   349011.306982    ;  uncertainty r = 0.000022, k = 1.571218
        21        26     1        0.139960   349011.306982    ;  uncertainty r = 0.000022, k = 1.571218
        22        23     1        0.139665   365413.639111    ;  uncertainty r = 0.000021, k = 1.348944
        22        40     1        0.108873   333879.216211    ;  uncertainty r = 0.000011, k = 0.966611
        23        24     1        0.139594   371584.885889    ;  uncertainty r = 0.000017, k = 1.435995
        23        41     1        0.108862   334107.696729    ;  uncertainty r = 0.000010, k = 1.115154
        24        25     1        0.139594   371584.885889    ;  uncertainty r = 0.000017, k = 1.435995
        24        42     1        0.108851   334582.457129    ;  uncertainty r = 0.000012, k = 0.680668
        25        26     1        0.139665   365413.639111    ;  uncertainty r = 0.000021, k = 1.348944
        25        43     1        0.108862   334107.696729    ;  uncertainty r = 0.000010, k = 1.115154
        26        44     1        0.108873   333879.241748    ;  uncertainty r = 0.000011, k = 0.966610

[ angles ]
;       ai        aj        ak funct           theta             cth
         1         2         3     1      121.310387      536.111263    ;  uncertainty theta = 0.001486, k = 0.047145
         1         2        28     1      119.609825      290.818836    ;  uncertainty theta = 0.001534, k = 0.017052
         1        10         5     1      120.021896      423.325661    ;  uncertainty theta = 0.003084, k = 0.238788
         1        10         9     1      123.237381      392.312757    ;  uncertainty theta = 0.002379, k = 0.235252
         2         1        10     1      120.514450      541.211279    ;  uncertainty theta = 0.001706, k = 0.055706
         2         1        27     1      120.324951      291.834511    ;  uncertainty theta = 0.001866, k = 0.048794
         2         3         4     1      120.011520      538.272085    ;  uncertainty theta = 0.002466, k = 0.063762
         2         3        29     1      120.037643      286.730568    ;  uncertainty theta = 0.001176, k = 0.019782
         3         2        28     1      120.482155      288.674613    ;  uncertainty theta = 0.001266, k = 0.028620
         3         4         5     1      117.820877      548.284420    ;  uncertainty theta = 0.002010, k = 0.103502
         3         4        30     1      122.173645      282.764943    ;  uncertainty theta = 0.000920, k = 0.040058
         4         3        29     1      119.642128      286.203706    ;  uncertainty theta = 0.001128, k = 0.057036
         4         5         6     1      120.633072      497.479171    ;  uncertainty theta = 0.007552, k = 0.205620
         4         5        10     1      117.921677      407.254648    ;  uncertainty theta = 0.001899, k = 0.074377
         5         4        30     1      120.011169      265.788654    ;  uncertainty theta = 0.005213, k = 0.160446
         5         6         7     1      116.855064      563.822857    ;  uncertainty theta = 0.002765, k = 0.192614
         5        10         9     1      115.527328      403.749871    ;  uncertainty theta = 0.007620, k = 0.533221
         6         5        10     1      121.775673      523.859068    ;  uncertainty theta = 0.002946, k = 0.226903
         6         7         8     1      121.533165      874.645677    ;  uncertainty theta = 0.005044, k = 0.223550
         7         8         9     1      119.538109      527.740007    ;  uncertainty theta = 0.010229, k = 0.483313
         8         9        10     1      121.365479      508.602688    ;  uncertainty theta = 0.007074, k = 0.201286
         8         9        11     1      118.728355      686.080683    ;  uncertainty theta = 0.002750, k = 0.087785
         9        11        12     1      115.543686      409.947121    ;  uncertainty theta = 0.004455, k = 0.133834
         9        11        31     1      114.683617      384.113015    ;  uncertainty theta = 0.004421, k = 0.153450
        10         1        27     1      118.667702      268.090904    ;  uncertainty theta = 0.003755, k = 0.113880
        10         9        11     1      122.995628      569.139045    ;  uncertainty theta = 0.005305, k = 0.255260
        11        12        13     1      110.454529      653.801457    ;  uncertainty theta = 0.001544, k = 0.086165
        11        12        32     1      106.428528      448.959908    ;  uncertainty theta = 0.001123, k = 0.052775
        11        12        33     1      106.428528      448.959908    ;  uncertainty theta = 0.001123, k = 0.052775
        12        11        31     1      111.732956      350.601592    ;  uncertainty theta = 0.005741, k = 0.101886
        12        13        15     1      110.016678      527.245800    ;  uncertainty theta = 0.001593, k = 0.078644
        12        13        34     1      106.991653      396.436362    ;  uncertainty theta = 0.001569, k = 0.060346
        12        13        45     1      106.991653      396.436362    ;  uncertainty theta = 0.001569, k = 0.060346
        13        12        32     1      108.312180      400.110131    ;  uncertainty theta = 0.001845, k = 0.041166
        13        12        33     1      108.312180      400.110131    ;  uncertainty theta = 0.001845, k = 0.041166
        13        15        14     1      109.980919      562.510313    ;  uncertainty theta = 0.002928, k = 0.065963
        13        15        21     1      109.980919      562.510313    ;  uncertainty theta = 0.002928, k = 0.065963
        13        15        46     1      105.993080      399.224153    ;  uncertainty theta = 0.002501, k = 0.129594
        14        15        21     1      110.751602      544.157367    ;  uncertainty theta = 0.002410, k = 0.137712
        14        15        46     1      105.784569      410.216665    ;  uncertainty theta = 0.002712, k = 0.056864
        14        16        17     1      121.147766      519.655820    ;  uncertainty theta = 0.001546, k = 0.034116
        14        16        35     1      118.863770      267.004684    ;  uncertainty theta = 0.002034, k = 0.042610
        14        20        19     1      121.147766      519.655820    ;  uncertainty theta = 0.001546, k = 0.034116
        14        20        39     1      118.863770      267.004684    ;  uncertainty theta = 0.002034, k = 0.042610
        15        13        34     1      107.175659      380.953468    ;  uncertainty theta = 0.001065, k = 0.092173
        15        13        45     1      107.175659      380.953468    ;  uncertainty theta = 0.001065, k = 0.092173
        15        14        16     1      120.873497      404.144036    ;  uncertainty theta = 0.002821, k = 0.049020
        15        14        20     1      120.873497      404.144036    ;  uncertainty theta = 0.002821, k = 0.049020
        15        21        22     1      120.873497      404.144036    ;  uncertainty theta = 0.002821, k = 0.049020
        15        21        26     1      120.873497      404.144036    ;  uncertainty theta = 0.002821, k = 0.049020
        16        14        20     1      119.988968      455.458495    ;  uncertainty theta = 0.000985, k = 0.044790
        16        17        18     1      119.610184      513.784264    ;  uncertainty theta = 0.000969, k = 0.021057
        16        17        36     1      120.192970      284.639622    ;  uncertainty theta = 0.001837, k = 0.019742
        17        16        35     1      119.998611      294.785100    ;  uncertainty theta = 0.002588, k = 0.017940
        17        18        19     1      118.025597      524.818849    ;  uncertainty theta = 0.000621, k = 0.036256
        17        18        37     1      120.665054      289.683584    ;  uncertainty theta = 0.001645, k = 0.013838
        18        17        36     1      120.613792      288.542203    ;  uncertainty theta = 0.001920, k = 0.015291
        18        19        20     1      119.610184      513.784264    ;  uncertainty theta = 0.000969, k = 0.021057
        18        19        38     1      120.613792      288.542203    ;  uncertainty theta = 0.001920, k = 0.015291
        19        18        37     1      120.665054      289.683584    ;  uncertainty theta = 0.001645, k = 0.013838
        19        20        39     1      119.998611      294.785100    ;  uncertainty theta = 0.002588, k = 0.017940
        20        19        38     1      120.192970      284.639622    ;  uncertainty theta = 0.001837, k = 0.019742
        21        15        46     1      105.784569      410.216665    ;  uncertainty theta = 0.002712, k = 0.056864
        21        22        23     1      121.147766      519.655820    ;  uncertainty theta = 0.001546, k = 0.034116
        21        22        40     1      118.863770      267.004684    ;  uncertainty theta = 0.002034, k = 0.042610
        21        26        25     1      121.147766      519.655756    ;  uncertainty theta = 0.001546, k = 0.034116
        21        26        44     1      118.863770      267.004684    ;  uncertainty theta = 0.002034, k = 0.042610
        22        21        26     1      119.988953      455.458432    ;  uncertainty theta = 0.000985, k = 0.044790
        22        23        24     1      119.610184      513.784264    ;  uncertainty theta = 0.000969, k = 0.021057
        22        23        41     1      120.192955      284.639622    ;  uncertainty theta = 0.001837, k = 0.019742
        23        22        40     1      119.998611      294.785068    ;  uncertainty theta = 0.002588, k = 0.017940
        23        24        25     1      118.025597      524.818849    ;  uncertainty theta = 0.000621, k = 0.036256
        23        24        42     1      120.665054      289.683584    ;  uncertainty theta = 0.001645, k = 0.013838
        24        23        41     1      120.613785      288.542203    ;  uncertainty theta = 0.001920, k = 0.015291
        24        25        26     1      119.610184      513.784264    ;  uncertainty theta = 0.000969, k = 0.021057
        24        25        43     1      120.613785      288.542203    ;  uncertainty theta = 0.001920, k = 0.015291
        25        24        42     1      120.665054      289.683584    ;  uncertainty theta = 0.001645, k = 0.013838
        25        26        44     1      119.998611      294.785068    ;  uncertainty theta = 0.002588, k = 0.017940
        26        25        43     1      120.192955      284.639622    ;  uncertainty theta = 0.001837, k = 0.019742
        32        12        33     1      105.891296      319.856955    ;  uncertainty theta = 0.001808, k = 0.028298
        34        13        45     1      105.362503      319.323613    ;  uncertainty theta = 0.003294, k = 0.031825

[ dihedrals ] ; propers for gromacs 4.5 or higher, use funct 9
;       ai        aj        ak        al funct           phase               k        pn
         1         2         3         4     9        0.000000       -0.124418         1    ;  uncertainty k = 0.115195
         1         2         3         4     9      180.000000       10.975488         2    ;  uncertainty k = 0.457787
         1         2         3         4     9        0.000000       -0.654493         3    ;  uncertainty k = 0.513341
         1         2         3         4     9      180.000000        0.811247         4    ;  uncertainty k = 0.263997
         1         2         3        29     9        0.000000        0.028570         1    ;  uncertainty k = 0.308475
         1         2         3        29     9      180.000000        6.520976         2    ;  uncertainty k = 0.439635
         1         2         3        29     9        0.000000        1.356348         3    ;  uncertainty k = 0.212642
         1         2         3        29     9      180.000000        1.531795         4    ;  uncertainty k = 0.114114
         1        10         5         4     9        0.000000       -0.096195         1    ;  uncertainty k = 0.283525
         1        10         5         4     9      180.000000        6.589578         2    ;  uncertainty k = 0.784108
         1        10         5         4     9        0.000000        0.035446         3    ;  uncertainty k = 0.285085
         1        10         5         4     9      180.000000        1.375711         4    ;  uncertainty k = 0.212649
         1        10         5         6     9        0.000000        0.063920         1    ;  uncertainty k = 0.563601
         1        10         5         6     9      180.000000        7.143086         2    ;  uncertainty k = 0.890449
         1        10         5         6     9        0.000000        0.289946         3    ;  uncertainty k = 0.326475
         1        10         5         6     9      180.000000        1.514582         4    ;  uncertainty k = 0.220080
         1        10         9         8     9        0.000000        0.162323         1    ;  uncertainty k = 0.807940
         1        10         9         8     9      180.000000        3.820247         2    ;  uncertainty k = 1.225259
         1        10         9         8     9        0.000000        0.144566         3    ;  uncertainty k = 0.437962
         1        10         9         8     9      180.000000        0.566618         4    ;  uncertainty k = 0.270866
         1        10         9        11     9        0.000000       -0.300751         1    ;  uncertainty k = 0.844999
         1        10         9        11     9      180.000000        4.583573         2    ;  uncertainty k = 1.075555
         1        10         9        11     9        0.000000        0.080677         3    ;  uncertainty k = 0.419683
         1        10         9        11     9      180.000000        0.539202         4    ;  uncertainty k = 0.163182
         2         1        10         5     9        0.000000       -0.162354         1    ;  uncertainty k = 0.547795
         2         1        10         5     9      180.000000       10.567465         2    ;  uncertainty k = 0.191295
         2         1        10         5     9        0.000000       -0.698906         3    ;  uncertainty k = 0.371458
         2         1        10         5     9      180.000000        1.045297         4    ;  uncertainty k = 0.265375
         2         1        10         9     9        0.000000        0.000010         1    ;  uncertainty k = 0.846740
         2         1        10         9     9      180.000000        9.630861         2    ;  uncertainty k = 0.812074
         2         1        10         9     9        0.000000        0.296905         3    ;  uncertainty k = 0.297881
         2         1        10         9     9      180.000000        1.305807         4    ;  uncertainty k = 0.232910
         2         3         4         5     9        0.000000       -0.093077         1    ;  uncertainty k = 0.230437
         2         3         4         5     9      180.000000       16.676746         2    ;  uncertainty k = 0.234937
         2         3         4         5     9        0.000000       -0.331289         3    ;  uncertainty k = 0.392657
         2         3         4         5     9      180.000000        0.706298         4    ;  uncertainty k = 0.210965
         2         3         4        30     9        0.000000        0.082634         1    ;  uncertainty k = 0.202871
         2         3         4        30     9      180.000000        9.381713         2    ;  uncertainty k = 0.294504
         2         3         4        30     9        0.000000        1.415494         3    ;  uncertainty k = 0.330420
         2         3         4        30     9      180.000000        2.000207         4    ;  uncertainty k = 0.223333
         3         2         1        10     9        0.000000        0.041060         1    ;  uncertainty k = 0.370382
         3         2         1        10     9      180.000000       15.479345         2    ;  uncertainty k = 0.360510
         3         2         1        10     9        0.000000       -0.500278         3    ;  uncertainty k = 0.379200
         3         2         1        10     9      180.000000        0.871871         4    ;  uncertainty k = 0.303561
         3         2         1        27     9        0.000000        0.093634         1    ;  uncertainty k = 0.138727
         3         2         1        27     9      180.000000        9.083403         2    ;  uncertainty k = 0.242700
         3         2         1        27     9        0.000000        1.425237         3    ;  uncertainty k = 0.289441
         3         2         1        27     9      180.000000        1.965313         4    ;  uncertainty k = 0.199174
         3         4         5         6     9        0.000000        0.340679         1    ;  uncertainty k = 0.706792
         3         4         5         6     9      180.000000        9.234429         2    ;  uncertainty k = 0.577874
         3         4         5         6     9        0.000000        0.704589         3    ;  uncertainty k = 0.360603
         3         4         5         6     9      180.000000        1.361769         4    ;  uncertainty k = 0.257272
         3         4         5        10     9        0.000000        0.116113         1    ;  uncertainty k = 0.297311
         3         4         5        10     9      180.000000        8.696017         2    ;  uncertainty k = 0.533618
         3         4         5        10     9        0.000000       -0.639485         3    ;  uncertainty k = 0.267992
         3         4         5        10     9      180.000000        1.002411         4    ;  uncertainty k = 0.189728
         4         3         2        28     9        0.000000       -0.095607         1    ;  uncertainty k = 0.530171
         4         3         2        28     9      180.000000        6.471822         2    ;  uncertainty k = 0.478680
         4         3         2        28     9        0.000000        1.343391         3    ;  uncertainty k = 0.239359
         4         3         2        28     9      180.000000        1.513677         4    ;  uncertainty k = 0.100494
         4         5         6         7     9        0.000000        1.485121         1    ;  uncertainty k = 2.270369
         4         5         6         7     9      180.000000       10.828666         2    ;  uncertainty k = 0.419371
         4         5         6         7     9        0.000000        1.891993         3    ;  uncertainty k = 0.321498
         4         5         6         7     9      180.000000        0.962413         4    ;  uncertainty k = 0.292911
         4         5        10         9     9        0.000000       -0.446483         1    ;  uncertainty k = 0.486449
         4         5        10         9     9      180.000000        6.680606         2    ;  uncertainty k = 0.962416
         4         5        10         9     9        0.000000       -0.229850         3    ;  uncertainty k = 0.477510
         4         5        10         9     9      180.000000        1.367764         4    ;  uncertainty k = 0.313016
         5         4         3        29     9        0.000000        0.099638         1    ;  uncertainty k = 0.235906
         5         4         3        29     9      180.000000       10.486534         2    ;  uncertainty k = 0.475044
         5         4         3        29     9        0.000000        1.561652         3    ;  uncertainty k = 0.130397
         5         4         3        29     9      180.000000        1.738482         4    ;  uncertainty k = 0.295973
         5         6         7         8     9        0.000000       -4.256311         1    ;  uncertainty k = 1.172881
         5         6         7         8     9      180.000000       35.006920         2    ;  uncertainty k = 0.466234
         5         6         7         8     9        0.000000        0.904106         3    ;  uncertainty k = 1.157995
         5         6         7         8     9      180.000000       -0.121730         4    ;  uncertainty k = 0.852743
         5        10         1        27     9        0.000000       -0.182556         1    ;  uncertainty k = 0.828671
         5        10         1        27     9      180.000000        6.925806         2    ;  uncertainty k = 0.688452
         5        10         1        27     9        0.000000        1.135133         3    ;  uncertainty k = 0.200218
         5        10         1        27     9      180.000000        1.191832         4    ;  uncertainty k = 0.193733
         5        10         9         8     9        0.000000        0.765740         1    ;  uncertainty k = 0.963877
         5        10         9         8     9      180.000000        3.856292         2    ;  uncertainty k = 1.217701
         5        10         9         8     9        0.000000        0.072580         3    ;  uncertainty k = 0.396867
         5        10         9         8     9      180.000000        0.838455         4    ;  uncertainty k = 0.481706
         5        10         9        11     9        0.000000       -0.925100         1    ;  uncertainty k = 0.503265
         5        10         9        11     9      180.000000        4.499435         2    ;  uncertainty k = 1.239684
         5        10         9        11     9        0.000000       -0.031415         3    ;  uncertainty k = 0.415678
         5        10         9        11     9      180.000000        0.544703         4    ;  uncertainty k = 0.256413
         6         5         4        30     9        0.000000       -0.046274         1    ;  uncertainty k = 0.375080
         6         5         4        30     9      180.000000        6.845786         2    ;  uncertainty k = 0.468653
         6         5         4        30     9        0.000000        1.110292         3    ;  uncertainty k = 0.496772
         6         5         4        30     9      180.000000        1.221277         4    ;  uncertainty k = 0.237709
         6         5        10         9     9        0.000000        0.026535         1    ;  uncertainty k = 0.119284
         6         5        10         9     9      180.000000        6.948938         2    ;  uncertainty k = 0.534862
         6         5        10         9     9        0.000000        0.289198         3    ;  uncertainty k = 0.295227
         6         5        10         9     9      180.000000        1.461214         4    ;  uncertainty k = 0.064802
         6         7         8         9     9        0.000000        0.987405         1    ;  uncertainty k = 2.399319
         6         7         8         9     9      180.000000       20.523876         2    ;  uncertainty k = 0.661846
         6         7         8         9     9        0.000000        1.517854         3    ;  uncertainty k = 0.928699
         6         7         8         9     9      180.000000        0.223821         4    ;  uncertainty k = 0.569041
         7         6         5        10     9        0.000000        0.965125         1    ;  uncertainty k = 1.457636
         7         6         5        10     9      180.000000        9.748579         2    ;  uncertainty k = 0.797749
         7         6         5        10     9        0.000000        1.252825         3    ;  uncertainty k = 0.907482
         7         6         5        10     9      180.000000        1.071564         4    ;  uncertainty k = 0.435264
         7         8         9        10     9        0.000000        0.475608         1    ;  uncertainty k = 2.080309
         7         8         9        10     9      180.000000        9.517003         2    ;  uncertainty k = 1.008014
         7         8         9        10     9        0.000000        1.816724         3    ;  uncertainty k = 0.426087
         7         8         9        10     9      180.000000        1.396431         4    ;  uncertainty k = 0.504177
         7         8         9        11     9        0.000000        0.129887         1    ;  uncertainty k = 2.105935
         7         8         9        11     9      180.000000       14.130307         2    ;  uncertainty k = 0.303948
         7         8         9        11     9        0.000000        2.460753         3    ;  uncertainty k = 0.880691
         7         8         9        11     9      180.000000        1.393529         4    ;  uncertainty k = 0.472235
         8         9        11        12     9        0.000000        5.233398         1    ;  uncertainty k = 0.698298
         8         9        11        12     9      180.000000       13.543335         2    ;  uncertainty k = 0.139145
         8         9        11        12     9        0.000000        0.861278         3    ;  uncertainty k = 0.309779
         8         9        11        12     9      180.000000       -0.400666         4    ;  uncertainty k = 0.111184
         8         9        11        31     9        0.000000        8.300664         1    ;  uncertainty k = 0.730133
         8         9        11        31     9      180.000000       11.180447         2    ;  uncertainty k = 0.359086
         8         9        11        31     9        0.000000        0.307288         3    ;  uncertainty k = 0.209889
         8         9        11        31     9      180.000000       -0.378301         4    ;  uncertainty k = 0.302775
         9        10         1        27     9        0.000000        0.022567         1    ;  uncertainty k = 0.919519
         9        10         1        27     9      180.000000        7.197417         2    ;  uncertainty k = 0.645027
         9        10         1        27     9        0.000000        1.142353         3    ;  uncertainty k = 0.161372
         9        10         1        27     9      180.000000        0.846240         4    ;  uncertainty k = 0.279408
         9        11        12        13     9        0.000000       -3.175986         1    ;  uncertainty k = 0.672631
         9        11        12        13     9      180.000000        0.412831         2    ;  uncertainty k = 0.113885
         9        11        12        13     9        0.000000        0.497023         3    ;  uncertainty k = 0.178062
         9        11        12        13     9      180.000000        0.378127         4    ;  uncertainty k = 0.157641
         9        11        12        32     9        0.000000       -0.349026         1    ;  uncertainty k = 0.561983
         9        11        12        32     9      180.000000       -0.909334         2    ;  uncertainty k = 0.329939
         9        11        12        32     9        0.000000        0.288189         3    ;  uncertainty k = 0.096069
         9        11        12        32     9      180.000000        0.337306         4    ;  uncertainty k = 0.137924
         9        11        12        33     9        0.000000       -0.349026         1    ;  uncertainty k = 0.561983
         9        11        12        33     9      180.000000       -0.909334         2    ;  uncertainty k = 0.329939
         9        11        12        33     9        0.000000        0.288189         3    ;  uncertainty k = 0.096069
         9        11        12        33     9      180.000000        0.337306         4    ;  uncertainty k = 0.137924
        10         1         2        28     9        0.000000        0.126250         1    ;  uncertainty k = 0.245474
        10         1         2        28     9      180.000000        9.226308         2    ;  uncertainty k = 0.242199
        10         1         2        28     9        0.000000        1.591090         3    ;  uncertainty k = 0.360808
        10         1         2        28     9      180.000000        1.850343         4    ;  uncertainty k = 0.175082
        10         5         4        30     9        0.000000       -0.460103         1    ;  uncertainty k = 0.411075
        10         5         4        30     9      180.000000        4.832564         2    ;  uncertainty k = 0.550467
        10         5         4        30     9        0.000000        1.077263         3    ;  uncertainty k = 0.131264
        10         5         4        30     9      180.000000        1.155258         4    ;  uncertainty k = 0.135426
        10         9        11        12     9        0.000000        7.137687         1    ;  uncertainty k = 0.422011
        10         9        11        12     9      180.000000        9.950051         2    ;  uncertainty k = 0.142876
        10         9        11        12     9        0.000000        0.621014         3    ;  uncertainty k = 0.230600
        10         9        11        12     9      180.000000       -0.330365         4    ;  uncertainty k = 0.178175
        10         9        11        31     9        0.000000        5.093240         1    ;  uncertainty k = 0.269348
        10         9        11        31     9      180.000000        6.477768         2    ;  uncertainty k = 0.568840
        10         9        11        31     9        0.000000        1.368049         3    ;  uncertainty k = 0.219590
        10         9        11        31     9      180.000000       -0.189057         4    ;  uncertainty k = 0.265166
        11        12        13        15     9        0.000000       -5.138047         1    ;  uncertainty k = 1.192155
        11        12        13        15     9      180.000000       -1.295585         2    ;  uncertainty k = 0.137658
        11        12        13        15     9        0.000000        2.145185         3    ;  uncertainty k = 0.234488
        11        12        13        15     9      180.000000       -0.435407         4    ;  uncertainty k = 0.164608
        11        12        13        34     9        0.000000       -0.914360         1    ;  uncertainty k = 0.326472
        11        12        13        34     9      180.000000       -1.133688         2    ;  uncertainty k = 0.342539
        11        12        13        34     9        0.000000        1.358878         3    ;  uncertainty k = 0.078037
        11        12        13        34     9      180.000000       -0.076445         4    ;  uncertainty k = 0.076669
        11        12        13        45     9        0.000000       -0.914360         1    ;  uncertainty k = 0.326472
        11        12        13        45     9      180.000000       -1.133688         2    ;  uncertainty k = 0.342539
        11        12        13        45     9        0.000000        1.358878         3    ;  uncertainty k = 0.078037
        11        12        13        45     9      180.000000       -0.076445         4    ;  uncertainty k = 0.076669
        12        13        15        14     9        0.000000       -1.946708         1    ;  uncertainty k = 0.353932
        12        13        15        14     9      180.000000       -0.391240         2    ;  uncertainty k = 0.311762
        12        13        15        14     9        0.000000        1.309495         3    ;  uncertainty k = 0.171962
        12        13        15        14     9      180.000000       -0.260769         4    ;  uncertainty k = 0.107246
        12        13        15        21     9        0.000000       -1.946708         1    ;  uncertainty k = 0.353932
        12        13        15        21     9      180.000000       -0.391240         2    ;  uncertainty k = 0.311762
        12        13        15        21     9        0.000000        1.309495         3    ;  uncertainty k = 0.171962
        12        13        15        21     9      180.000000       -0.260769         4    ;  uncertainty k = 0.107246
        12        13        15        46     9        0.000000       -1.926777         1    ;  uncertainty k = 0.285984
        12        13        15        46     9      180.000000       -0.586004         2    ;  uncertainty k = 0.274768
        12        13        15        46     9        0.000000        0.800780         3    ;  uncertainty k = 0.206332
        12        13        15        46     9      180.000000       -0.284847         4    ;  uncertainty k = 0.114495
        13        12        11        31     9        0.000000        3.177475         1    ;  uncertainty k = 0.476784
        13        12        11        31     9      180.000000       -2.039105         2    ;  uncertainty k = 0.106299
        13        12        11        31     9        0.000000        0.504347         3    ;  uncertainty k = 0.103037
        13        12        11        31     9      180.000000        0.066651         4    ;  uncertainty k = 0.061963
        13        15        14        16     9        0.000000       -0.534986         1    ;  uncertainty k = 0.210831
        13        15        14        16     9      180.000000        2.156487         2    ;  uncertainty k = 0.165383
        13        15        14        16     9        0.000000        0.481118         3    ;  uncertainty k = 0.129237
        13        15        14        16     9      180.000000        0.389140         4    ;  uncertainty k = 0.043084
        13        15        14        20     9        0.000000       -0.534986         1    ;  uncertainty k = 0.210831
        13        15        14        20     9      180.000000        2.156487         2    ;  uncertainty k = 0.165383
        13        15        14        20     9        0.000000        0.481118         3    ;  uncertainty k = 0.129237
        13        15        14        20     9      180.000000        0.389140         4    ;  uncertainty k = 0.043084
        13        15        21        22     9        0.000000       -0.534986         1    ;  uncertainty k = 0.210831
        13        15        21        22     9      180.000000        2.156487         2    ;  uncertainty k = 0.165383
        13        15        21        22     9        0.000000        0.481118         3    ;  uncertainty k = 0.129237
        13        15        21        22     9      180.000000        0.389140         4    ;  uncertainty k = 0.043084
        13        15        21        26     9        0.000000       -0.534986         1    ;  uncertainty k = 0.210831
        13        15        21        26     9      180.000000        2.156487         2    ;  uncertainty k = 0.165383
        13        15        21        26     9        0.000000        0.481118         3    ;  uncertainty k = 0.129237
        13        15        21        26     9      180.000000        0.389140         4    ;  uncertainty k = 0.043084
        14        15        13        34     9        0.000000        0.387875         1    ;  uncertainty k = 0.275245
        14        15        13        34     9      180.000000       -0.125483         2    ;  uncertainty k = 0.093414
        14        15        13        34     9        0.000000        0.746884         3    ;  uncertainty k = 0.118765
        14        15        13        34     9      180.000000        0.001428         4    ;  uncertainty k = 0.027598
        14        15        13        45     9        0.000000        0.387875         1    ;  uncertainty k = 0.275245
        14        15        13        45     9      180.000000       -0.125483         2    ;  uncertainty k = 0.093414
        14        15        13        45     9        0.000000        0.746884         3    ;  uncertainty k = 0.118765
        14        15        13        45     9      180.000000        0.001428         4    ;  uncertainty k = 0.027598
        14        15        21        22     9        0.000000        0.885880         1    ;  uncertainty k = 0.134899
        14        15        21        22     9      180.000000        1.611483         2    ;  uncertainty k = 0.193425
        14        15        21        22     9        0.000000        0.494536         3    ;  uncertainty k = 0.133670
        14        15        21        22     9      180.000000        0.293059         4    ;  uncertainty k = 0.063421
        14        15        21        26     9        0.000000        0.885880         1    ;  uncertainty k = 0.134899
        14        15        21        26     9      180.000000        1.611483         2    ;  uncertainty k = 0.193425
        14        15        21        26     9        0.000000        0.494536         3    ;  uncertainty k = 0.133670
        14        15        21        26     9      180.000000        0.293059         4    ;  uncertainty k = 0.063421
        14        16        17        18     9        0.000000       -0.132940         1    ;  uncertainty k = 0.148569
        14        16        17        18     9      180.000000       13.741563         2    ;  uncertainty k = 0.229673
        14        16        17        18     9        0.000000       -0.958021         3    ;  uncertainty k = 0.526948
        14        16        17        18     9      180.000000        0.714175         4    ;  uncertainty k = 0.269736
        14        16        17        36     9        0.000000        0.021583         1    ;  uncertainty k = 0.195828
        14        16        17        36     9      180.000000        7.439527         2    ;  uncertainty k = 0.369844
        14        16        17        36     9        0.000000        1.412238         3    ;  uncertainty k = 0.161152
        14        16        17        36     9      180.000000        1.768969         4    ;  uncertainty k = 0.163259
        14        20        19        18     9        0.000000       -0.132940         1    ;  uncertainty k = 0.148569
        14        20        19        18     9      180.000000       13.741563         2    ;  uncertainty k = 0.229673
        14        20        19        18     9        0.000000       -0.958021         3    ;  uncertainty k = 0.526948
        14        20        19        18     9      180.000000        0.714175         4    ;  uncertainty k = 0.269736
        14        20        19        38     9        0.000000        0.021583         1    ;  uncertainty k = 0.195828
        14        20        19        38     9      180.000000        7.439527         2    ;  uncertainty k = 0.369844
        14        20        19        38     9        0.000000        1.412238         3    ;  uncertainty k = 0.161152
        14        20        19        38     9      180.000000        1.768969         4    ;  uncertainty k = 0.163259
        15        13        12        32     9        0.000000       -0.908489         1    ;  uncertainty k = 0.596645
        15        13        12        32     9      180.000000       -0.370423         2    ;  uncertainty k = 0.291474
        15        13        12        32     9        0.000000        0.820349         3    ;  uncertainty k = 0.104264
        15        13        12        32     9      180.000000       -0.393439         4    ;  uncertainty k = 0.091670
        15        13        12        33     9        0.000000       -0.908489         1    ;  uncertainty k = 0.596645
        15        13        12        33     9      180.000000       -0.370423         2    ;  uncertainty k = 0.291474
        15        13        12        33     9        0.000000        0.820349         3    ;  uncertainty k = 0.104264
        15        13        12        33     9      180.000000       -0.393439         4    ;  uncertainty k = 0.091670
        15        14        16        17     9        0.000000        0.228879         1    ;  uncertainty k = 0.288114
        15        14        16        17     9      180.000000        8.954077         2    ;  uncertainty k = 0.571103
        15        14        16        17     9        0.000000        1.508901         3    ;  uncertainty k = 0.415139
        15        14        16        17     9      180.000000        1.889313         4    ;  uncertainty k = 0.191688
        15        14        16        35     9        0.000000       -0.108936         1    ;  uncertainty k = 0.153381
        15        14        16        35     9      180.000000        7.526589         2    ;  uncertainty k = 0.234390
        15        14        16        35     9        0.000000        0.548892         3    ;  uncertainty k = 0.237327
        15        14        16        35     9      180.000000        0.980539         4    ;  uncertainty k = 0.153345
        15        14        20        19     9        0.000000        0.228879         1    ;  uncertainty k = 0.288114
        15        14        20        19     9      180.000000        8.954077         2    ;  uncertainty k = 0.571103
        15        14        20        19     9        0.000000        1.508901         3    ;  uncertainty k = 0.415139
        15        14        20        19     9      180.000000        1.889313         4    ;  uncertainty k = 0.191688
        15        14        20        39     9        0.000000       -0.108936         1    ;  uncertainty k = 0.153381
        15        14        20        39     9      180.000000        7.526589         2    ;  uncertainty k = 0.234390
        15        14        20        39     9        0.000000        0.548892         3    ;  uncertainty k = 0.237327
        15        14        20        39     9      180.000000        0.980539         4    ;  uncertainty k = 0.153345
        15        21        22        23     9        0.000000        0.228879         1    ;  uncertainty k = 0.288114
        15        21        22        23     9      180.000000        8.954077         2    ;  uncertainty k = 0.571103
        15        21        22        23     9        0.000000        1.508901         3    ;  uncertainty k = 0.415139
        15        21        22        23     9      180.000000        1.889313         4    ;  uncertainty k = 0.191688
        15        21        22        40     9        0.000000       -0.108936         1    ;  uncertainty k = 0.153381
        15        21        22        40     9      180.000000        7.526589         2    ;  uncertainty k = 0.234390
        15        21        22        40     9        0.000000        0.548892         3    ;  uncertainty k = 0.237327
        15        21        22        40     9      180.000000        0.980539         4    ;  uncertainty k = 0.153345
        15        21        26        25     9        0.000000        0.228879         1    ;  uncertainty k = 0.288114
        15        21        26        25     9      180.000000        8.954077         2    ;  uncertainty k = 0.571103
        15        21        26        25     9        0.000000        1.508901         3    ;  uncertainty k = 0.415139
        15        21        26        25     9      180.000000        1.889313         4    ;  uncertainty k = 0.191688
        15        21        26        44     9        0.000000       -0.108936         1    ;  uncertainty k = 0.153381
        15        21        26        44     9      180.000000        7.526589         2    ;  uncertainty k = 0.234390
        15        21        26        44     9        0.000000        0.548892         3    ;  uncertainty k = 0.237327
        15        21        26        44     9      180.000000        0.980539         4    ;  uncertainty k = 0.153345
        16        14        15        21     9        0.000000        0.885880         1    ;  uncertainty k = 0.134899
        16        14        15        21     9      180.000000        1.611483         2    ;  uncertainty k = 0.193425
        16        14        15        21     9        0.000000        0.494536         3    ;  uncertainty k = 0.133670
        16        14        15        21     9      180.000000        0.293059         4    ;  uncertainty k = 0.063421
        16        14        15        46     9        0.000000       -0.463632         1    ;  uncertainty k = 0.215493
        16        14        15        46     9      180.000000        2.085711         2    ;  uncertainty k = 0.135321
        16        14        15        46     9        0.000000        0.372587         3    ;  uncertainty k = 0.100086
        16        14        15        46     9      180.000000        0.237631         4    ;  uncertainty k = 0.034108
        16        14        20        19     9        0.000000       -0.201159         1    ;  uncertainty k = 0.106141
        16        14        20        19     9      180.000000       11.587476         2    ;  uncertainty k = 0.422797
        16        14        20        19     9        0.000000       -0.368690         3    ;  uncertainty k = 0.331164
        16        14        20        19     9      180.000000        0.812817         4    ;  uncertainty k = 0.441354
        16        14        20        39     9        0.000000        0.127596         1    ;  uncertainty k = 0.132505
        16        14        20        39     9      180.000000        7.370503         2    ;  uncertainty k = 0.583449
        16        14        20        39     9        0.000000        1.406174         3    ;  uncertainty k = 0.304208
        16        14        20        39     9      180.000000        1.644754         4    ;  uncertainty k = 0.190928
        16        17        18        19     9        0.000000        0.025223         1    ;  uncertainty k = 0.050246
        16        17        18        19     9      180.000000       15.105674         2    ;  uncertainty k = 0.273730
        16        17        18        19     9        0.000000       -1.225365         3    ;  uncertainty k = 0.476648
        16        17        18        19     9      180.000000        0.467570         4    ;  uncertainty k = 0.315583
        16        17        18        37     9        0.000000        0.057833         1    ;  uncertainty k = 0.066324
        16        17        18        37     9      180.000000        7.477742         2    ;  uncertainty k = 0.371189
        16        17        18        37     9        0.000000        1.437882         3    ;  uncertainty k = 0.275019
        16        17        18        37     9      180.000000        1.783101         4    ;  uncertainty k = 0.188352
        17        16        14        20     9        0.000000       -0.201159         1    ;  uncertainty k = 0.106141
        17        16        14        20     9      180.000000       11.587476         2    ;  uncertainty k = 0.422797
        17        16        14        20     9        0.000000       -0.368690         3    ;  uncertainty k = 0.331164
        17        16        14        20     9      180.000000        0.812817         4    ;  uncertainty k = 0.441354
        17        18        19        20     9        0.000000        0.025223         1    ;  uncertainty k = 0.050246
        17        18        19        20     9      180.000000       15.105674         2    ;  uncertainty k = 0.273730
        17        18        19        20     9        0.000000       -1.225365         3    ;  uncertainty k = 0.476648
        17        18        19        20     9      180.000000        0.467570         4    ;  uncertainty k = 0.315583
        17        18        19        38     9        0.000000        0.035953         1    ;  uncertainty k = 0.050449
        17        18        19        38     9      180.000000        7.543484         2    ;  uncertainty k = 0.339425
        17        18        19        38     9        0.000000        1.429341         3    ;  uncertainty k = 0.322375
        17        18        19        38     9      180.000000        1.780447         4    ;  uncertainty k = 0.173522
        18        17        16        35     9        0.000000        0.055864         1    ;  uncertainty k = 0.059930
        18        17        16        35     9      180.000000        7.935085         2    ;  uncertainty k = 0.358754
        18        17        16        35     9        0.000000        1.407710         3    ;  uncertainty k = 0.285179
        18        17        16        35     9      180.000000        1.842929         4    ;  uncertainty k = 0.155502
        18        19        20        39     9        0.000000        0.055864         1    ;  uncertainty k = 0.059930
        18        19        20        39     9      180.000000        7.935085         2    ;  uncertainty k = 0.358754
        18        19        20        39     9        0.000000        1.407710         3    ;  uncertainty k = 0.285179
        18        19        20        39     9      180.000000        1.842929         4    ;  uncertainty k = 0.155502
        19        18        17        36     9        0.000000        0.035953         1    ;  uncertainty k = 0.050449
        19        18        17        36     9      180.000000        7.543484         2    ;  uncertainty k = 0.339425
        19        18        17        36     9        0.000000        1.429341         3    ;  uncertainty k = 0.322375
        19        18        17        36     9      180.000000        1.780447         4    ;  uncertainty k = 0.173522
        20        14        15        21     9        0.000000        0.885880         1    ;  uncertainty k = 0.134899
        20        14        15        21     9      180.000000        1.611483         2    ;  uncertainty k = 0.193425
        20        14        15        21     9        0.000000        0.494536         3    ;  uncertainty k = 0.133670
        20        14        15        21     9      180.000000        0.293059         4    ;  uncertainty k = 0.063421
        20        14        15        46     9        0.000000       -0.463632         1    ;  uncertainty k = 0.215493
        20        14        15        46     9      180.000000        2.085711         2    ;  uncertainty k = 0.135321
        20        14        15        46     9        0.000000        0.372587         3    ;  uncertainty k = 0.100086
        20        14        15        46     9      180.000000        0.237631         4    ;  uncertainty k = 0.034108
        20        14        16        35     9        0.000000        0.127596         1    ;  uncertainty k = 0.132505
        20        14        16        35     9      180.000000        7.370503         2    ;  uncertainty k = 0.583449
        20        14        16        35     9        0.000000        1.406174         3    ;  uncertainty k = 0.304208
        20        14        16        35     9      180.000000        1.644754         4    ;  uncertainty k = 0.190928
        20        19        18        37     9        0.000000        0.057833         1    ;  uncertainty k = 0.066324
        20        19        18        37     9      180.000000        7.477742         2    ;  uncertainty k = 0.371189
        20        19        18        37     9        0.000000        1.437882         3    ;  uncertainty k = 0.275019
        20        19        18        37     9      180.000000        1.783101         4    ;  uncertainty k = 0.188352
        21        15        13        34     9        0.000000        0.387875         1    ;  uncertainty k = 0.275245
        21        15        13        34     9      180.000000       -0.125483         2    ;  uncertainty k = 0.093414
        21        15        13        34     9        0.000000        0.746884         3    ;  uncertainty k = 0.118765
        21        15        13        34     9      180.000000        0.001428         4    ;  uncertainty k = 0.027598
        21        15        13        45     9        0.000000        0.387875         1    ;  uncertainty k = 0.275245
        21        15        13        45     9      180.000000       -0.125483         2    ;  uncertainty k = 0.093414
        21        15        13        45     9        0.000000        0.746884         3    ;  uncertainty k = 0.118765
        21        15        13        45     9      180.000000        0.001428         4    ;  uncertainty k = 0.027598
        21        22        23        24     9        0.000000       -0.132940         1    ;  uncertainty k = 0.148569
        21        22        23        24     9      180.000000       13.741563         2    ;  uncertainty k = 0.229673
        21        22        23        24     9        0.000000       -0.958021         3    ;  uncertainty k = 0.526948
        21        22        23        24     9      180.000000        0.714175         4    ;  uncertainty k = 0.269736
        21        22        23        41     9        0.000000        0.021583         1    ;  uncertainty k = 0.195828
        21        22        23        41     9      180.000000        7.439527         2    ;  uncertainty k = 0.369844
        21        22        23        41     9        0.000000        1.412238         3    ;  uncertainty k = 0.161152
        21        22        23        41     9      180.000000        1.768969         4    ;  uncertainty k = 0.163259
        21        26        25        24     9        0.000000       -0.132940         1    ;  uncertainty k = 0.148569
        21        26        25        24     9      180.000000       13.741563         2    ;  uncertainty k = 0.229673
        21        26        25        24     9        0.000000       -0.958021         3    ;  uncertainty k = 0.526948
        21        26        25        24     9      180.000000        0.714175         4    ;  uncertainty k = 0.269736
        21        26        25        43     9        0.000000        0.021583         1    ;  uncertainty k = 0.195828
        21        26        25        43     9      180.000000        7.439527         2    ;  uncertainty k = 0.369844
        21        26        25        43     9        0.000000        1.412238         3    ;  uncertainty k = 0.161152
        21        26        25        43     9      180.000000        1.768969         4    ;  uncertainty k = 0.163259
        22        21        15        46     9        0.000000       -0.463632         1    ;  uncertainty k = 0.215493
        22        21        15        46     9      180.000000        2.085711         2    ;  uncertainty k = 0.135321
        22        21        15        46     9        0.000000        0.372587         3    ;  uncertainty k = 0.100086
        22        21        15        46     9      180.000000        0.237631         4    ;  uncertainty k = 0.034108
        22        21        26        25     9        0.000000       -0.201159         1    ;  uncertainty k = 0.106141
        22        21        26        25     9      180.000000       11.587476         2    ;  uncertainty k = 0.422797
        22        21        26        25     9        0.000000       -0.368690         3    ;  uncertainty k = 0.331164
        22        21        26        25     9      180.000000        0.812817         4    ;  uncertainty k = 0.441354
        22        21        26        44     9        0.000000        0.127596         1    ;  uncertainty k = 0.132505
        22        21        26        44     9      180.000000        7.370503         2    ;  uncertainty k = 0.583449
        22        21        26        44     9        0.000000        1.406174         3    ;  uncertainty k = 0.304208
        22        21        26        44     9      180.000000        1.644754         4    ;  uncertainty k = 0.190928
        22        23        24        25     9        0.000000        0.025223         1    ;  uncertainty k = 0.050246
        22        23        24        25     9      180.000000       15.105674         2    ;  uncertainty k = 0.273730
        22        23        24        25     9        0.000000       -1.225365         3    ;  uncertainty k = 0.476648
        22        23        24        25     9      180.000000        0.467570         4    ;  uncertainty k = 0.315583
        22        23        24        42     9        0.000000        0.057833         1    ;  uncertainty k = 0.066324
        22        23        24        42     9      180.000000        7.477742         2    ;  uncertainty k = 0.371189
        22        23        24        42     9        0.000000        1.437882         3    ;  uncertainty k = 0.275019
        22        23        24        42     9      180.000000        1.783101         4    ;  uncertainty k = 0.188352
        23        22        21        26     9        0.000000       -0.201159         1    ;  uncertainty k = 0.106141
        23        22        21        26     9      180.000000       11.587476         2    ;  uncertainty k = 0.422797
        23        22        21        26     9        0.000000       -0.368690         3    ;  uncertainty k = 0.331164
        23        22        21        26     9      180.000000        0.812817         4    ;  uncertainty k = 0.441354
        23        24        25        26     9        0.000000        0.025223         1    ;  uncertainty k = 0.050246
        23        24        25        26     9      180.000000       15.105674         2    ;  uncertainty k = 0.273730
        23        24        25        26     9        0.000000       -1.225365         3    ;  uncertainty k = 0.476648
        23        24        25        26     9      180.000000        0.467570         4    ;  uncertainty k = 0.315583
        23        24        25        43     9        0.000000        0.035953         1    ;  uncertainty k = 0.050449
        23        24        25        43     9      180.000000        7.543484         2    ;  uncertainty k = 0.339425
        23        24        25        43     9        0.000000        1.429341         3    ;  uncertainty k = 0.322375
        23        24        25        43     9      180.000000        1.780447         4    ;  uncertainty k = 0.173522
        24        23        22        40     9        0.000000        0.055864         1    ;  uncertainty k = 0.059930
        24        23        22        40     9      180.000000        7.935085         2    ;  uncertainty k = 0.358754
        24        23        22        40     9        0.000000        1.407710         3    ;  uncertainty k = 0.285179
        24        23        22        40     9      180.000000        1.842929         4    ;  uncertainty k = 0.155502
        24        25        26        44     9        0.000000        0.055864         1    ;  uncertainty k = 0.059930
        24        25        26        44     9      180.000000        7.935085         2    ;  uncertainty k = 0.358754
        24        25        26        44     9        0.000000        1.407710         3    ;  uncertainty k = 0.285179
        24        25        26        44     9      180.000000        1.842929         4    ;  uncertainty k = 0.155502
        25        24        23        41     9        0.000000        0.035953         1    ;  uncertainty k = 0.050449
        25        24        23        41     9      180.000000        7.543484         2    ;  uncertainty k = 0.339425
        25        24        23        41     9        0.000000        1.429341         3    ;  uncertainty k = 0.322375
        25        24        23        41     9      180.000000        1.780447         4    ;  uncertainty k = 0.173522
        26        21        15        46     9        0.000000       -0.463632         1    ;  uncertainty k = 0.215493
        26        21        15        46     9      180.000000        2.085711         2    ;  uncertainty k = 0.135321
        26        21        15        46     9        0.000000        0.372587         3    ;  uncertainty k = 0.100086
        26        21        15        46     9      180.000000        0.237631         4    ;  uncertainty k = 0.034108
        26        21        22        40     9        0.000000        0.127596         1    ;  uncertainty k = 0.132505
        26        21        22        40     9      180.000000        7.370503         2    ;  uncertainty k = 0.583449
        26        21        22        40     9        0.000000        1.406174         3    ;  uncertainty k = 0.304208
        26        21        22        40     9      180.000000        1.644754         4    ;  uncertainty k = 0.190928
        26        25        24        42     9        0.000000        0.057833         1    ;  uncertainty k = 0.066324
        26        25        24        42     9      180.000000        7.477742         2    ;  uncertainty k = 0.371189
        26        25        24        42     9        0.000000        1.437882         3    ;  uncertainty k = 0.275019
        26        25        24        42     9      180.000000        1.783101         4    ;  uncertainty k = 0.188352
        27         1         2        28     9        0.000000       -0.200980         1    ;  uncertainty k = 0.348006
        27         1         2        28     9      180.000000        8.629554         2    ;  uncertainty k = 0.400382
        27         1         2        28     9        0.000000       -0.285705         3    ;  uncertainty k = 0.272950
        27         1         2        28     9      180.000000        0.218604         4    ;  uncertainty k = 0.220112
        28         2         3        29     9        0.000000       -0.134358         1    ;  uncertainty k = 0.327067
        28         2         3        29     9      180.000000        7.083179         2    ;  uncertainty k = 0.478770
        28         2         3        29     9        0.000000       -0.202375         3    ;  uncertainty k = 0.341501
        28         2         3        29     9      180.000000        0.139046         4    ;  uncertainty k = 0.129063
        29         3         4        30     9        0.000000       -0.182162         1    ;  uncertainty k = 0.360563
        29         3         4        30     9      180.000000        8.880783         2    ;  uncertainty k = 0.381512
        29         3         4        30     9        0.000000       -0.147452         3    ;  uncertainty k = 0.278971
        29         3         4        30     9      180.000000        0.290904         4    ;  uncertainty k = 0.296904
        31        11        12        32     9        0.000000        1.668463         1    ;  uncertainty k = 0.227222
        31        11        12        32     9      180.000000       -1.720253         2    ;  uncertainty k = 0.186625
        31        11        12        32     9        0.000000        0.191940         3    ;  uncertainty k = 0.110044
        31        11        12        32     9      180.000000        0.121536         4    ;  uncertainty k = 0.027728
        31        11        12        33     9        0.000000        1.668463         1    ;  uncertainty k = 0.227222
        31        11        12        33     9      180.000000       -1.720253         2    ;  uncertainty k = 0.186625
        31        11        12        33     9        0.000000        0.191940         3    ;  uncertainty k = 0.110044
        31        11        12        33     9      180.000000        0.121536         4    ;  uncertainty k = 0.027728
        32        12        13        34     9        0.000000        0.804752         1    ;  uncertainty k = 0.198355
        32        12        13        34     9      180.000000       -0.471017         2    ;  uncertainty k = 0.178296
        32        12        13        34     9        0.000000        0.101019         3    ;  uncertainty k = 0.062475
        32        12        13        34     9      180.000000       -0.049007         4    ;  uncertainty k = 0.067639
        32        12        13        45     9        0.000000        0.804752         1    ;  uncertainty k = 0.198355
        32        12        13        45     9      180.000000       -0.471017         2    ;  uncertainty k = 0.178296
        32        12        13        45     9        0.000000        0.101019         3    ;  uncertainty k = 0.062475
        32        12        13        45     9      180.000000       -0.049007         4    ;  uncertainty k = 0.067639
        33        12        13        34     9        0.000000        0.804752         1    ;  uncertainty k = 0.198355
        33        12        13        34     9      180.000000       -0.471017         2    ;  uncertainty k = 0.178296
        33        12        13        34     9        0.000000        0.101019         3    ;  uncertainty k = 0.062475
        33        12        13        34     9      180.000000       -0.049007         4    ;  uncertainty k = 0.067639
        33        12        13        45     9        0.000000        0.804752         1    ;  uncertainty k = 0.198355
        33        12        13        45     9      180.000000       -0.471017         2    ;  uncertainty k = 0.178296
        33        12        13        45     9        0.000000        0.101019         3    ;  uncertainty k = 0.062475
        33        12        13        45     9      180.000000       -0.049007         4    ;  uncertainty k = 0.067639
        34        13        15        46     9        0.000000        1.015864         1    ;  uncertainty k = 0.263461
        34        13        15        46     9      180.000000       -1.013815         2    ;  uncertainty k = 0.217056
        34        13        15        46     9        0.000000       -0.127608         3    ;  uncertainty k = 0.118452
        34        13        15        46     9      180.000000       -0.070425         4    ;  uncertainty k = 0.037431
        35        16        17        36     9        0.000000       -0.082344         1    ;  uncertainty k = 0.150999
        35        16        17        36     9      180.000000        7.502228         2    ;  uncertainty k = 0.216639
        35        16        17        36     9        0.000000       -0.420659         3    ;  uncertainty k = 0.249789
        35        16        17        36     9      180.000000        0.145489         4    ;  uncertainty k = 0.102701
        36        17        18        37     9        0.000000        0.005408         1    ;  uncertainty k = 0.074111
        36        17        18        37     9      180.000000        7.403319         2    ;  uncertainty k = 0.300291
        36        17        18        37     9        0.000000       -0.404187         3    ;  uncertainty k = 0.267619
        36        17        18        37     9      180.000000        0.063244         4    ;  uncertainty k = 0.147423
        37        18        19        38     9        0.000000        0.005408         1    ;  uncertainty k = 0.074111
        37        18        19        38     9      180.000000        7.403319         2    ;  uncertainty k = 0.300291
        37        18        19        38     9        0.000000       -0.404187         3    ;  uncertainty k = 0.267619
        37        18        19        38     9      180.000000        0.063244         4    ;  uncertainty k = 0.147423
        38        19        20        39     9        0.000000       -0.082344         1    ;  uncertainty k = 0.150999
        38        19        20        39     9      180.000000        7.502228         2    ;  uncertainty k = 0.216639
        38        19        20        39     9        0.000000       -0.420659         3    ;  uncertainty k = 0.249789
        38        19        20        39     9      180.000000        0.145489         4    ;  uncertainty k = 0.102701
        40        22        23        41     9        0.000000       -0.082344         1    ;  uncertainty k = 0.150999
        40        22        23        41     9      180.000000        7.502228         2    ;  uncertainty k = 0.216639
        40        22        23        41     9        0.000000       -0.420659         3    ;  uncertainty k = 0.249789
        40        22        23        41     9      180.000000        0.145489         4    ;  uncertainty k = 0.102701
        41        23        24        42     9        0.000000        0.005408         1    ;  uncertainty k = 0.074111
        41        23        24        42     9      180.000000        7.403319         2    ;  uncertainty k = 0.300291
        41        23        24        42     9        0.000000       -0.404187         3    ;  uncertainty k = 0.267619
        41        23        24        42     9      180.000000        0.063244         4    ;  uncertainty k = 0.147423
        42        24        25        43     9        0.000000        0.005408         1    ;  uncertainty k = 0.074111
        42        24        25        43     9      180.000000        7.403319         2    ;  uncertainty k = 0.300291
        42        24        25        43     9        0.000000       -0.404187         3    ;  uncertainty k = 0.267619
        42        24        25        43     9      180.000000        0.063244         4    ;  uncertainty k = 0.147423
        43        25        26        44     9        0.000000       -0.082344         1    ;  uncertainty k = 0.150999
        43        25        26        44     9      180.000000        7.502229         2    ;  uncertainty k = 0.216639
        43        25        26        44     9        0.000000       -0.420659         3    ;  uncertainty k = 0.249789
        43        25        26        44     9      180.000000        0.145489         4    ;  uncertainty k = 0.102701
        45        13        15        46     9        0.000000        1.015864         1    ;  uncertainty k = 0.263461
        45        13        15        46     9      180.000000       -1.013815         2    ;  uncertainty k = 0.217056
        45        13        15        46     9        0.000000       -0.127608         3    ;  uncertainty k = 0.118452
        45        13        15        46     9      180.000000       -0.070425         4    ;  uncertainty k = 0.037431

[ dihedrals ] ; impropers
;       ai        aj        ak        al funct           phase               k        pn
         1         2        10        27     4      180.000000        4.825008         2    ;  uncertainty k = 0.056211
         1        10        27         2     4      180.000000        4.825008         2    ;  uncertainty k = 0.056211
         1        27         2        10     4      180.000000        4.825008         2    ;  uncertainty k = 0.056211
         2         1         3        28     4      180.000000        4.205167         2    ;  uncertainty k = 0.118953
         2         3        28         1     4      180.000000        4.205167         2    ;  uncertainty k = 0.118953
         2        28         1         3     4      180.000000        4.205167         2    ;  uncertainty k = 0.118953
         3         2         4        29     4      180.000000        5.329872         2    ;  uncertainty k = 0.141246
         3         4        29         2     4      180.000000        5.329872         2    ;  uncertainty k = 0.141246
         3        29         2         4     4      180.000000        5.329872         2    ;  uncertainty k = 0.141246
         4         3         5        30     4      180.000000        4.342507         2    ;  uncertainty k = 0.193477
         4         5        30         3     4      180.000000        4.342507         2    ;  uncertainty k = 0.193477
         4        30         3         5     4      180.000000        4.342507         2    ;  uncertainty k = 0.193477
         5         4         6        10     4      180.000000       17.214059         2    ;  uncertainty k = 0.110682
         5         6        10         4     4      180.000000       17.214059         2    ;  uncertainty k = 0.110682
         5        10         4         6     4      180.000000       17.214059         2    ;  uncertainty k = 0.110682
         9         8        10        11     4      180.000000       34.491548         2    ;  uncertainty k = 0.056543
         9        10        11         8     4      180.000000       34.491548         2    ;  uncertainty k = 0.056543
         9        11         8        10     4      180.000000       34.491548         2    ;  uncertainty k = 0.056543
        10         1         5         9     4      180.000000        7.077900         2    ;  uncertainty k = 0.331233
        10         5         9         1     4      180.000000        7.077900         2    ;  uncertainty k = 0.331233
        10         9         1         5     4      180.000000        7.077900         2    ;  uncertainty k = 0.331233
        14        15        16        20     4      180.000000       13.380619         2    ;  uncertainty k = 0.107818
        14        16        20        15     4      180.000000       13.380619         2    ;  uncertainty k = 0.107818
        14        20        15        16     4      180.000000       13.380619         2    ;  uncertainty k = 0.107818
        16        14        17        35     4      180.000000        4.433088         2    ;  uncertainty k = 0.081412
        16        17        35        14     4      180.000000        4.433088         2    ;  uncertainty k = 0.081412
        16        35        14        17     4      180.000000        4.433088         2    ;  uncertainty k = 0.081412
        17        16        18        36     4      180.000000        4.395053         2    ;  uncertainty k = 0.066478
        17        18        36        16     4      180.000000        4.395053         2    ;  uncertainty k = 0.066478
        17        36        16        18     4      180.000000        4.395053         2    ;  uncertainty k = 0.066478
        18        17        19        37     4      180.000000        4.412111         2    ;  uncertainty k = 0.108727
        18        19        37        17     4      180.000000        4.412111         2    ;  uncertainty k = 0.108727
        18        37        17        19     4      180.000000        4.412111         2    ;  uncertainty k = 0.108727
        19        18        20        38     4      180.000000        4.395053         2    ;  uncertainty k = 0.066478
        19        20        38        18     4      180.000000        4.395053         2    ;  uncertainty k = 0.066478
        19        38        18        20     4      180.000000        4.395053         2    ;  uncertainty k = 0.066478
        20        14        19        39     4      180.000000        4.433088         2    ;  uncertainty k = 0.081412
        20        19        39        14     4      180.000000        4.433088         2    ;  uncertainty k = 0.081412
        20        39        14        19     4      180.000000        4.433088         2    ;  uncertainty k = 0.081412
        21        15        22        26     4      180.000000       13.380619         2    ;  uncertainty k = 0.107818
        21        22        26        15     4      180.000000       13.380619         2    ;  uncertainty k = 0.107818
        21        26        15        22     4      180.000000       13.380619         2    ;  uncertainty k = 0.107818
        22        21        23        40     4      180.000000        4.433088         2    ;  uncertainty k = 0.081412
        22        23        40        21     4      180.000000        4.433088         2    ;  uncertainty k = 0.081412
        22        40        21        23     4      180.000000        4.433088         2    ;  uncertainty k = 0.081412
        23        22        24        41     4      180.000000        4.395053         2    ;  uncertainty k = 0.066478
        23        24        41        22     4      180.000000        4.395053         2    ;  uncertainty k = 0.066478
        23        41        22        24     4      180.000000        4.395053         2    ;  uncertainty k = 0.066478
        24        23        25        42     4      180.000000        4.412111         2    ;  uncertainty k = 0.108727
        24        25        42        23     4      180.000000        4.412111         2    ;  uncertainty k = 0.108727
        24        42        23        25     4      180.000000        4.412111         2    ;  uncertainty k = 0.108727
        25        24        26        43     4      180.000000        4.395053         2    ;  uncertainty k = 0.066478
        25        26        43        24     4      180.000000        4.395053         2    ;  uncertainty k = 0.066478
        25        43        24        26     4      180.000000        4.395053         2    ;  uncertainty k = 0.066478
        26        21        25        44     4      180.000000        4.433088         2    ;  uncertainty k = 0.081412
        26        25        44        21     4      180.000000        4.433088         2    ;  uncertainty k = 0.081412
        26        44        21        25     4      180.000000        4.433088         2    ;  uncertainty k = 0.081412

[ pairs ]
;       ai        aj funct
         1         4     1
         1         6     1
         1         8     1
         1        11     1
         1        29     1
         2         5     1
         2         9     1
         2        30     1
         3         6     1
         3        10     1
         3        27     1
         4         7     1
         4         9     1
         4        28     1
         5         8     1
         5        11     1
         5        27     1
         5        29     1
         6         9     1
         6        30     1
         7        10     1
         7        11     1
         8        12     1
         8        31     1
         9        13     1
         9        27     1
         9        32     1
         9        33     1
        10        12     1
        10        28     1
        10        30     1
        10        31     1
        11        15     1
        11        34     1
        11        45     1
        12        14     1
        12        21     1
        12        46     1
        13        16     1
        13        20     1
        13        22     1
        13        26     1
        13        31     1
        14        18     1
        14        22     1
        14        26     1
        14        34     1
        14        36     1
        14        38     1
        14        45     1
        15        17     1
        15        19     1
        15        23     1
        15        25     1
        15        32     1
        15        33     1
        15        35     1
        15        39     1
        15        40     1
        15        44     1
        16        19     1
        16        21     1
        16        37     1
        16        39     1
        16        46     1
        17        20     1
        17        38     1
        18        35     1
        18        39     1
        19        36     1
        20        21     1
        20        35     1
        20        37     1
        20        46     1
        21        24     1
        21        34     1
        21        41     1
        21        43     1
        21        45     1
        22        25     1
        22        42     1
        22        44     1
        22        46     1
        23        26     1
        23        43     1
        24        40     1
        24        44     1
        25        41     1
        26        40     1
        26        42     1
        26        46     1
        27        28     1
        28        29     1
        29        30     1
        31        32     1
        31        33     1
        32        34     1
        32        45     1
        33        34     1
        33        45     1
        34        46     1
        35        36     1
        36        37     1
        37        38     1
        38        39     1
        40        41     1
        41        42     1
        42        43     1
        43        44     1
        45        46     1
