; ITP file created by ByteFF-joint-25, 2025-07-14 11:38:46.313707

[ atomtypes ]
;name           bonded.type        at.num        mass        charge   ptype           sigma         epsilon
 c0bf                                   6      0.0000       0.00000       A     3.31511e-01     4.13342e-01    ;  uncertainty sigma = 0.000007, epsilon = 0.000941
 c1bf                                   6      0.0000       0.00000       A     3.31527e-01     4.13258e-01    ;  uncertainty sigma = 0.000004, epsilon = 0.000653
 c2bf                                   6      0.0000       0.00000       A     3.31523e-01     4.13533e-01    ;  uncertainty sigma = 0.000005, epsilon = 0.000668
 c3bf                                   6      0.0000       0.00000       A     3.31531e-01     4.13308e-01    ;  uncertainty sigma = 0.000003, epsilon = 0.000600
 c4bf                                   6      0.0000       0.00000       A     3.31532e-01     4.13203e-01    ;  uncertainty sigma = 0.000017, epsilon = 0.000625
 n5bf                                   7      0.0000       0.00000       A     3.38375e-01     3.92486e-01    ;  uncertainty sigma = 0.000029, epsilon = 0.000704
 n6bf                                   7      0.0000       0.00000       A     3.38423e-01     3.93286e-01    ;  uncertainty sigma = 0.000021, epsilon = 0.000806
 c7bf                                   6      0.0000       0.00000       A     3.31528e-01     4.13407e-01    ;  uncertainty sigma = 0.000024, epsilon = 0.001396
 c8bf                                   6      0.0000       0.00000       A     3.31538e-01     4.12233e-01    ;  uncertainty sigma = 0.000026, epsilon = 0.001000
 c9bf                                   6      0.0000       0.00000       A     3.31485e-01     4.13929e-01    ;  uncertainty sigma = 0.000018, epsilon = 0.000800
 n10bf                                  7      0.0000       0.00000       A     3.27914e-01     6.44081e-01    ;  uncertainty sigma = 0.000030, epsilon = 0.002197
 c11bf                                  6      0.0000       0.00000       A     3.39775e-01     4.51161e-01    ;  uncertainty sigma = 0.000006, epsilon = 0.001108
 c12bf                                  6      0.0000       0.00000       A     3.39772e-01     4.50853e-01    ;  uncertainty sigma = 0.000016, epsilon = 0.000919
 c13bf                                  6      0.0000       0.00000       A     3.31532e-01     4.13173e-01    ;  uncertainty sigma = 0.000004, epsilon = 0.000808
 c14bf                                  6      0.0000       0.00000       A     3.39785e-01     4.50597e-01    ;  uncertainty sigma = 0.000013, epsilon = 0.000825
 c15bf                                  6      0.0000       0.00000       A     3.31518e-01     4.13394e-01    ;  uncertainty sigma = 0.000003, epsilon = 0.000654
 c16bf                                  6      0.0000       0.00000       A     3.31514e-01     4.13331e-01    ;  uncertainty sigma = 0.000003, epsilon = 0.000476
 c17bf                                  6      0.0000       0.00000       A     3.31519e-01     4.13331e-01    ;  uncertainty sigma = 0.000003, epsilon = 0.000569
 c18bf                                  6      0.0000       0.00000       A     3.31514e-01     4.13331e-01    ;  uncertainty sigma = 0.000003, epsilon = 0.000476
 c19bf                                  6      0.0000       0.00000       A     3.31518e-01     4.13394e-01    ;  uncertainty sigma = 0.000003, epsilon = 0.000654
 c20bf                                  6      0.0000       0.00000       A     3.31532e-01     4.13173e-01    ;  uncertainty sigma = 0.000004, epsilon = 0.000808
 c21bf                                  6      0.0000       0.00000       A     3.31518e-01     4.13394e-01    ;  uncertainty sigma = 0.000003, epsilon = 0.000654
 c22bf                                  6      0.0000       0.00000       A     3.31514e-01     4.13331e-01    ;  uncertainty sigma = 0.000003, epsilon = 0.000476
 c23bf                                  6      0.0000       0.00000       A     3.31519e-01     4.13331e-01    ;  uncertainty sigma = 0.000003, epsilon = 0.000569
 c24bf                                  6      0.0000       0.00000       A     3.31514e-01     4.13331e-01    ;  uncertainty sigma = 0.000003, epsilon = 0.000476
 c25bf                                  6      0.0000       0.00000       A     3.31518e-01     4.13394e-01    ;  uncertainty sigma = 0.000003, epsilon = 0.000654
 h26bf                                  1      0.0000       0.00000       A     2.62556e-01     6.70039e-02    ;  uncertainty sigma = 0.000018, epsilon = 0.000388
 h27bf                                  1      0.0000       0.00000       A     2.62567e-01     6.69735e-02    ;  uncertainty sigma = 0.000010, epsilon = 0.000525
 h28bf                                  1      0.0000       0.00000       A     2.62572e-01     6.69734e-02    ;  uncertainty sigma = 0.000010, epsilon = 0.000548
 h29bf                                  1      0.0000       0.00000       A     2.62566e-01     6.69882e-02    ;  uncertainty sigma = 0.000010, epsilon = 0.000627
 h30bf                                  1      0.0000       0.00000       A     1.10671e-01     4.13595e-02    ;  uncertainty sigma = 0.000080, epsilon = 0.000936
 h31bf                                  1      0.0000       0.00000       A     2.42217e-01     8.67258e-02    ;  uncertainty sigma = 0.000039, epsilon = 0.000451
 h32bf                                  1      0.0000       0.00000       A     2.42217e-01     8.67258e-02    ;  uncertainty sigma = 0.000039, epsilon = 0.000451
 h33bf                                  1      0.0000       0.00000       A     2.60039e-01     8.68308e-02    ;  uncertainty sigma = 0.000021, epsilon = 0.000963
 h34bf                                  1      0.0000       0.00000       A     2.62561e-01     6.70677e-02    ;  uncertainty sigma = 0.000005, epsilon = 0.000548
 h35bf                                  1      0.0000       0.00000       A     2.62558e-01     6.70324e-02    ;  uncertainty sigma = 0.000010, epsilon = 0.000442
 h36bf                                  1      0.0000       0.00000       A     2.62552e-01     6.70646e-02    ;  uncertainty sigma = 0.000011, epsilon = 0.000453
 h37bf                                  1      0.0000       0.00000       A     2.62558e-01     6.70324e-02    ;  uncertainty sigma = 0.000010, epsilon = 0.000442
 h38bf                                  1      0.0000       0.00000       A     2.62561e-01     6.70677e-02    ;  uncertainty sigma = 0.000005, epsilon = 0.000548
 h39bf                                  1      0.0000       0.00000       A     2.62561e-01     6.70677e-02    ;  uncertainty sigma = 0.000005, epsilon = 0.000548
 h40bf                                  1      0.0000       0.00000       A     2.62558e-01     6.70324e-02    ;  uncertainty sigma = 0.000010, epsilon = 0.000442
 h41bf                                  1      0.0000       0.00000       A     2.62552e-01     6.70646e-02    ;  uncertainty sigma = 0.000011, epsilon = 0.000453
 h42bf                                  1      0.0000       0.00000       A     2.62558e-01     6.70324e-02    ;  uncertainty sigma = 0.000010, epsilon = 0.000442
 h43bf                                  1      0.0000       0.00000       A     2.62561e-01     6.70677e-02    ;  uncertainty sigma = 0.000005, epsilon = 0.000548
 h44bf                                  1      0.0000       0.00000       A     2.60039e-01     8.68308e-02    ;  uncertainty sigma = 0.000021, epsilon = 0.000964
 h45bf                                  1      0.0000       0.00000       A     2.60038e-01     8.67242e-02    ;  uncertainty sigma = 0.000036, epsilon = 0.001141
 h46bf                                  1      0.0000       0.00000       A     2.53585e-01     6.75544e-02    ;  uncertainty sigma = 0.000063, epsilon = 0.000805

[ moleculetype ]
;name             nrexcl
 MOL                   3

[ atoms ]
;       nr            type      resi   res      atom      cgnr      charge          mass ; qtot
         1            c0bf         1   UNL        c0         1    -0.11793       12.0110 ; qtot   -0.118
         2            c1bf         1   UNL        c1         2    -0.11553       12.0110 ; qtot   -0.233
         3            c2bf         1   UNL        c2         3    -0.12249       12.0110 ; qtot   -0.356
         4            c3bf         1   UNL        c3         4    -0.15783       12.0110 ; qtot   -0.514
         5            c4bf         1   UNL        c4         5     0.35375       12.0110 ; qtot   -0.160
         6            n5bf         1   UNL        n5         6    -0.32405       14.0070 ; qtot   -0.484
         7            n6bf         1   UNL        n6         7    -0.27597       14.0070 ; qtot   -0.760
         8            c7bf         1   UNL        c7         8     0.24443       12.0110 ; qtot   -0.516
         9            c8bf         1   UNL        c8         9     0.11557       12.0110 ; qtot   -0.400
        10            c9bf         1   UNL        c9        10    -0.16140       12.0110 ; qtot   -0.561
        11           n10bf         1   UNL       n10        11    -0.74786       14.0070 ; qtot   -1.309
        12           c11bf         1   UNL       c11        12     0.20236       12.0110 ; qtot   -1.107
        13           c12bf         1   UNL       c12        13    -0.08741       12.0110 ; qtot   -1.194
        14           c13bf         1   UNL       c13        14    -0.08061       12.0110 ; qtot   -1.275
        15           c14bf         1   UNL       c14        15     0.03162       12.0110 ; qtot   -1.243
        16           c15bf         1   UNL       c15        16    -0.12524       12.0110 ; qtot   -1.369
        17           c16bf         1   UNL       c16        17    -0.13055       12.0110 ; qtot   -1.499
        18           c17bf         1   UNL       c17        18    -0.12610       12.0110 ; qtot   -1.625
        19           c18bf         1   UNL       c18        19    -0.13055       12.0110 ; qtot   -1.756
        20           c19bf         1   UNL       c19        20    -0.12524       12.0110 ; qtot   -1.881
        21           c20bf         1   UNL       c20        21    -0.08061       12.0110 ; qtot   -1.962
        22           c21bf         1   UNL       c21        22    -0.12524       12.0110 ; qtot   -2.087
        23           c22bf         1   UNL       c22        23    -0.13055       12.0110 ; qtot   -2.217
        24           c23bf         1   UNL       c23        24    -0.12610       12.0110 ; qtot   -2.344
        25           c24bf         1   UNL       c24        25    -0.13055       12.0110 ; qtot   -2.474
        26           c25bf         1   UNL       c25        26    -0.12524       12.0110 ; qtot   -2.599
        27           h26bf         1   UNL       h26        27     0.13357        1.0080 ; qtot   -2.466
        28           h27bf         1   UNL       h27        28     0.13728        1.0080 ; qtot   -2.328
        29           h28bf         1   UNL       h28        29     0.14097        1.0080 ; qtot   -2.187
        30           h29bf         1   UNL       h29        30     0.15585        1.0080 ; qtot   -2.032
        31           h30bf         1   UNL       h30        31     0.41819        1.0080 ; qtot   -1.613
        32           h31bf         1   UNL       h31        32     0.04918        1.0080 ; qtot   -1.564
        33           h32bf         1   UNL       h32        33     0.04918        1.0080 ; qtot   -1.515
        34           h33bf         1   UNL       h33        34     0.05201        1.0080 ; qtot   -1.463
        35           h34bf         1   UNL       h34        35     0.13447        1.0080 ; qtot   -1.329
        36           h35bf         1   UNL       h35        36     0.13111        1.0080 ; qtot   -1.198
        37           h36bf         1   UNL       h36        37     0.13198        1.0080 ; qtot   -1.066
        38           h37bf         1   UNL       h37        38     0.13111        1.0080 ; qtot   -0.934
        39           h38bf         1   UNL       h38        39     0.13447        1.0080 ; qtot   -0.800
        40           h39bf         1   UNL       h39        40     0.13447        1.0080 ; qtot   -0.665
        41           h40bf         1   UNL       h40        41     0.13111        1.0080 ; qtot   -0.534
        42           h41bf         1   UNL       h41        42     0.13198        1.0080 ; qtot   -0.402
        43           h42bf         1   UNL       h42        43     0.13111        1.0080 ; qtot   -0.271
        44           h43bf         1   UNL       h43        44     0.13447        1.0080 ; qtot   -0.137
        45           h44bf         1   UNL       h44        45     0.05201        1.0080 ; qtot   -0.085
        46           h45bf         1   UNL       h45        46     0.05710        1.0080 ; qtot   -0.028
        47           h46bf         1   UNL       h46        47     0.02770        1.0080 ; qtot    0.000

[ bonds ]
;       ai        aj funct               r               k
         1         2     1        0.138026   366202.276123    ;  uncertainty r = 0.000118, k = 1.933817
         1        10     1        0.141812   324612.386572    ;  uncertainty r = 0.000069, k = 5.644150
         1        27     1        0.108703   335533.842139    ;  uncertainty r = 0.000025, k = 1.023265
         2         3     1        0.141937   359285.728809    ;  uncertainty r = 0.000077, k = 2.171738
         2        28     1        0.108788   333801.225879    ;  uncertainty r = 0.000021, k = 1.785379
         3         4     1        0.137417   380240.127295    ;  uncertainty r = 0.000063, k = 2.095977
         3        29     1        0.108755   334424.816553    ;  uncertainty r = 0.000017, k = 0.992116
         4         5     1        0.142136   371135.560449    ;  uncertainty r = 0.000078, k = 3.125161
         4        30     1        0.108718   337424.686328    ;  uncertainty r = 0.000034, k = 1.786894
         5         6     1        0.136573   343326.286768    ;  uncertainty r = 0.000091, k = 23.699550
         5        10     1        0.142853   348796.590967    ;  uncertainty r = 0.000129, k = 15.796601
         6         7     1        0.130303   394097.712012    ;  uncertainty r = 0.000051, k = 17.867934
         7         8     1        0.134799   330782.867236    ;  uncertainty r = 0.000183, k = 27.736268
         8         9     1        0.139003   355835.588721    ;  uncertainty r = 0.000328, k = 12.677345
         8        47     1        0.108985   341545.711816    ;  uncertainty r = 0.000048, k = 2.946267
         9        10     1        0.142474   352416.118701    ;  uncertainty r = 0.000088, k = 15.518085
         9        11     1        0.137380   321052.462451    ;  uncertainty r = 0.000169, k = 22.900395
        11        12     1        0.145571   231449.129932    ;  uncertainty r = 0.000086, k = 8.301324
        11        31     1        0.101227   411791.328076    ;  uncertainty r = 0.000041, k = 2.848804
        12        13     1        0.153147   209318.530493    ;  uncertainty r = 0.000074, k = 7.352939
        12        32     1        0.109684   304700.744873    ;  uncertainty r = 0.000020, k = 1.271685
        12        33     1        0.109684   304700.744873    ;  uncertainty r = 0.000020, k = 1.271685
        13        15     1        0.153886   192480.471436    ;  uncertainty r = 0.000154, k = 5.167085
        13        34     1        0.109664   307642.211279    ;  uncertainty r = 0.000017, k = 2.045393
        13        45     1        0.109664   307642.211279    ;  uncertainty r = 0.000017, k = 2.045393
        14        15     1        0.152115   217308.696191    ;  uncertainty r = 0.000049, k = 4.140483
        14        16     1        0.139960   349011.306982    ;  uncertainty r = 0.000022, k = 1.571218
        14        20     1        0.139960   349011.306982    ;  uncertainty r = 0.000022, k = 1.571218
        15        21     1        0.152115   217308.696191    ;  uncertainty r = 0.000049, k = 4.140483
        15        46     1        0.109706   303299.064014    ;  uncertainty r = 0.000028, k = 1.639346
        16        17     1        0.139665   365413.639111    ;  uncertainty r = 0.000021, k = 1.348944
        16        35     1        0.108873   333879.241748    ;  uncertainty r = 0.000011, k = 0.966611
        17        18     1        0.139594   371584.885889    ;  uncertainty r = 0.000017, k = 1.435995
        17        36     1        0.108862   334107.696729    ;  uncertainty r = 0.000010, k = 1.115154
        18        19     1        0.139594   371584.885889    ;  uncertainty r = 0.000017, k = 1.435995
        18        37     1        0.108851   334582.457129    ;  uncertainty r = 0.000012, k = 0.680668
        19        20     1        0.139665   365413.639111    ;  uncertainty r = 0.000021, k = 1.348944
        19        38     1        0.108862   334107.696729    ;  uncertainty r = 0.000010, k = 1.115154
        20        39     1        0.108873   333879.216211    ;  uncertainty r = 0.000011, k = 0.966611
        21        22     1        0.139960   349011.306982    ;  uncertainty r = 0.000022, k = 1.571218
        21        26     1        0.139960   349011.306982    ;  uncertainty r = 0.000022, k = 1.571218
        22        23     1        0.139665   365413.639111    ;  uncertainty r = 0.000021, k = 1.348944
        22        40     1        0.108873   333879.216211    ;  uncertainty r = 0.000011, k = 0.966611
        23        24     1        0.139594   371584.885889    ;  uncertainty r = 0.000017, k = 1.435995
        23        41     1        0.108862   334107.696729    ;  uncertainty r = 0.000010, k = 1.115154
        24        25     1        0.139594   371584.885889    ;  uncertainty r = 0.000017, k = 1.435995
        24        42     1        0.108851   334582.457129    ;  uncertainty r = 0.000012, k = 0.680668
        25        26     1        0.139665   365413.639111    ;  uncertainty r = 0.000021, k = 1.348944
        25        43     1        0.108862   334107.696729    ;  uncertainty r = 0.000010, k = 1.115154
        26        44     1        0.108873   333879.241748    ;  uncertainty r = 0.000011, k = 0.966610

[ angles ]
;       ai        aj        ak funct           theta             cth
         1         2         3     1      121.098732      532.513946    ;  uncertainty theta = 0.001300, k = 0.040839
         1         2        28     1      119.604813      291.129750    ;  uncertainty theta = 0.000708, k = 0.022695
         1        10         5     1      119.485306      427.830408    ;  uncertainty theta = 0.003127, k = 0.217336
         1        10         9     1      122.840675      420.162380    ;  uncertainty theta = 0.005797, k = 0.202857
         2         1        10     1      121.401779      530.686606    ;  uncertainty theta = 0.001475, k = 0.087560
         2         1        27     1      119.998703      292.408872    ;  uncertainty theta = 0.001881, k = 0.024696
         2         3         4     1      119.465256      535.254493    ;  uncertainty theta = 0.001752, k = 0.080264
         2         3        29     1      120.143211      287.120169    ;  uncertainty theta = 0.000926, k = 0.023447
         3         2        28     1      120.506790      288.751831    ;  uncertainty theta = 0.001259, k = 0.029876
         3         4         5     1      118.787254      543.740857    ;  uncertainty theta = 0.001758, k = 0.100623
         3         4        30     1      122.186501      280.820355    ;  uncertainty theta = 0.001756, k = 0.036253
         4         3        29     1      119.801292      286.716970    ;  uncertainty theta = 0.001471, k = 0.050043
         4         5         6     1      119.371445      490.321630    ;  uncertainty theta = 0.002655, k = 0.203251
         4         5        10     1      118.041222      404.883974    ;  uncertainty theta = 0.002167, k = 0.236130
         5         4        30     1      119.993980      272.967822    ;  uncertainty theta = 0.004006, k = 0.174444
         5         6         7     1      116.519669      643.270336    ;  uncertainty theta = 0.002864, k = 0.150302
         5        10         9     1      116.110191      430.926271    ;  uncertainty theta = 0.004489, k = 0.264512
         6         5        10     1      123.320457      532.200669    ;  uncertainty theta = 0.004164, k = 0.165655
         6         7         8     1      119.912941      662.330150    ;  uncertainty theta = 0.005213, k = 0.236211
         7         8         9     1      124.866028      624.582280    ;  uncertainty theta = 0.007931, k = 0.279785
         7         8        47     1      113.975060      342.159311    ;  uncertainty theta = 0.004412, k = 0.119552
         8         9        10     1      116.963097      417.893152    ;  uncertainty theta = 0.009098, k = 0.260098
         8         9        11     1      121.672424      496.826155    ;  uncertainty theta = 0.002965, k = 0.450836
         9         8        47     1      120.531540      260.441487    ;  uncertainty theta = 0.007838, k = 0.085317
         9        11        12     1      115.380714      420.335138    ;  uncertainty theta = 0.007790, k = 0.184230
         9        11        31     1      112.287003      352.006931    ;  uncertainty theta = 0.002395, k = 0.118178
        10         1        27     1      119.031311      268.413310    ;  uncertainty theta = 0.003300, k = 0.046468
        10         9        11     1      123.502907      562.899307    ;  uncertainty theta = 0.004209, k = 0.166274
        11        12        13     1      110.682846      633.999408    ;  uncertainty theta = 0.002323, k = 0.115247
        11        12        32     1      107.207275      450.806847    ;  uncertainty theta = 0.001411, k = 0.058821
        11        12        33     1      107.207275      450.806847    ;  uncertainty theta = 0.001411, k = 0.058821
        12        11        31     1      110.224243      362.350450    ;  uncertainty theta = 0.003636, k = 0.035298
        12        13        15     1      110.165283      528.072500    ;  uncertainty theta = 0.001585, k = 0.074894
        12        13        34     1      107.075966      399.188943    ;  uncertainty theta = 0.001366, k = 0.035846
        12        13        45     1      107.075966      399.188943    ;  uncertainty theta = 0.001366, k = 0.035846
        13        12        32     1      107.998192      401.673608    ;  uncertainty theta = 0.001626, k = 0.035058
        13        12        33     1      107.998192      401.673608    ;  uncertainty theta = 0.001626, k = 0.035058
        13        15        14     1      109.996948      561.514877    ;  uncertainty theta = 0.002934, k = 0.061332
        13        15        21     1      109.996948      561.514877    ;  uncertainty theta = 0.002934, k = 0.061332
        13        15        46     1      106.021873      399.567276    ;  uncertainty theta = 0.002590, k = 0.134246
        14        15        21     1      110.751602      544.157367    ;  uncertainty theta = 0.002410, k = 0.137712
        14        15        46     1      105.784569      410.216665    ;  uncertainty theta = 0.002712, k = 0.056864
        14        16        17     1      121.147766      519.655820    ;  uncertainty theta = 0.001546, k = 0.034116
        14        16        35     1      118.863770      267.004684    ;  uncertainty theta = 0.002034, k = 0.042610
        14        20        19     1      121.147766      519.655820    ;  uncertainty theta = 0.001546, k = 0.034116
        14        20        39     1      118.863770      267.004684    ;  uncertainty theta = 0.002034, k = 0.042610
        15        13        34     1      107.136063      381.209350    ;  uncertainty theta = 0.001009, k = 0.089490
        15        13        45     1      107.136063      381.209350    ;  uncertainty theta = 0.001009, k = 0.089490
        15        14        16     1      120.873497      404.144036    ;  uncertainty theta = 0.002821, k = 0.049020
        15        14        20     1      120.873497      404.144036    ;  uncertainty theta = 0.002821, k = 0.049020
        15        21        22     1      120.873497      404.144036    ;  uncertainty theta = 0.002821, k = 0.049020
        15        21        26     1      120.873497      404.144036    ;  uncertainty theta = 0.002821, k = 0.049020
        16        14        20     1      119.988968      455.458495    ;  uncertainty theta = 0.000985, k = 0.044790
        16        17        18     1      119.610184      513.784264    ;  uncertainty theta = 0.000969, k = 0.021057
        16        17        36     1      120.192970      284.639622    ;  uncertainty theta = 0.001837, k = 0.019742
        17        16        35     1      119.998611      294.785100    ;  uncertainty theta = 0.002588, k = 0.017940
        17        18        19     1      118.025597      524.818849    ;  uncertainty theta = 0.000621, k = 0.036256
        17        18        37     1      120.665054      289.683584    ;  uncertainty theta = 0.001645, k = 0.013838
        18        17        36     1      120.613792      288.542203    ;  uncertainty theta = 0.001920, k = 0.015291
        18        19        20     1      119.610184      513.784264    ;  uncertainty theta = 0.000969, k = 0.021057
        18        19        38     1      120.613792      288.542203    ;  uncertainty theta = 0.001920, k = 0.015291
        19        18        37     1      120.665054      289.683584    ;  uncertainty theta = 0.001645, k = 0.013838
        19        20        39     1      119.998611      294.785100    ;  uncertainty theta = 0.002588, k = 0.017940
        20        19        38     1      120.192970      284.639622    ;  uncertainty theta = 0.001837, k = 0.019742
        21        15        46     1      105.784569      410.216697    ;  uncertainty theta = 0.002712, k = 0.056864
        21        22        23     1      121.147766      519.655756    ;  uncertainty theta = 0.001546, k = 0.034116
        21        22        40     1      118.863770      267.004684    ;  uncertainty theta = 0.002034, k = 0.042610
        21        26        25     1      121.147766      519.655756    ;  uncertainty theta = 0.001546, k = 0.034116
        21        26        44     1      118.863770      267.004684    ;  uncertainty theta = 0.002034, k = 0.042610
        22        21        26     1      119.988953      455.458432    ;  uncertainty theta = 0.000985, k = 0.044790
        22        23        24     1      119.610184      513.784264    ;  uncertainty theta = 0.000969, k = 0.021057
        22        23        41     1      120.192955      284.639622    ;  uncertainty theta = 0.001837, k = 0.019742
        23        22        40     1      119.998611      294.785068    ;  uncertainty theta = 0.002588, k = 0.017940
        23        24        25     1      118.025597      524.818849    ;  uncertainty theta = 0.000621, k = 0.036256
        23        24        42     1      120.665054      289.683584    ;  uncertainty theta = 0.001645, k = 0.013838
        24        23        41     1      120.613785      288.542203    ;  uncertainty theta = 0.001920, k = 0.015291
        24        25        26     1      119.610184      513.784264    ;  uncertainty theta = 0.000969, k = 0.021057
        24        25        43     1      120.613785      288.542203    ;  uncertainty theta = 0.001920, k = 0.015291
        25        24        42     1      120.665054      289.683584    ;  uncertainty theta = 0.001645, k = 0.013838
        25        26        44     1      119.998611      294.785068    ;  uncertainty theta = 0.002588, k = 0.017940
        26        25        43     1      120.192955      284.639622    ;  uncertainty theta = 0.001837, k = 0.019742
        32        12        33     1      105.618546      318.998398    ;  uncertainty theta = 0.001761, k = 0.038525
        34        13        45     1      105.309349      319.433231    ;  uncertainty theta = 0.003445, k = 0.029169

[ dihedrals ] ; propers for gromacs 4.5 or higher, use funct 9
;       ai        aj        ak        al funct           phase               k        pn
         1         2         3         4     9        0.000000       -0.112218         1    ;  uncertainty k = 0.146341
         1         2         3         4     9      180.000000       11.225884         2    ;  uncertainty k = 0.468844
         1         2         3         4     9        0.000000       -0.689218         3    ;  uncertainty k = 0.528932
         1         2         3         4     9      180.000000        0.760009         4    ;  uncertainty k = 0.215987
         1         2         3        29     9        0.000000        0.055614         1    ;  uncertainty k = 0.301353
         1         2         3        29     9      180.000000        6.555773         2    ;  uncertainty k = 0.445644
         1         2         3        29     9        0.000000        1.355376         3    ;  uncertainty k = 0.202801
         1         2         3        29     9      180.000000        1.537107         4    ;  uncertainty k = 0.126964
         1        10         5         4     9        0.000000       -0.031810         1    ;  uncertainty k = 0.275312
         1        10         5         4     9      180.000000        6.093268         2    ;  uncertainty k = 0.794084
         1        10         5         4     9        0.000000        0.262921         3    ;  uncertainty k = 0.338634
         1        10         5         4     9      180.000000        1.369481         4    ;  uncertainty k = 0.226885
         1        10         5         6     9        0.000000        0.285040         1    ;  uncertainty k = 0.570318
         1        10         5         6     9      180.000000        6.127201         2    ;  uncertainty k = 0.676111
         1        10         5         6     9        0.000000        0.428262         3    ;  uncertainty k = 0.401165
         1        10         5         6     9      180.000000        1.435636         4    ;  uncertainty k = 0.236441
         1        10         9         8     9        0.000000        0.241650         1    ;  uncertainty k = 0.514053
         1        10         9         8     9      180.000000        5.194075         2    ;  uncertainty k = 0.672261
         1        10         9         8     9        0.000000        0.447508         3    ;  uncertainty k = 0.437537
         1        10         9         8     9      180.000000        1.317420         4    ;  uncertainty k = 0.477105
         1        10         9        11     9        0.000000       -0.122553         1    ;  uncertainty k = 0.319481
         1        10         9        11     9      180.000000        7.051982         2    ;  uncertainty k = 0.409323
         1        10         9        11     9        0.000000        0.797346         3    ;  uncertainty k = 0.214275
         1        10         9        11     9      180.000000        1.188317         4    ;  uncertainty k = 0.327691
         2         1        10         5     9        0.000000       -0.153347         1    ;  uncertainty k = 0.377625
         2         1        10         5     9      180.000000        9.924906         2    ;  uncertainty k = 0.185266
         2         1        10         5     9        0.000000       -0.325371         3    ;  uncertainty k = 0.364111
         2         1        10         5     9      180.000000        1.115435         4    ;  uncertainty k = 0.241055
         2         1        10         9     9        0.000000       -0.198103         1    ;  uncertainty k = 0.695051
         2         1        10         9     9      180.000000        9.017766         2    ;  uncertainty k = 0.417986
         2         1        10         9     9        0.000000        0.304735         3    ;  uncertainty k = 0.286297
         2         1        10         9     9      180.000000        1.165889         4    ;  uncertainty k = 0.119135
         2         3         4         5     9        0.000000       -0.060167         1    ;  uncertainty k = 0.307149
         2         3         4         5     9      180.000000       16.852339         2    ;  uncertainty k = 0.182544
         2         3         4         5     9        0.000000       -0.383152         3    ;  uncertainty k = 0.424151
         2         3         4         5     9      180.000000        0.720590         4    ;  uncertainty k = 0.147943
         2         3         4        30     9        0.000000        0.071708         1    ;  uncertainty k = 0.192926
         2         3         4        30     9      180.000000        9.460411         2    ;  uncertainty k = 0.298385
         2         3         4        30     9        0.000000        1.411247         3    ;  uncertainty k = 0.375934
         2         3         4        30     9      180.000000        1.962394         4    ;  uncertainty k = 0.237404
         3         2         1        10     9        0.000000       -0.003270         1    ;  uncertainty k = 0.459621
         3         2         1        10     9      180.000000       15.710481         2    ;  uncertainty k = 0.305381
         3         2         1        10     9        0.000000       -0.558502         3    ;  uncertainty k = 0.307819
         3         2         1        10     9      180.000000        0.873318         4    ;  uncertainty k = 0.311925
         3         2         1        27     9        0.000000        0.120889         1    ;  uncertainty k = 0.138825
         3         2         1        27     9      180.000000        9.384064         2    ;  uncertainty k = 0.260724
         3         2         1        27     9        0.000000        1.425924         3    ;  uncertainty k = 0.286696
         3         2         1        27     9      180.000000        1.955490         4    ;  uncertainty k = 0.211032
         3         4         5         6     9        0.000000        0.429148         1    ;  uncertainty k = 0.736543
         3         4         5         6     9      180.000000        8.492307         2    ;  uncertainty k = 0.634152
         3         4         5         6     9        0.000000        0.615350         3    ;  uncertainty k = 0.467763
         3         4         5         6     9      180.000000        1.337160         4    ;  uncertainty k = 0.280849
         3         4         5        10     9        0.000000        0.303784         1    ;  uncertainty k = 0.349290
         3         4         5        10     9      180.000000        8.121766         2    ;  uncertainty k = 0.563097
         3         4         5        10     9        0.000000       -0.410904         3    ;  uncertainty k = 0.244726
         3         4         5        10     9      180.000000        1.088082         4    ;  uncertainty k = 0.203022
         4         3         2        28     9        0.000000       -0.094999         1    ;  uncertainty k = 0.499524
         4         3         2        28     9      180.000000        6.419387         2    ;  uncertainty k = 0.559471
         4         3         2        28     9        0.000000        1.305044         3    ;  uncertainty k = 0.238353
         4         3         2        28     9      180.000000        1.506547         4    ;  uncertainty k = 0.104587
         4         5         6         7     9        0.000000        1.619779         1    ;  uncertainty k = 2.080265
         4         5         6         7     9      180.000000       12.971591         2    ;  uncertainty k = 0.305397
         4         5         6         7     9        0.000000        2.191244         3    ;  uncertainty k = 0.329190
         4         5         6         7     9      180.000000        1.279302         4    ;  uncertainty k = 0.448700
         4         5        10         9     9        0.000000       -0.168063         1    ;  uncertainty k = 0.552221
         4         5        10         9     9      180.000000        6.163502         2    ;  uncertainty k = 0.827292
         4         5        10         9     9        0.000000        0.266735         3    ;  uncertainty k = 0.393263
         4         5        10         9     9      180.000000        1.324969         4    ;  uncertainty k = 0.177721
         5         4         3        29     9        0.000000        0.136732         1    ;  uncertainty k = 0.256378
         5         4         3        29     9      180.000000       10.821525         2    ;  uncertainty k = 0.419410
         5         4         3        29     9        0.000000        1.576130         3    ;  uncertainty k = 0.071084
         5         4         3        29     9      180.000000        1.733242         4    ;  uncertainty k = 0.287008
         5         6         7         8     9        0.000000       -2.876421         1    ;  uncertainty k = 2.544022
         5         6         7         8     9      180.000000       32.222034         2    ;  uncertainty k = 0.403385
         5         6         7         8     9        0.000000        1.061341         3    ;  uncertainty k = 0.766051
         5         6         7         8     9      180.000000       -0.241940         4    ;  uncertainty k = 0.807669
         5        10         1        27     9        0.000000       -0.160664         1    ;  uncertainty k = 0.904645
         5        10         1        27     9      180.000000        6.908791         2    ;  uncertainty k = 0.764060
         5        10         1        27     9        0.000000        1.122432         3    ;  uncertainty k = 0.280356
         5        10         1        27     9      180.000000        1.162354         4    ;  uncertainty k = 0.276652
         5        10         9         8     9        0.000000        0.404816         1    ;  uncertainty k = 0.565683
         5        10         9         8     9      180.000000        5.073977         2    ;  uncertainty k = 1.084537
         5        10         9         8     9        0.000000        0.235595         3    ;  uncertainty k = 0.429383
         5        10         9         8     9      180.000000        1.279624         4    ;  uncertainty k = 0.452434
         5        10         9        11     9        0.000000       -0.286482         1    ;  uncertainty k = 0.503126
         5        10         9        11     9      180.000000        7.598963         2    ;  uncertainty k = 0.760790
         5        10         9        11     9        0.000000        0.668535         3    ;  uncertainty k = 0.542467
         5        10         9        11     9      180.000000        1.173634         4    ;  uncertainty k = 0.302991
         6         5         4        30     9        0.000000        0.240750         1    ;  uncertainty k = 0.121671
         6         5         4        30     9      180.000000        6.704167         2    ;  uncertainty k = 0.543235
         6         5         4        30     9        0.000000        0.936234         3    ;  uncertainty k = 0.428697
         6         5         4        30     9      180.000000        1.105939         4    ;  uncertainty k = 0.374390
         6         5        10         9     9        0.000000        0.168884         1    ;  uncertainty k = 0.369994
         6         5        10         9     9      180.000000        5.846587         2    ;  uncertainty k = 0.610403
         6         5        10         9     9        0.000000        0.366087         3    ;  uncertainty k = 0.555927
         6         5        10         9     9      180.000000        1.311129         4    ;  uncertainty k = 0.222025
         6         7         8         9     9        0.000000        0.920320         1    ;  uncertainty k = 0.806861
         6         7         8         9     9      180.000000       14.789237         2    ;  uncertainty k = 0.220335
         6         7         8         9     9        0.000000        1.935223         3    ;  uncertainty k = 0.556266
         6         7         8         9     9      180.000000        1.515620         4    ;  uncertainty k = 0.226527
         6         7         8        47     9        0.000000        1.055320         1    ;  uncertainty k = 1.406159
         6         7         8        47     9      180.000000       16.069258         2    ;  uncertainty k = 0.334123
         6         7         8        47     9        0.000000        2.095138         3    ;  uncertainty k = 0.443862
         6         7         8        47     9      180.000000        1.544196         4    ;  uncertainty k = 0.099174
         7         6         5        10     9        0.000000        1.244285         1    ;  uncertainty k = 1.179325
         7         6         5        10     9      180.000000       12.356458         2    ;  uncertainty k = 0.440496
         7         6         5        10     9        0.000000        1.755564         3    ;  uncertainty k = 0.408056
         7         6         5        10     9      180.000000        1.265444         4    ;  uncertainty k = 0.318577
         7         8         9        10     9        0.000000        0.177516         1    ;  uncertainty k = 0.427615
         7         8         9        10     9      180.000000        7.318849         2    ;  uncertainty k = 0.581087
         7         8         9        10     9        0.000000        0.432056         3    ;  uncertainty k = 0.364141
         7         8         9        10     9      180.000000        1.271444         4    ;  uncertainty k = 0.242722
         7         8         9        11     9        0.000000       -0.218515         1    ;  uncertainty k = 0.571745
         7         8         9        11     9      180.000000        8.112250         2    ;  uncertainty k = 1.081083
         7         8         9        11     9        0.000000        0.714111         3    ;  uncertainty k = 0.212049
         7         8         9        11     9      180.000000        1.202898         4    ;  uncertainty k = 0.513370
         8         9        11        12     9        0.000000        4.014503         1    ;  uncertainty k = 1.408870
         8         9        11        12     9      180.000000        8.556591         2    ;  uncertainty k = 0.310596
         8         9        11        12     9        0.000000        0.426747         3    ;  uncertainty k = 0.472655
         8         9        11        12     9      180.000000       -0.158790         4    ;  uncertainty k = 0.094211
         8         9        11        31     9        0.000000        3.377256         1    ;  uncertainty k = 1.215358
         8         9        11        31     9      180.000000        8.046025         2    ;  uncertainty k = 0.246471
         8         9        11        31     9        0.000000        0.721940         3    ;  uncertainty k = 0.282776
         8         9        11        31     9      180.000000       -0.407551         4    ;  uncertainty k = 0.191658
         9        10         1        27     9        0.000000       -0.156037         1    ;  uncertainty k = 0.645348
         9        10         1        27     9      180.000000        6.907354         2    ;  uncertainty k = 0.648839
         9        10         1        27     9        0.000000        1.038778         3    ;  uncertainty k = 0.257740
         9        10         1        27     9      180.000000        0.814253         4    ;  uncertainty k = 0.323214
         9        11        12        13     9        0.000000       -0.406247         1    ;  uncertainty k = 0.473249
         9        11        12        13     9      180.000000       -0.589555         2    ;  uncertainty k = 0.401714
         9        11        12        13     9        0.000000        0.724331         3    ;  uncertainty k = 0.236076
         9        11        12        13     9      180.000000        0.340415         4    ;  uncertainty k = 0.101697
         9        11        12        32     9        0.000000       -0.111669         1    ;  uncertainty k = 0.539993
         9        11        12        32     9      180.000000       -1.386791         2    ;  uncertainty k = 0.173036
         9        11        12        32     9        0.000000        0.521089         3    ;  uncertainty k = 0.078814
         9        11        12        32     9      180.000000        0.401878         4    ;  uncertainty k = 0.107401
         9        11        12        33     9        0.000000       -0.111669         1    ;  uncertainty k = 0.539993
         9        11        12        33     9      180.000000       -1.386791         2    ;  uncertainty k = 0.173036
         9        11        12        33     9        0.000000        0.521089         3    ;  uncertainty k = 0.078814
         9        11        12        33     9      180.000000        0.401878         4    ;  uncertainty k = 0.107401
        10         1         2        28     9        0.000000        0.156031         1    ;  uncertainty k = 0.253582
        10         1         2        28     9      180.000000        9.514875         2    ;  uncertainty k = 0.194349
        10         1         2        28     9        0.000000        1.547053         3    ;  uncertainty k = 0.393078
        10         1         2        28     9      180.000000        1.824102         4    ;  uncertainty k = 0.196950
        10         5         4        30     9        0.000000       -0.294351         1    ;  uncertainty k = 0.239857
        10         5         4        30     9      180.000000        4.712821         2    ;  uncertainty k = 0.795295
        10         5         4        30     9        0.000000        0.931081         3    ;  uncertainty k = 0.227208
        10         5         4        30     9      180.000000        1.034280         4    ;  uncertainty k = 0.223713
        10         9         8        47     9        0.000000        0.131359         1    ;  uncertainty k = 0.911140
        10         9         8        47     9      180.000000        5.581270         2    ;  uncertainty k = 0.803744
        10         9         8        47     9        0.000000        1.346676         3    ;  uncertainty k = 0.383475
        10         9         8        47     9      180.000000        1.151388         4    ;  uncertainty k = 0.144709
        10         9        11        12     9        0.000000        5.297852         1    ;  uncertainty k = 0.928012
        10         9        11        12     9      180.000000        8.460471         2    ;  uncertainty k = 0.110884
        10         9        11        12     9        0.000000        0.818404         3    ;  uncertainty k = 0.257688
        10         9        11        12     9      180.000000       -0.106278         4    ;  uncertainty k = 0.140582
        10         9        11        31     9        0.000000        6.147130         1    ;  uncertainty k = 1.077585
        10         9        11        31     9      180.000000        5.654839         2    ;  uncertainty k = 0.237029
        10         9        11        31     9        0.000000        0.930561         3    ;  uncertainty k = 0.343230
        10         9        11        31     9      180.000000       -0.179025         4    ;  uncertainty k = 0.081790
        11         9         8        47     9        0.000000       -0.248360         1    ;  uncertainty k = 0.227296
        11         9         8        47     9      180.000000        6.891134         2    ;  uncertainty k = 0.862896
        11         9         8        47     9        0.000000        0.974719         3    ;  uncertainty k = 0.272256
        11         9         8        47     9      180.000000        0.940480         4    ;  uncertainty k = 0.335350
        11        12        13        15     9        0.000000       -5.090536         1    ;  uncertainty k = 1.114012
        11        12        13        15     9      180.000000       -1.160206         2    ;  uncertainty k = 0.604414
        11        12        13        15     9        0.000000        2.390329         3    ;  uncertainty k = 0.185649
        11        12        13        15     9      180.000000       -0.525658         4    ;  uncertainty k = 0.105666
        11        12        13        34     9        0.000000       -0.996767         1    ;  uncertainty k = 0.266822
        11        12        13        34     9      180.000000       -0.818837         2    ;  uncertainty k = 0.392924
        11        12        13        34     9        0.000000        1.332767         3    ;  uncertainty k = 0.189967
        11        12        13        34     9      180.000000       -0.082680         4    ;  uncertainty k = 0.081011
        11        12        13        45     9        0.000000       -0.996767         1    ;  uncertainty k = 0.266822
        11        12        13        45     9      180.000000       -0.818837         2    ;  uncertainty k = 0.392924
        11        12        13        45     9        0.000000        1.332767         3    ;  uncertainty k = 0.189967
        11        12        13        45     9      180.000000       -0.082680         4    ;  uncertainty k = 0.081011
        12        13        15        14     9        0.000000       -2.022139         1    ;  uncertainty k = 0.473111
        12        13        15        14     9      180.000000       -0.353868         2    ;  uncertainty k = 0.285450
        12        13        15        14     9        0.000000        1.296030         3    ;  uncertainty k = 0.162932
        12        13        15        14     9      180.000000       -0.248603         4    ;  uncertainty k = 0.092358
        12        13        15        21     9        0.000000       -2.022139         1    ;  uncertainty k = 0.473111
        12        13        15        21     9      180.000000       -0.353868         2    ;  uncertainty k = 0.285450
        12        13        15        21     9        0.000000        1.296030         3    ;  uncertainty k = 0.162932
        12        13        15        21     9      180.000000       -0.248603         4    ;  uncertainty k = 0.092358
        12        13        15        46     9        0.000000       -1.950829         1    ;  uncertainty k = 0.334648
        12        13        15        46     9      180.000000       -0.540090         2    ;  uncertainty k = 0.202083
        12        13        15        46     9        0.000000        0.773199         3    ;  uncertainty k = 0.197177
        12        13        15        46     9      180.000000       -0.280460         4    ;  uncertainty k = 0.104505
        13        12        11        31     9        0.000000        3.060453         1    ;  uncertainty k = 0.767423
        13        12        11        31     9      180.000000       -2.719876         2    ;  uncertainty k = 0.191611
        13        12        11        31     9        0.000000        0.469379         3    ;  uncertainty k = 0.195232
        13        12        11        31     9      180.000000        0.121173         4    ;  uncertainty k = 0.046759
        13        15        14        16     9        0.000000       -0.541942         1    ;  uncertainty k = 0.207275
        13        15        14        16     9      180.000000        2.165292         2    ;  uncertainty k = 0.165137
        13        15        14        16     9        0.000000        0.481060         3    ;  uncertainty k = 0.132223
        13        15        14        16     9      180.000000        0.391052         4    ;  uncertainty k = 0.040036
        13        15        14        20     9        0.000000       -0.541942         1    ;  uncertainty k = 0.207275
        13        15        14        20     9      180.000000        2.165292         2    ;  uncertainty k = 0.165137
        13        15        14        20     9        0.000000        0.481060         3    ;  uncertainty k = 0.132223
        13        15        14        20     9      180.000000        0.391052         4    ;  uncertainty k = 0.040036
        13        15        21        22     9        0.000000       -0.541942         1    ;  uncertainty k = 0.207275
        13        15        21        22     9      180.000000        2.165292         2    ;  uncertainty k = 0.165137
        13        15        21        22     9        0.000000        0.481060         3    ;  uncertainty k = 0.132223
        13        15        21        22     9      180.000000        0.391052         4    ;  uncertainty k = 0.040036
        13        15        21        26     9        0.000000       -0.541942         1    ;  uncertainty k = 0.207275
        13        15        21        26     9      180.000000        2.165292         2    ;  uncertainty k = 0.165137
        13        15        21        26     9        0.000000        0.481060         3    ;  uncertainty k = 0.132223
        13        15        21        26     9      180.000000        0.391052         4    ;  uncertainty k = 0.040036
        14        15        13        34     9        0.000000        0.383710         1    ;  uncertainty k = 0.278921
        14        15        13        34     9      180.000000       -0.132623         2    ;  uncertainty k = 0.095191
        14        15        13        34     9        0.000000        0.747986         3    ;  uncertainty k = 0.118795
        14        15        13        34     9      180.000000        0.001252         4    ;  uncertainty k = 0.029116
        14        15        13        45     9        0.000000        0.383710         1    ;  uncertainty k = 0.278921
        14        15        13        45     9      180.000000       -0.132623         2    ;  uncertainty k = 0.095191
        14        15        13        45     9        0.000000        0.747986         3    ;  uncertainty k = 0.118795
        14        15        13        45     9      180.000000        0.001252         4    ;  uncertainty k = 0.029116
        14        15        21        22     9        0.000000        0.885880         1    ;  uncertainty k = 0.134899
        14        15        21        22     9      180.000000        1.611483         2    ;  uncertainty k = 0.193425
        14        15        21        22     9        0.000000        0.494536         3    ;  uncertainty k = 0.133670
        14        15        21        22     9      180.000000        0.293059         4    ;  uncertainty k = 0.063421
        14        15        21        26     9        0.000000        0.885880         1    ;  uncertainty k = 0.134899
        14        15        21        26     9      180.000000        1.611483         2    ;  uncertainty k = 0.193425
        14        15        21        26     9        0.000000        0.494536         3    ;  uncertainty k = 0.133670
        14        15        21        26     9      180.000000        0.293059         4    ;  uncertainty k = 0.063421
        14        16        17        18     9        0.000000       -0.132940         1    ;  uncertainty k = 0.148569
        14        16        17        18     9      180.000000       13.741563         2    ;  uncertainty k = 0.229673
        14        16        17        18     9        0.000000       -0.958021         3    ;  uncertainty k = 0.526948
        14        16        17        18     9      180.000000        0.714175         4    ;  uncertainty k = 0.269736
        14        16        17        36     9        0.000000        0.021583         1    ;  uncertainty k = 0.195828
        14        16        17        36     9      180.000000        7.439527         2    ;  uncertainty k = 0.369844
        14        16        17        36     9        0.000000        1.412238         3    ;  uncertainty k = 0.161152
        14        16        17        36     9      180.000000        1.768969         4    ;  uncertainty k = 0.163259
        14        20        19        18     9        0.000000       -0.132940         1    ;  uncertainty k = 0.148569
        14        20        19        18     9      180.000000       13.741563         2    ;  uncertainty k = 0.229673
        14        20        19        18     9        0.000000       -0.958021         3    ;  uncertainty k = 0.526948
        14        20        19        18     9      180.000000        0.714175         4    ;  uncertainty k = 0.269736
        14        20        19        38     9        0.000000        0.021583         1    ;  uncertainty k = 0.195828
        14        20        19        38     9      180.000000        7.439527         2    ;  uncertainty k = 0.369844
        14        20        19        38     9        0.000000        1.412238         3    ;  uncertainty k = 0.161152
        14        20        19        38     9      180.000000        1.768969         4    ;  uncertainty k = 0.163259
        15        13        12        32     9        0.000000       -0.871662         1    ;  uncertainty k = 0.494480
        15        13        12        32     9      180.000000       -0.440066         2    ;  uncertainty k = 0.281476
        15        13        12        32     9        0.000000        0.868567         3    ;  uncertainty k = 0.110748
        15        13        12        32     9      180.000000       -0.378155         4    ;  uncertainty k = 0.089314
        15        13        12        33     9        0.000000       -0.871662         1    ;  uncertainty k = 0.494480
        15        13        12        33     9      180.000000       -0.440066         2    ;  uncertainty k = 0.281476
        15        13        12        33     9        0.000000        0.868567         3    ;  uncertainty k = 0.110748
        15        13        12        33     9      180.000000       -0.378155         4    ;  uncertainty k = 0.089314
        15        14        16        17     9        0.000000        0.228879         1    ;  uncertainty k = 0.288114
        15        14        16        17     9      180.000000        8.954077         2    ;  uncertainty k = 0.571103
        15        14        16        17     9        0.000000        1.508901         3    ;  uncertainty k = 0.415139
        15        14        16        17     9      180.000000        1.889313         4    ;  uncertainty k = 0.191688
        15        14        16        35     9        0.000000       -0.108936         1    ;  uncertainty k = 0.153381
        15        14        16        35     9      180.000000        7.526589         2    ;  uncertainty k = 0.234390
        15        14        16        35     9        0.000000        0.548892         3    ;  uncertainty k = 0.237327
        15        14        16        35     9      180.000000        0.980539         4    ;  uncertainty k = 0.153345
        15        14        20        19     9        0.000000        0.228879         1    ;  uncertainty k = 0.288114
        15        14        20        19     9      180.000000        8.954077         2    ;  uncertainty k = 0.571103
        15        14        20        19     9        0.000000        1.508901         3    ;  uncertainty k = 0.415139
        15        14        20        19     9      180.000000        1.889313         4    ;  uncertainty k = 0.191688
        15        14        20        39     9        0.000000       -0.108936         1    ;  uncertainty k = 0.153381
        15        14        20        39     9      180.000000        7.526589         2    ;  uncertainty k = 0.234390
        15        14        20        39     9        0.000000        0.548892         3    ;  uncertainty k = 0.237327
        15        14        20        39     9      180.000000        0.980539         4    ;  uncertainty k = 0.153345
        15        21        22        23     9        0.000000        0.228879         1    ;  uncertainty k = 0.288114
        15        21        22        23     9      180.000000        8.954077         2    ;  uncertainty k = 0.571103
        15        21        22        23     9        0.000000        1.508901         3    ;  uncertainty k = 0.415139
        15        21        22        23     9      180.000000        1.889313         4    ;  uncertainty k = 0.191688
        15        21        22        40     9        0.000000       -0.108936         1    ;  uncertainty k = 0.153381
        15        21        22        40     9      180.000000        7.526589         2    ;  uncertainty k = 0.234390
        15        21        22        40     9        0.000000        0.548892         3    ;  uncertainty k = 0.237327
        15        21        22        40     9      180.000000        0.980539         4    ;  uncertainty k = 0.153345
        15        21        26        25     9        0.000000        0.228879         1    ;  uncertainty k = 0.288114
        15        21        26        25     9      180.000000        8.954077         2    ;  uncertainty k = 0.571103
        15        21        26        25     9        0.000000        1.508901         3    ;  uncertainty k = 0.415139
        15        21        26        25     9      180.000000        1.889313         4    ;  uncertainty k = 0.191688
        15        21        26        44     9        0.000000       -0.108936         1    ;  uncertainty k = 0.153381
        15        21        26        44     9      180.000000        7.526589         2    ;  uncertainty k = 0.234390
        15        21        26        44     9        0.000000        0.548892         3    ;  uncertainty k = 0.237327
        15        21        26        44     9      180.000000        0.980539         4    ;  uncertainty k = 0.153345
        16        14        15        21     9        0.000000        0.885880         1    ;  uncertainty k = 0.134899
        16        14        15        21     9      180.000000        1.611483         2    ;  uncertainty k = 0.193425
        16        14        15        21     9        0.000000        0.494536         3    ;  uncertainty k = 0.133670
        16        14        15        21     9      180.000000        0.293059         4    ;  uncertainty k = 0.063421
        16        14        15        46     9        0.000000       -0.463632         1    ;  uncertainty k = 0.215493
        16        14        15        46     9      180.000000        2.085711         2    ;  uncertainty k = 0.135321
        16        14        15        46     9        0.000000        0.372587         3    ;  uncertainty k = 0.100086
        16        14        15        46     9      180.000000        0.237631         4    ;  uncertainty k = 0.034108
        16        14        20        19     9        0.000000       -0.201159         1    ;  uncertainty k = 0.106141
        16        14        20        19     9      180.000000       11.587476         2    ;  uncertainty k = 0.422797
        16        14        20        19     9        0.000000       -0.368690         3    ;  uncertainty k = 0.331164
        16        14        20        19     9      180.000000        0.812817         4    ;  uncertainty k = 0.441354
        16        14        20        39     9        0.000000        0.127596         1    ;  uncertainty k = 0.132505
        16        14        20        39     9      180.000000        7.370503         2    ;  uncertainty k = 0.583449
        16        14        20        39     9        0.000000        1.406174         3    ;  uncertainty k = 0.304208
        16        14        20        39     9      180.000000        1.644754         4    ;  uncertainty k = 0.190928
        16        17        18        19     9        0.000000        0.025223         1    ;  uncertainty k = 0.050246
        16        17        18        19     9      180.000000       15.105674         2    ;  uncertainty k = 0.273730
        16        17        18        19     9        0.000000       -1.225365         3    ;  uncertainty k = 0.476648
        16        17        18        19     9      180.000000        0.467570         4    ;  uncertainty k = 0.315583
        16        17        18        37     9        0.000000        0.057833         1    ;  uncertainty k = 0.066324
        16        17        18        37     9      180.000000        7.477742         2    ;  uncertainty k = 0.371189
        16        17        18        37     9        0.000000        1.437882         3    ;  uncertainty k = 0.275019
        16        17        18        37     9      180.000000        1.783101         4    ;  uncertainty k = 0.188352
        17        16        14        20     9        0.000000       -0.201159         1    ;  uncertainty k = 0.106141
        17        16        14        20     9      180.000000       11.587476         2    ;  uncertainty k = 0.422797
        17        16        14        20     9        0.000000       -0.368690         3    ;  uncertainty k = 0.331164
        17        16        14        20     9      180.000000        0.812817         4    ;  uncertainty k = 0.441354
        17        18        19        20     9        0.000000        0.025223         1    ;  uncertainty k = 0.050246
        17        18        19        20     9      180.000000       15.105674         2    ;  uncertainty k = 0.273730
        17        18        19        20     9        0.000000       -1.225365         3    ;  uncertainty k = 0.476648
        17        18        19        20     9      180.000000        0.467570         4    ;  uncertainty k = 0.315583
        17        18        19        38     9        0.000000        0.035953         1    ;  uncertainty k = 0.050449
        17        18        19        38     9      180.000000        7.543484         2    ;  uncertainty k = 0.339425
        17        18        19        38     9        0.000000        1.429341         3    ;  uncertainty k = 0.322375
        17        18        19        38     9      180.000000        1.780447         4    ;  uncertainty k = 0.173522
        18        17        16        35     9        0.000000        0.055864         1    ;  uncertainty k = 0.059930
        18        17        16        35     9      180.000000        7.935085         2    ;  uncertainty k = 0.358754
        18        17        16        35     9        0.000000        1.407710         3    ;  uncertainty k = 0.285179
        18        17        16        35     9      180.000000        1.842929         4    ;  uncertainty k = 0.155502
        18        19        20        39     9        0.000000        0.055864         1    ;  uncertainty k = 0.059930
        18        19        20        39     9      180.000000        7.935085         2    ;  uncertainty k = 0.358754
        18        19        20        39     9        0.000000        1.407710         3    ;  uncertainty k = 0.285179
        18        19        20        39     9      180.000000        1.842929         4    ;  uncertainty k = 0.155502
        19        18        17        36     9        0.000000        0.035953         1    ;  uncertainty k = 0.050449
        19        18        17        36     9      180.000000        7.543484         2    ;  uncertainty k = 0.339425
        19        18        17        36     9        0.000000        1.429341         3    ;  uncertainty k = 0.322375
        19        18        17        36     9      180.000000        1.780447         4    ;  uncertainty k = 0.173522
        20        14        15        21     9        0.000000        0.885880         1    ;  uncertainty k = 0.134899
        20        14        15        21     9      180.000000        1.611483         2    ;  uncertainty k = 0.193425
        20        14        15        21     9        0.000000        0.494536         3    ;  uncertainty k = 0.133670
        20        14        15        21     9      180.000000        0.293059         4    ;  uncertainty k = 0.063421
        20        14        15        46     9        0.000000       -0.463632         1    ;  uncertainty k = 0.215493
        20        14        15        46     9      180.000000        2.085711         2    ;  uncertainty k = 0.135321
        20        14        15        46     9        0.000000        0.372587         3    ;  uncertainty k = 0.100086
        20        14        15        46     9      180.000000        0.237631         4    ;  uncertainty k = 0.034108
        20        14        16        35     9        0.000000        0.127596         1    ;  uncertainty k = 0.132505
        20        14        16        35     9      180.000000        7.370503         2    ;  uncertainty k = 0.583449
        20        14        16        35     9        0.000000        1.406174         3    ;  uncertainty k = 0.304208
        20        14        16        35     9      180.000000        1.644754         4    ;  uncertainty k = 0.190928
        20        19        18        37     9        0.000000        0.057833         1    ;  uncertainty k = 0.066324
        20        19        18        37     9      180.000000        7.477742         2    ;  uncertainty k = 0.371189
        20        19        18        37     9        0.000000        1.437882         3    ;  uncertainty k = 0.275019
        20        19        18        37     9      180.000000        1.783101         4    ;  uncertainty k = 0.188352
        21        15        13        34     9        0.000000        0.383710         1    ;  uncertainty k = 0.278921
        21        15        13        34     9      180.000000       -0.132623         2    ;  uncertainty k = 0.095191
        21        15        13        34     9        0.000000        0.747986         3    ;  uncertainty k = 0.118795
        21        15        13        34     9      180.000000        0.001252         4    ;  uncertainty k = 0.029116
        21        15        13        45     9        0.000000        0.383710         1    ;  uncertainty k = 0.278921
        21        15        13        45     9      180.000000       -0.132623         2    ;  uncertainty k = 0.095191
        21        15        13        45     9        0.000000        0.747986         3    ;  uncertainty k = 0.118795
        21        15        13        45     9      180.000000        0.001252         4    ;  uncertainty k = 0.029116
        21        22        23        24     9        0.000000       -0.132940         1    ;  uncertainty k = 0.148569
        21        22        23        24     9      180.000000       13.741563         2    ;  uncertainty k = 0.229673
        21        22        23        24     9        0.000000       -0.958021         3    ;  uncertainty k = 0.526948
        21        22        23        24     9      180.000000        0.714175         4    ;  uncertainty k = 0.269736
        21        22        23        41     9        0.000000        0.021583         1    ;  uncertainty k = 0.195828
        21        22        23        41     9      180.000000        7.439527         2    ;  uncertainty k = 0.369844
        21        22        23        41     9        0.000000        1.412238         3    ;  uncertainty k = 0.161152
        21        22        23        41     9      180.000000        1.768969         4    ;  uncertainty k = 0.163259
        21        26        25        24     9        0.000000       -0.132940         1    ;  uncertainty k = 0.148569
        21        26        25        24     9      180.000000       13.741563         2    ;  uncertainty k = 0.229673
        21        26        25        24     9        0.000000       -0.958021         3    ;  uncertainty k = 0.526948
        21        26        25        24     9      180.000000        0.714175         4    ;  uncertainty k = 0.269736
        21        26        25        43     9        0.000000        0.021583         1    ;  uncertainty k = 0.195828
        21        26        25        43     9      180.000000        7.439527         2    ;  uncertainty k = 0.369844
        21        26        25        43     9        0.000000        1.412238         3    ;  uncertainty k = 0.161152
        21        26        25        43     9      180.000000        1.768969         4    ;  uncertainty k = 0.163259
        22        21        15        46     9        0.000000       -0.463632         1    ;  uncertainty k = 0.215493
        22        21        15        46     9      180.000000        2.085711         2    ;  uncertainty k = 0.135321
        22        21        15        46     9        0.000000        0.372587         3    ;  uncertainty k = 0.100086
        22        21        15        46     9      180.000000        0.237631         4    ;  uncertainty k = 0.034108
        22        21        26        25     9        0.000000       -0.201159         1    ;  uncertainty k = 0.106141
        22        21        26        25     9      180.000000       11.587476         2    ;  uncertainty k = 0.422797
        22        21        26        25     9        0.000000       -0.368690         3    ;  uncertainty k = 0.331164
        22        21        26        25     9      180.000000        0.812817         4    ;  uncertainty k = 0.441354
        22        21        26        44     9        0.000000        0.127596         1    ;  uncertainty k = 0.132505
        22        21        26        44     9      180.000000        7.370503         2    ;  uncertainty k = 0.583449
        22        21        26        44     9        0.000000        1.406174         3    ;  uncertainty k = 0.304208
        22        21        26        44     9      180.000000        1.644754         4    ;  uncertainty k = 0.190928
        22        23        24        25     9        0.000000        0.025223         1    ;  uncertainty k = 0.050246
        22        23        24        25     9      180.000000       15.105674         2    ;  uncertainty k = 0.273730
        22        23        24        25     9        0.000000       -1.225365         3    ;  uncertainty k = 0.476648
        22        23        24        25     9      180.000000        0.467570         4    ;  uncertainty k = 0.315583
        22        23        24        42     9        0.000000        0.057833         1    ;  uncertainty k = 0.066324
        22        23        24        42     9      180.000000        7.477742         2    ;  uncertainty k = 0.371189
        22        23        24        42     9        0.000000        1.437882         3    ;  uncertainty k = 0.275019
        22        23        24        42     9      180.000000        1.783101         4    ;  uncertainty k = 0.188352
        23        22        21        26     9        0.000000       -0.201159         1    ;  uncertainty k = 0.106141
        23        22        21        26     9      180.000000       11.587476         2    ;  uncertainty k = 0.422797
        23        22        21        26     9        0.000000       -0.368690         3    ;  uncertainty k = 0.331164
        23        22        21        26     9      180.000000        0.812817         4    ;  uncertainty k = 0.441354
        23        24        25        26     9        0.000000        0.025223         1    ;  uncertainty k = 0.050246
        23        24        25        26     9      180.000000       15.105674         2    ;  uncertainty k = 0.273730
        23        24        25        26     9        0.000000       -1.225365         3    ;  uncertainty k = 0.476648
        23        24        25        26     9      180.000000        0.467570         4    ;  uncertainty k = 0.315583
        23        24        25        43     9        0.000000        0.035953         1    ;  uncertainty k = 0.050449
        23        24        25        43     9      180.000000        7.543484         2    ;  uncertainty k = 0.339425
        23        24        25        43     9        0.000000        1.429341         3    ;  uncertainty k = 0.322375
        23        24        25        43     9      180.000000        1.780447         4    ;  uncertainty k = 0.173522
        24        23        22        40     9        0.000000        0.055864         1    ;  uncertainty k = 0.059930
        24        23        22        40     9      180.000000        7.935085         2    ;  uncertainty k = 0.358754
        24        23        22        40     9        0.000000        1.407710         3    ;  uncertainty k = 0.285179
        24        23        22        40     9      180.000000        1.842929         4    ;  uncertainty k = 0.155502
        24        25        26        44     9        0.000000        0.055864         1    ;  uncertainty k = 0.059930
        24        25        26        44     9      180.000000        7.935085         2    ;  uncertainty k = 0.358754
        24        25        26        44     9        0.000000        1.407710         3    ;  uncertainty k = 0.285179
        24        25        26        44     9      180.000000        1.842929         4    ;  uncertainty k = 0.155502
        25        24        23        41     9        0.000000        0.035953         1    ;  uncertainty k = 0.050449
        25        24        23        41     9      180.000000        7.543484         2    ;  uncertainty k = 0.339425
        25        24        23        41     9        0.000000        1.429341         3    ;  uncertainty k = 0.322375
        25        24        23        41     9      180.000000        1.780447         4    ;  uncertainty k = 0.173522
        26        21        15        46     9        0.000000       -0.463632         1    ;  uncertainty k = 0.215493
        26        21        15        46     9      180.000000        2.085711         2    ;  uncertainty k = 0.135321
        26        21        15        46     9        0.000000        0.372587         3    ;  uncertainty k = 0.100086
        26        21        15        46     9      180.000000        0.237631         4    ;  uncertainty k = 0.034108
        26        21        22        40     9        0.000000        0.127596         1    ;  uncertainty k = 0.132505
        26        21        22        40     9      180.000000        7.370503         2    ;  uncertainty k = 0.583449
        26        21        22        40     9        0.000000        1.406174         3    ;  uncertainty k = 0.304208
        26        21        22        40     9      180.000000        1.644754         4    ;  uncertainty k = 0.190928
        26        25        24        42     9        0.000000        0.057833         1    ;  uncertainty k = 0.066324
        26        25        24        42     9      180.000000        7.477742         2    ;  uncertainty k = 0.371189
        26        25        24        42     9        0.000000        1.437882         3    ;  uncertainty k = 0.275019
        26        25        24        42     9      180.000000        1.783101         4    ;  uncertainty k = 0.188352
        27         1         2        28     9        0.000000       -0.111807         1    ;  uncertainty k = 0.405238
        27         1         2        28     9      180.000000        8.682031         2    ;  uncertainty k = 0.465415
        27         1         2        28     9        0.000000       -0.300904         3    ;  uncertainty k = 0.245086
        27         1         2        28     9      180.000000        0.237333         4    ;  uncertainty k = 0.212491
        28         2         3        29     9        0.000000       -0.117224         1    ;  uncertainty k = 0.242496
        28         2         3        29     9      180.000000        7.017711         2    ;  uncertainty k = 0.491869
        28         2         3        29     9        0.000000       -0.208399         3    ;  uncertainty k = 0.333371
        28         2         3        29     9      180.000000        0.131427         4    ;  uncertainty k = 0.129081
        29         3         4        30     9        0.000000       -0.103854         1    ;  uncertainty k = 0.371051
        29         3         4        30     9      180.000000        8.821868         2    ;  uncertainty k = 0.385578
        29         3         4        30     9        0.000000       -0.163821         3    ;  uncertainty k = 0.292735
        29         3         4        30     9      180.000000        0.298501         4    ;  uncertainty k = 0.300232
        31        11        12        32     9        0.000000        2.134827         1    ;  uncertainty k = 0.527261
        31        11        12        32     9      180.000000       -2.526993         2    ;  uncertainty k = 0.140223
        31        11        12        32     9        0.000000        0.226210         3    ;  uncertainty k = 0.080341
        31        11        12        32     9      180.000000        0.122124         4    ;  uncertainty k = 0.046387
        31        11        12        33     9        0.000000        2.134827         1    ;  uncertainty k = 0.527261
        31        11        12        33     9      180.000000       -2.526993         2    ;  uncertainty k = 0.140223
        31        11        12        33     9        0.000000        0.226210         3    ;  uncertainty k = 0.080341
        31        11        12        33     9      180.000000        0.122124         4    ;  uncertainty k = 0.046387
        32        12        13        34     9        0.000000        0.739477         1    ;  uncertainty k = 0.174492
        32        12        13        34     9      180.000000       -0.462382         2    ;  uncertainty k = 0.138136
        32        12        13        34     9        0.000000        0.094003         3    ;  uncertainty k = 0.062926
        32        12        13        34     9      180.000000       -0.050438         4    ;  uncertainty k = 0.065481
        32        12        13        45     9        0.000000        0.739477         1    ;  uncertainty k = 0.174492
        32        12        13        45     9      180.000000       -0.462382         2    ;  uncertainty k = 0.138136
        32        12        13        45     9        0.000000        0.094003         3    ;  uncertainty k = 0.062926
        32        12        13        45     9      180.000000       -0.050438         4    ;  uncertainty k = 0.065481
        33        12        13        34     9        0.000000        0.739477         1    ;  uncertainty k = 0.174492
        33        12        13        34     9      180.000000       -0.462382         2    ;  uncertainty k = 0.138136
        33        12        13        34     9        0.000000        0.094003         3    ;  uncertainty k = 0.062926
        33        12        13        34     9      180.000000       -0.050438         4    ;  uncertainty k = 0.065481
        33        12        13        45     9        0.000000        0.739477         1    ;  uncertainty k = 0.174492
        33        12        13        45     9      180.000000       -0.462382         2    ;  uncertainty k = 0.138136
        33        12        13        45     9        0.000000        0.094003         3    ;  uncertainty k = 0.062926
        33        12        13        45     9      180.000000       -0.050438         4    ;  uncertainty k = 0.065481
        34        13        15        46     9        0.000000        1.002968         1    ;  uncertainty k = 0.264275
        34        13        15        46     9      180.000000       -1.010223         2    ;  uncertainty k = 0.227009
        34        13        15        46     9        0.000000       -0.125071         3    ;  uncertainty k = 0.114682
        34        13        15        46     9      180.000000       -0.068267         4    ;  uncertainty k = 0.037747
        35        16        17        36     9        0.000000       -0.082344         1    ;  uncertainty k = 0.150999
        35        16        17        36     9      180.000000        7.502228         2    ;  uncertainty k = 0.216639
        35        16        17        36     9        0.000000       -0.420659         3    ;  uncertainty k = 0.249789
        35        16        17        36     9      180.000000        0.145489         4    ;  uncertainty k = 0.102701
        36        17        18        37     9        0.000000        0.005408         1    ;  uncertainty k = 0.074111
        36        17        18        37     9      180.000000        7.403319         2    ;  uncertainty k = 0.300291
        36        17        18        37     9        0.000000       -0.404187         3    ;  uncertainty k = 0.267619
        36        17        18        37     9      180.000000        0.063244         4    ;  uncertainty k = 0.147423
        37        18        19        38     9        0.000000        0.005408         1    ;  uncertainty k = 0.074111
        37        18        19        38     9      180.000000        7.403319         2    ;  uncertainty k = 0.300291
        37        18        19        38     9        0.000000       -0.404187         3    ;  uncertainty k = 0.267619
        37        18        19        38     9      180.000000        0.063244         4    ;  uncertainty k = 0.147423
        38        19        20        39     9        0.000000       -0.082344         1    ;  uncertainty k = 0.150999
        38        19        20        39     9      180.000000        7.502228         2    ;  uncertainty k = 0.216639
        38        19        20        39     9        0.000000       -0.420659         3    ;  uncertainty k = 0.249789
        38        19        20        39     9      180.000000        0.145489         4    ;  uncertainty k = 0.102701
        40        22        23        41     9        0.000000       -0.082344         1    ;  uncertainty k = 0.150999
        40        22        23        41     9      180.000000        7.502229         2    ;  uncertainty k = 0.216639
        40        22        23        41     9        0.000000       -0.420659         3    ;  uncertainty k = 0.249789
        40        22        23        41     9      180.000000        0.145489         4    ;  uncertainty k = 0.102701
        41        23        24        42     9        0.000000        0.005408         1    ;  uncertainty k = 0.074111
        41        23        24        42     9      180.000000        7.403319         2    ;  uncertainty k = 0.300291
        41        23        24        42     9        0.000000       -0.404187         3    ;  uncertainty k = 0.267619
        41        23        24        42     9      180.000000        0.063244         4    ;  uncertainty k = 0.147423
        42        24        25        43     9        0.000000        0.005408         1    ;  uncertainty k = 0.074111
        42        24        25        43     9      180.000000        7.403319         2    ;  uncertainty k = 0.300291
        42        24        25        43     9        0.000000       -0.404187         3    ;  uncertainty k = 0.267619
        42        24        25        43     9      180.000000        0.063244         4    ;  uncertainty k = 0.147423
        43        25        26        44     9        0.000000       -0.082344         1    ;  uncertainty k = 0.150999
        43        25        26        44     9      180.000000        7.502229         2    ;  uncertainty k = 0.216639
        43        25        26        44     9        0.000000       -0.420659         3    ;  uncertainty k = 0.249789
        43        25        26        44     9      180.000000        0.145489         4    ;  uncertainty k = 0.102701
        45        13        15        46     9        0.000000        1.002968         1    ;  uncertainty k = 0.264275
        45        13        15        46     9      180.000000       -1.010223         2    ;  uncertainty k = 0.227009
        45        13        15        46     9        0.000000       -0.125071         3    ;  uncertainty k = 0.114682
        45        13        15        46     9      180.000000       -0.068267         4    ;  uncertainty k = 0.037747

[ dihedrals ] ; impropers
;       ai        aj        ak        al funct           phase               k        pn
         1         2        10        27     4      180.000000        3.976504         2    ;  uncertainty k = 0.200247
         1        10        27         2     4      180.000000        3.976504         2    ;  uncertainty k = 0.200247
         1        27         2        10     4      180.000000        3.976504         2    ;  uncertainty k = 0.200247
         2         1         3        28     4      180.000000        4.356696         2    ;  uncertainty k = 0.089042
         2         3        28         1     4      180.000000        4.356696         2    ;  uncertainty k = 0.089042
         2        28         1         3     4      180.000000        4.356696         2    ;  uncertainty k = 0.089042
         3         2         4        29     4      180.000000        5.000669         2    ;  uncertainty k = 0.166618
         3         4        29         2     4      180.000000        5.000669         2    ;  uncertainty k = 0.166618
         3        29         2         4     4      180.000000        5.000669         2    ;  uncertainty k = 0.166618
         4         3         5        30     4      180.000000        4.683164         2    ;  uncertainty k = 0.104559
         4         5        30         3     4      180.000000        4.683164         2    ;  uncertainty k = 0.104559
         4        30         3         5     4      180.000000        4.683164         2    ;  uncertainty k = 0.104559
         5         4         6        10     4      180.000000       15.424160         2    ;  uncertainty k = 0.186597
         5         6        10         4     4      180.000000       15.424160         2    ;  uncertainty k = 0.186597
         5        10         4         6     4      180.000000       15.424160         2    ;  uncertainty k = 0.186597
         8         7         9        47     4      180.000000        8.537634         2    ;  uncertainty k = 0.231448
         8         9        47         7     4      180.000000        8.537634         2    ;  uncertainty k = 0.231448
         8        47         7         9     4      180.000000        8.537634         2    ;  uncertainty k = 0.231448
         9         8        10        11     4      180.000000       21.756855         2    ;  uncertainty k = 0.077881
         9        10        11         8     4      180.000000       21.756855         2    ;  uncertainty k = 0.077881
         9        11         8        10     4      180.000000       21.756855         2    ;  uncertainty k = 0.077881
        10         1         5         9     4      180.000000        8.535738         2    ;  uncertainty k = 0.186277
        10         5         9         1     4      180.000000        8.535738         2    ;  uncertainty k = 0.186277
        10         9         1         5     4      180.000000        8.535738         2    ;  uncertainty k = 0.186277
        14        15        16        20     4      180.000000       13.380619         2    ;  uncertainty k = 0.107818
        14        16        20        15     4      180.000000       13.380619         2    ;  uncertainty k = 0.107818
        14        20        15        16     4      180.000000       13.380619         2    ;  uncertainty k = 0.107818
        16        14        17        35     4      180.000000        4.433088         2    ;  uncertainty k = 0.081412
        16        17        35        14     4      180.000000        4.433088         2    ;  uncertainty k = 0.081412
        16        35        14        17     4      180.000000        4.433088         2    ;  uncertainty k = 0.081412
        17        16        18        36     4      180.000000        4.395053         2    ;  uncertainty k = 0.066478
        17        18        36        16     4      180.000000        4.395053         2    ;  uncertainty k = 0.066478
        17        36        16        18     4      180.000000        4.395053         2    ;  uncertainty k = 0.066478
        18        17        19        37     4      180.000000        4.412111         2    ;  uncertainty k = 0.108727
        18        19        37        17     4      180.000000        4.412111         2    ;  uncertainty k = 0.108727
        18        37        17        19     4      180.000000        4.412111         2    ;  uncertainty k = 0.108727
        19        18        20        38     4      180.000000        4.395053         2    ;  uncertainty k = 0.066478
        19        20        38        18     4      180.000000        4.395053         2    ;  uncertainty k = 0.066478
        19        38        18        20     4      180.000000        4.395053         2    ;  uncertainty k = 0.066478
        20        14        19        39     4      180.000000        4.433088         2    ;  uncertainty k = 0.081412
        20        19        39        14     4      180.000000        4.433088         2    ;  uncertainty k = 0.081412
        20        39        14        19     4      180.000000        4.433088         2    ;  uncertainty k = 0.081412
        21        15        22        26     4      180.000000       13.380619         2    ;  uncertainty k = 0.107818
        21        22        26        15     4      180.000000       13.380619         2    ;  uncertainty k = 0.107818
        21        26        15        22     4      180.000000       13.380619         2    ;  uncertainty k = 0.107818
        22        21        23        40     4      180.000000        4.433088         2    ;  uncertainty k = 0.081412
        22        23        40        21     4      180.000000        4.433088         2    ;  uncertainty k = 0.081412
        22        40        21        23     4      180.000000        4.433088         2    ;  uncertainty k = 0.081412
        23        22        24        41     4      180.000000        4.395053         2    ;  uncertainty k = 0.066478
        23        24        41        22     4      180.000000        4.395053         2    ;  uncertainty k = 0.066478
        23        41        22        24     4      180.000000        4.395053         2    ;  uncertainty k = 0.066478
        24        23        25        42     4      180.000000        4.412111         2    ;  uncertainty k = 0.108727
        24        25        42        23     4      180.000000        4.412111         2    ;  uncertainty k = 0.108727
        24        42        23        25     4      180.000000        4.412111         2    ;  uncertainty k = 0.108727
        25        24        26        43     4      180.000000        4.395053         2    ;  uncertainty k = 0.066478
        25        26        43        24     4      180.000000        4.395053         2    ;  uncertainty k = 0.066478
        25        43        24        26     4      180.000000        4.395053         2    ;  uncertainty k = 0.066478
        26        21        25        44     4      180.000000        4.433089         2    ;  uncertainty k = 0.081412
        26        25        44        21     4      180.000000        4.433089         2    ;  uncertainty k = 0.081412
        26        44        21        25     4      180.000000        4.433089         2    ;  uncertainty k = 0.081412

[ pairs ]
;       ai        aj funct
         1         4     1
         1         6     1
         1         8     1
         1        11     1
         1        29     1
         2         5     1
         2         9     1
         2        30     1
         3         6     1
         3        10     1
         3        27     1
         4         7     1
         4         9     1
         4        28     1
         5         8     1
         5        11     1
         5        27     1
         5        29     1
         6         9     1
         6        30     1
         6        47     1
         7        10     1
         7        11     1
         8        12     1
         8        31     1
         9        13     1
         9        27     1
         9        32     1
         9        33     1
        10        12     1
        10        28     1
        10        30     1
        10        31     1
        10        47     1
        11        15     1
        11        34     1
        11        45     1
        11        47     1
        12        14     1
        12        21     1
        12        46     1
        13        16     1
        13        20     1
        13        22     1
        13        26     1
        13        31     1
        14        18     1
        14        22     1
        14        26     1
        14        34     1
        14        36     1
        14        38     1
        14        45     1
        15        17     1
        15        19     1
        15        23     1
        15        25     1
        15        32     1
        15        33     1
        15        35     1
        15        39     1
        15        40     1
        15        44     1
        16        19     1
        16        21     1
        16        37     1
        16        39     1
        16        46     1
        17        20     1
        17        38     1
        18        35     1
        18        39     1
        19        36     1
        20        21     1
        20        35     1
        20        37     1
        20        46     1
        21        24     1
        21        34     1
        21        41     1
        21        43     1
        21        45     1
        22        25     1
        22        42     1
        22        44     1
        22        46     1
        23        26     1
        23        43     1
        24        40     1
        24        44     1
        25        41     1
        26        40     1
        26        42     1
        26        46     1
        27        28     1
        28        29     1
        29        30     1
        31        32     1
        31        33     1
        32        34     1
        32        45     1
        33        34     1
        33        45     1
        34        46     1
        35        36     1
        36        37     1
        37        38     1
        38        39     1
        40        41     1
        41        42     1
        42        43     1
        43        44     1
        45        46     1
