; ITP file created by ByteFF-ML, 2026-03-14 15:28:09.994603

[ atomtypes ]
;name           bonded.type        at.num        mass        charge   ptype           sigma         epsilon
 c0bf                                   6      0.0000       0.00000       A     3.31426e-01     4.11226e-01
 c1bf                                   6      0.0000       0.00000       A     3.31568e-01     4.13143e-01
 h2bf                                   1      0.0000       0.00000       A     2.62485e-01     6.75153e-02
 c3bf                                   6      0.0000       0.00000       A     3.31523e-01     4.12056e-01
 h4bf                                   1      0.0000       0.00000       A     2.62405e-01     6.67253e-02
 c5bf                                   6      0.0000       0.00000       A     3.31279e-01     4.11283e-01
 c6bf                                   6      0.0000       0.00000       A     3.31150e-01     4.13198e-01
 c7bf                                   6      0.0000       0.00000       A     3.31448e-01     4.13506e-01
 h8bf                                   1      0.0000       0.00000       A     2.62592e-01     6.73030e-02
 o9bf                                   8      0.0000       0.00000       A     3.15529e-01     3.02270e-01
 c10bf                                  6      0.0000       0.00000       A     3.39880e-01     4.53386e-01
 c11bf                                  6      0.0000       0.00000       A     3.39567e-01     4.51771e-01
 h12bf                                  1      0.0000       0.00000       A     2.59417e-01     8.63170e-02
 h13bf                                  1      0.0000       0.00000       A     2.59417e-01     8.63170e-02
 c14bf                                  6      0.0000       0.00000       A     3.39917e-01     4.52880e-01
 c15bf                                  6      0.0000       0.00000       A     3.31525e-01     4.13256e-01
 n16bf                                  7      0.0000       0.00000       A     3.18147e-01     7.08350e-01
 c17bf                                  6      0.0000       0.00000       A     3.31173e-01     4.11985e-01
 n18bf                                  7      0.0000       0.00000       A     3.26363e-01     6.55753e-01
 h19bf                                  1      0.0000       0.00000       A     1.10240e-01     4.07109e-02
 c20bf                                  6      0.0000       0.00000       A     3.31337e-01     4.11974e-01
 c21bf                                  6      0.0000       0.00000       A     3.39925e-01     4.53383e-01
 h22bf                                  1      0.0000       0.00000       A     2.42238e-01     8.60936e-02
 h23bf                                  1      0.0000       0.00000       A     2.42238e-01     8.60936e-02
 h24bf                                  1      0.0000       0.00000       A     2.42238e-01     8.60936e-02
 n25bf                                  7      0.0000       0.00000       A     3.36693e-01     4.77150e-01
 h26bf                                  1      0.0000       0.00000       A     1.10539e-01     3.88978e-02
 h27bf                                  1      0.0000       0.00000       A     1.10539e-01     3.88978e-02
 c28bf                                  6      0.0000       0.00000       A     3.31524e-01     4.13364e-01
 h29bf                                  1      0.0000       0.00000       A     2.62345e-01     6.74962e-02
 c30bf                                  6      0.0000       0.00000       A     3.31561e-01     4.14863e-01
 c31bf                                  6      0.0000       0.00000       A     3.31480e-01     4.13404e-01
 h32bf                                  1      0.0000       0.00000       A     2.62439e-01     6.70764e-02
 c33bf                                  6      0.0000       0.00000       A     3.31528e-01     4.13005e-01
 h34bf                                  1      0.0000       0.00000       A     2.62540e-01     6.75504e-02
 c35bf                                  6      0.0000       0.00000       A     3.31482e-01     4.12056e-01
 h36bf                                  1      0.0000       0.00000       A     2.62472e-01     6.74738e-02
 o37bf                                  8      0.0000       0.00000       A     3.04358e-01     6.10575e-01
 c38bf                                  6      0.0000       0.00000       A     3.39798e-01     4.50250e-01
 h39bf                                  1      0.0000       0.00000       A     2.59893e-01     8.82802e-02
 h40bf                                  1      0.0000       0.00000       A     2.59893e-01     8.82802e-02
 h41bf                                  1      0.0000       0.00000       A     2.59893e-01     8.82802e-02
 c42bf                                  6      0.0000       0.00000       A     3.39798e-01     4.50250e-01
 h43bf                                  1      0.0000       0.00000       A     2.59893e-01     8.82802e-02
 h44bf                                  1      0.0000       0.00000       A     2.59893e-01     8.82802e-02
 h45bf                                  1      0.0000       0.00000       A     2.59893e-01     8.82802e-02
 c46bf                                  6      0.0000       0.00000       A     3.48221e-01     6.70140e-01
 n47bf                                  7      0.0000       0.00000       A     3.27424e-01     4.58548e-01

[ moleculetype ]
;name             nrexcl
 13                    3

[ atoms ]
;       nr            type      resi   res      atom      cgnr      charge          mass ; qtot
         1            c0bf         1   UNL        c0         1    -0.05854       12.0110 ; qtot   -0.059
         2            c1bf         1   UNL        c1         2    -0.06319       12.0110 ; qtot   -0.122
         3            h2bf         1   UNL        h2         3     0.11821        1.0080 ; qtot   -0.004
         4            c3bf         1   UNL        c3         4    -0.13502       12.0110 ; qtot   -0.139
         5            h4bf         1   UNL        h4         5     0.13342        1.0080 ; qtot   -0.005
         6            c5bf         1   UNL        c5         6     0.17007       12.0110 ; qtot    0.165
         7            c6bf         1   UNL        c6         7    -0.18112       12.0110 ; qtot   -0.016
         8            c7bf         1   UNL        c7         8    -0.04045       12.0110 ; qtot   -0.057
         9            h8bf         1   UNL        h8         9     0.12822        1.0080 ; qtot    0.072
        10            o9bf         1   UNL        o9        10    -0.35834       15.9990 ; qtot   -0.287
        11           c10bf         1   UNL       c10        11     0.18141       12.0110 ; qtot   -0.105
        12           c11bf         1   UNL       c11        12    -0.08115       12.0110 ; qtot   -0.186
        13           h12bf         1   UNL       h12        13     0.08348        1.0080 ; qtot   -0.103
        14           h13bf         1   UNL       h13        14     0.08348        1.0080 ; qtot   -0.020
        15           c14bf         1   UNL       c14        15     0.10827       12.0110 ; qtot    0.089
        16           c15bf         1   UNL       c15        16     0.55024       12.0110 ; qtot    0.639
        17           n16bf         1   UNL       n16        17    -0.64651       14.0070 ; qtot   -0.008
        18           c17bf         1   UNL       c17        18     0.99722       12.0110 ; qtot    0.990
        19           n18bf         1   UNL       n18        19    -0.63159       14.0070 ; qtot    0.358
        20           h19bf         1   UNL       h19        20     0.41427        1.0080 ; qtot    0.772
        21           c20bf         1   UNL       c20        21    -0.03048       12.0110 ; qtot    0.742
        22           c21bf         1   UNL       c21        22     0.07086       12.0110 ; qtot    0.813
        23           h22bf         1   UNL       h22        23     0.09037        1.0080 ; qtot    0.903
        24           h23bf         1   UNL       h23        24     0.09037        1.0080 ; qtot    0.994
        25           h24bf         1   UNL       h24        25     0.09037        1.0080 ; qtot    1.084
        26           n25bf         1   UNL       n25        26    -0.57853       14.0070 ; qtot    0.505
        27           h26bf         1   UNL       h26        27     0.38249        1.0080 ; qtot    0.888
        28           h27bf         1   UNL       h27        28     0.38249        1.0080 ; qtot    1.270
        29           c28bf         1   UNL       c28        29    -0.06870       12.0110 ; qtot    1.202
        30           h29bf         1   UNL       h29        30     0.13279        1.0080 ; qtot    1.334
        31           c30bf         1   UNL       c30        31    -0.01490       12.0110 ; qtot    1.320
        32           c31bf         1   UNL       c31        32    -0.06996       12.0110 ; qtot    1.250
        33           h32bf         1   UNL       h32        33     0.13048        1.0080 ; qtot    1.380
        34           c33bf         1   UNL       c33        34    -0.11647       12.0110 ; qtot    1.264
        35           h34bf         1   UNL       h34        35     0.12796        1.0080 ; qtot    1.392
        36           c35bf         1   UNL       c35        36    -0.07858       12.0110 ; qtot    1.313
        37           h36bf         1   UNL       h36        37     0.12047        1.0080 ; qtot    1.433
        38           o37bf         1   UNL       o37        38    -0.39811       15.9990 ; qtot    1.035
        39           c38bf         1   UNL       c38        39    -0.10005       12.0110 ; qtot    0.935
        40           h39bf         1   UNL       h39        40     0.04877        1.0080 ; qtot    0.984
        41           h40bf         1   UNL       h40        41     0.04877        1.0080 ; qtot    1.033
        42           h41bf         1   UNL       h41        42     0.04877        1.0080 ; qtot    1.082
        43           c42bf         1   UNL       c42        43    -0.10005       12.0110 ; qtot    0.982
        44           h43bf         1   UNL       h43        44     0.04877        1.0080 ; qtot    1.030
        45           h44bf         1   UNL       h44        45     0.04877        1.0080 ; qtot    1.079
        46           h45bf         1   UNL       h45        46     0.04877        1.0080 ; qtot    1.128
        47           c46bf         1   UNL       c46        47     0.31461       12.0110 ; qtot    1.442
        48           n47bf         1   UNL       n47        48    -0.44243       14.0070 ; qtot    1.000

[ bonds ]
;       ai        aj funct               r               k
         1         2     1        0.140687   283074.745947
         1         8     1        0.139978   291177.415381
         1        21     1        0.148165   214496.498633
         2         3     1        0.108592   318492.009717
         2         4     1        0.139082   332814.318750
         4         5     1        0.108562   321104.966748
         4         6     1        0.140026   288678.966748
         6         7     1        0.140470   276536.760742
         6        10     1        0.136436   267339.417578
         7         8     1        0.140023   297895.615967
         7        15     1        0.151265   181133.452710
         8         9     1        0.108506   319358.177393
        10        11     1        0.145731   141482.468188
        11        12     1        0.154147   164699.186426
        11        39     1        0.152988   183033.962695
        11        43     1        0.152988   183033.962695
        12        13     1        0.109298   301656.951270
        12        14     1        0.109298   301656.951270
        12        15     1        0.154171   160537.276025
        15        16     1        0.154381   128485.484058
        15        19     1        0.148548   146191.332397
        16        17     1        0.141843   159362.683911
        16        38     1        0.120598   711921.900781
        17        18     1        0.135797   301738.465723
        17        22     1        0.146668   196952.070361
        18        19     1        0.133090   390989.564893
        18        26     1        0.133332   412686.071777
        19        20     1        0.101348   425202.319824
        21        29     1        0.140298   287704.189746
        21        36     1        0.140693   282525.059668
        22        23     1        0.109031   312124.791162
        22        24     1        0.109031   312124.791162
        22        25     1        0.109031   312124.816699
        26        27     1        0.101316   425666.584473
        26        28     1        0.101316   425666.584473
        29        30     1        0.108468   323932.077979
        29        31     1        0.140385   296987.235449
        31        32     1        0.140601   290528.440820
        31        47     1        0.143728   269364.280518
        32        33     1        0.108482   325629.172119
        32        34     1        0.139492   313800.612891
        34        35     1        0.108558   322731.706152
        34        36     1        0.139711   314751.538232
        36        37     1        0.108563   319994.000342
        39        40     1        0.109316   303222.120703
        39        41     1        0.109316   303222.120703
        39        42     1        0.109316   303222.120703
        43        44     1        0.109316   303222.120703
        43        45     1        0.109316   303222.120703
        43        46     1        0.109316   303222.120703
        47        48     1        0.116528  1106543.276758

[ angles ]
;       ai        aj        ak funct           theta             cth
         1         2         3     1      119.750534      428.859808
         1         2         4     1      120.905724      691.399233
         1         8         7     1      121.769630      644.166434
         1         8         9     1      119.131142      421.562963
         1        21        29     1      120.785606      463.186121
         1        21        36     1      121.071388      497.357678
         2         1         8     1      117.727356      626.919308
         2         1        21     1      121.146523      563.307390
         2         4         5     1      121.209946      430.951681
         2         4         6     1      120.149979      734.422814
         3         2         4     1      119.145973      426.572450
         4         6         7     1      119.925880      589.802844
         4         6        10     1      116.437744      551.331380
         5         4         6     1      118.621658      435.820746
         6         7         8     1      118.894142      739.081357
         6         7        15     1      119.745766      586.516281
         6        10        11     1      117.993736      500.028604
         7         6        10     1      123.637672      514.558357
         7         8         9     1      119.072144      422.141729
         7        15        12     1      111.733620      557.947853
         7        15        16     1      112.067848      601.546658
         7        15        19     1      111.488197      598.667668
         8         1        21     1      121.054077      430.126641
         8         7        15     1      121.302391      442.309470
        10        11        12     1      109.078835      556.881551
        10        11        39     1      106.645714      604.086579
        10        11        43     1      106.645714      604.086579
        11        12        13     1      109.154335      466.471374
        11        12        14     1      109.154335      466.471374
        11        12        15     1      113.052734      640.250254
        11        39        40     1      110.474686      475.605615
        11        39        41     1      110.474686      475.605615
        11        39        42     1      110.474686      475.605615
        11        43        44     1      110.474686      475.605615
        11        43        45     1      110.474686      475.605615
        11        43        46     1      110.474686      475.605615
        12        11        39     1      111.385193      575.618575
        12        11        43     1      111.385193      575.618575
        12        15        16     1      110.797043      616.450307
        12        15        19     1      110.620262      611.566526
        13        12        14     1      107.420326      358.221546
        13        12        15     1      108.621048      474.551156
        14        12        15     1      108.621048      474.551156
        15        16        17     1      106.500320      167.360000
        15        16        38     1      127.583961      359.223303
        15        19        18     1      111.587624      619.880132
        15        19        20     1      121.368065      359.917625
        16        15        19     1      100.386848      329.498044
        16        17        18     1      109.401268      854.894893
        16        17        22     1      123.309692      531.050510
        17        16        38     1      124.771469      662.663728
        17        18        19     1      111.171402      582.762773
        17        18        26     1      123.442459      642.331720
        17        22        23     1      109.308334      484.616097
        17        22        24     1      109.308334      484.616097
        17        22        25     1      109.308334      484.616097
        18        17        22     1      126.712746      464.666028
        18        19        20     1      123.566017      425.702688
        18        26        27     1      120.916794      453.685646
        18        26        28     1      120.916794      453.685646
        19        18        26     1      125.735672      609.105451
        21        29        30     1      120.318398      413.709918
        21        29        31     1      120.604576      668.759564
        21        36        34     1      121.160645      720.398663
        21        36        37     1      119.475121      426.757689
        23        22        24     1      109.761864      350.063653
        23        22        25     1      109.761864      350.063653
        24        22        25     1      109.761864      350.063653
        27        26        28     1      117.283279      315.513827
        29        21        36     1      118.207138      654.407517
        29        31        32     1      120.432297      699.778724
        29        31        47     1      119.557449      465.747748
        30        29        31     1      119.172684      421.394705
        31        32        33     1      119.848129      421.363997
        31        32        34     1      119.098671      653.808225
        31        47        48     1      179.633789      167.360000
        32        31        47     1      119.810059      484.895377
        32        34        35     1      119.855690      438.103221
        32        34        36     1      120.406570      729.311944
        33        32        34     1      121.071838      417.260534
        34        36        37     1      119.395737      427.485274
        35        34        36     1      119.842812      435.237574
        39        11        43     1      111.043091      610.311568
        40        39        41     1      108.427734      360.868117
        40        39        42     1      108.427734      360.868117
        41        39        42     1      108.427734      360.868117
        44        43        45     1      108.427734      360.868117
        44        43        46     1      108.427734      360.868117
        45        43        46     1      108.427734      360.868117

[ dihedrals ] ; propers for gromacs 4.5 or higher, use funct 9
;       ai        aj        ak        al funct           phase               k        pn
         1         2         4         5     9        0.000000       -0.032205         1
         1         2         4         5     9      180.000000       14.487368         2
         1         2         4         5     9        0.000000       -0.493776         3
         1         2         4         5     9      180.000000        0.142756         4
         1         2         4         6     9        0.000000        0.052780         1
         1         2         4         6     9      180.000000       18.982414         2
         1         2         4         6     9        0.000000       -1.461787         3
         1         2         4         6     9      180.000000       -0.476613         4
         1         8         7         6     9        0.000000        0.035852         1
         1         8         7         6     9      180.000000       18.983597         2
         1         8         7         6     9        0.000000       -1.292394         3
         1         8         7         6     9      180.000000       -0.481094         4
         1         8         7        15     9        0.000000        0.225888         1
         1         8         7        15     9      180.000000       16.414972         2
         1         8         7        15     9        0.000000       -0.117716         3
         1         8         7        15     9      180.000000       -0.363134         4
         1        21        29        30     9        0.000000       -0.121018         1
         1        21        29        30     9      180.000000       13.333841         2
         1        21        29        30     9        0.000000       -0.261485         3
         1        21        29        30     9      180.000000        0.201109         4
         1        21        29        31     9        0.000000        0.156621         1
         1        21        29        31     9      180.000000       16.627734         2
         1        21        29        31     9        0.000000       -0.113293         3
         1        21        29        31     9      180.000000       -0.352882         4
         1        21        36        34     9        0.000000        0.330006         1
         1        21        36        34     9      180.000000       16.399602         2
         1        21        36        34     9        0.000000       -0.081974         3
         1        21        36        34     9      180.000000       -0.322513         4
         1        21        36        37     9        0.000000       -0.061211         1
         1        21        36        37     9      180.000000       13.584248         2
         1        21        36        37     9        0.000000       -0.241465         3
         1        21        36        37     9      180.000000        0.137517         4
         2         1         8         7     9        0.000000       -0.093965         1
         2         1         8         7     9      180.000000       18.482856         2
         2         1         8         7     9        0.000000       -1.826227         3
         2         1         8         7     9      180.000000       -0.431502         4
         2         1         8         9     9        0.000000       -0.059032         1
         2         1         8         9     9      180.000000       14.448306         2
         2         1         8         9     9        0.000000       -0.602261         3
         2         1         8         9     9      180.000000        0.076911         4
         2         1        21        29     9        0.000000        0.069434         1
         2         1        21        29     9      180.000000        3.537876         2
         2         1        21        29     9        0.000000        0.069334         3
         2         1        21        29     9      180.000000        0.006571         4
         2         1        21        36     9        0.000000        0.074477         1
         2         1        21        36     9      180.000000        3.505929         2
         2         1        21        36     9        0.000000        0.091836         3
         2         1        21        36     9      180.000000        0.002696         4
         2         4         6         7     9        0.000000        0.003421         1
         2         4         6         7     9      180.000000       18.393486         2
         2         4         6         7     9        0.000000       -0.952192         3
         2         4         6         7     9      180.000000       -0.528169         4
         2         4         6        10     9        0.000000        0.453909         1
         2         4         6        10     9      180.000000       20.115699         2
         2         4         6        10     9        0.000000        0.712090         3
         2         4         6        10     9      180.000000       -0.566591         4
         3         2         1         8     9        0.000000       -0.145679         1
         3         2         1         8     9      180.000000       13.930078         2
         3         2         1         8     9        0.000000       -0.795354         3
         3         2         1         8     9      180.000000        0.073180         4
         3         2         1        21     9        0.000000       -0.117420         1
         3         2         1        21     9      180.000000       13.177940         2
         3         2         1        21     9        0.000000       -0.294952         3
         3         2         1        21     9      180.000000        0.146552         4
         3         2         4         5     9        0.000000       -0.101728         1
         3         2         4         5     9      180.000000       12.219593         2
         3         2         4         5     9        0.000000       -0.707685         3
         3         2         4         5     9      180.000000        0.368380         4
         3         2         4         6     9        0.000000        0.136480         1
         3         2         4         6     9      180.000000       14.623831         2
         3         2         4         6     9        0.000000       -0.535734         3
         3         2         4         6     9      180.000000        0.133918         4
         4         2         1         8     9        0.000000       -0.175622         1
         4         2         1         8     9      180.000000       18.096268         2
         4         2         1         8     9        0.000000       -1.595228         3
         4         2         1         8     9      180.000000       -0.311981         4
         4         2         1        21     9        0.000000        0.199337         1
         4         2         1        21     9      180.000000       16.210824         2
         4         2         1        21     9        0.000000       -0.251193         3
         4         2         1        21     9      180.000000       -0.327942         4
         4         6         7         8     9        0.000000       -0.099981         1
         4         6         7         8     9      180.000000       15.402617         2
         4         6         7         8     9        0.000000       -0.818311         3
         4         6         7         8     9      180.000000       -0.311874         4
         4         6         7        15     9        0.000000        0.317601         1
         4         6         7        15     9      180.000000       12.594617         2
         4         6         7        15     9        0.000000        0.140950         3
         4         6         7        15     9      180.000000       -0.263644         4
         4         6        10        11     9        0.000000       -0.524440         1
         4         6        10        11     9      180.000000        0.965350         2
         4         6        10        11     9        0.000000        0.127626         3
         4         6        10        11     9      180.000000        0.274670         4
         5         4         6         7     9        0.000000        0.029945         1
         5         4         6         7     9      180.000000       13.435392         2
         5         4         6         7     9        0.000000       -0.361852         3
         5         4         6         7     9      180.000000       -0.014588         4
         5         4         6        10     9        0.000000        0.018714         1
         5         4         6        10     9      180.000000       16.055862         2
         5         4         6        10     9        0.000000        0.173212         3
         5         4         6        10     9      180.000000        0.104013         4
         6         7         8         9     9        0.000000        0.268573         1
         6         7         8         9     9      180.000000       14.612480         2
         6         7         8         9     9        0.000000       -0.273898         3
         6         7         8         9     9      180.000000        0.027503         4
         6         7        15        12     9        0.000000        0.442429         1
         6         7        15        12     9      180.000000       -0.582160         2
         6         7        15        12     9        0.000000        0.566510         3
         6         7        15        12     9      180.000000        0.177976         4
         6         7        15        16     9        0.000000        0.102814         1
         6         7        15        16     9      180.000000       -0.121196         2
         6         7        15        16     9        0.000000       -0.091766         3
         6         7        15        16     9      180.000000        0.098350         4
         6         7        15        19     9        0.000000       -1.211495         1
         6         7        15        19     9      180.000000        1.208789         2
         6         7        15        19     9        0.000000        0.479329         3
         6         7        15        19     9      180.000000       -0.237524         4
         6        10        11        12     9        0.000000        6.552491         1
         6        10        11        12     9      180.000000       -3.144803         2
         6        10        11        12     9        0.000000       -0.417738         3
         6        10        11        12     9      180.000000        0.734854         4
         6        10        11        39     9        0.000000       -0.601019         1
         6        10        11        39     9      180.000000        0.475001         2
         6        10        11        39     9        0.000000        0.451956         3
         6        10        11        39     9      180.000000        0.038632         4
         6        10        11        43     9        0.000000       -0.601019         1
         6        10        11        43     9      180.000000        0.475001         2
         6        10        11        43     9        0.000000        0.451956         3
         6        10        11        43     9      180.000000        0.038632         4
         7         6        10        11     9        0.000000        1.640771         1
         7         6        10        11     9      180.000000        0.065588         2
         7         6        10        11     9        0.000000       -0.117565         3
         7         6        10        11     9      180.000000        0.605195         4
         7         8         1        21     9        0.000000        0.025057         1
         7         8         1        21     9      180.000000       17.114442         2
         7         8         1        21     9        0.000000       -0.266911         3
         7         8         1        21     9      180.000000       -0.501669         4
         7        15        12        11     9        0.000000        1.224939         1
         7        15        12        11     9      180.000000       -1.112698         2
         7        15        12        11     9        0.000000        0.379613         3
         7        15        12        11     9      180.000000        0.212213         4
         7        15        12        13     9        0.000000        0.060303         1
         7        15        12        13     9      180.000000        0.038717         2
         7        15        12        13     9        0.000000        0.531071         3
         7        15        12        13     9      180.000000        0.004443         4
         7        15        12        14     9        0.000000        0.060303         1
         7        15        12        14     9      180.000000        0.038717         2
         7        15        12        14     9        0.000000        0.531071         3
         7        15        12        14     9      180.000000        0.004443         4
         7        15        16        17     9        0.000000        0.204138         1
         7        15        16        17     9      180.000000        2.054007         2
         7        15        16        17     9        0.000000        0.314617         3
         7        15        16        17     9      180.000000        0.636535         4
         7        15        16        38     9        0.000000       -1.028429         1
         7        15        16        38     9      180.000000        1.994955         2
         7        15        16        38     9        0.000000       -0.383167         3
         7        15        16        38     9      180.000000        0.534449         4
         7        15        19        18     9        0.000000        1.475577         1
         7        15        19        18     9      180.000000        0.330887         2
         7        15        19        18     9        0.000000        0.426833         3
         7        15        19        18     9      180.000000        0.176206         4
         7        15        19        20     9        0.000000        1.133225         1
         7        15        19        20     9      180.000000       -0.176846         2
         7        15        19        20     9        0.000000        0.307694         3
         7        15        19        20     9      180.000000        0.155610         4
         8         1        21        29     9        0.000000       -0.026997         1
         8         1        21        29     9      180.000000        3.624481         2
         8         1        21        29     9        0.000000        0.072689         3
         8         1        21        29     9      180.000000       -0.009890         4
         8         1        21        36     9        0.000000       -0.030838         1
         8         1        21        36     9      180.000000        3.594167         2
         8         1        21        36     9        0.000000        0.101926         3
         8         1        21        36     9      180.000000       -0.025832         4
         8         7         6        10     9        0.000000        0.065874         1
         8         7         6        10     9      180.000000       16.858075         2
         8         7         6        10     9        0.000000        0.609920         3
         8         7         6        10     9      180.000000       -0.441368         4
         8         7        15        12     9        0.000000       -0.413872         1
         8         7        15        12     9      180.000000        0.649232         2
         8         7        15        12     9        0.000000       -0.252932         3
         8         7        15        12     9      180.000000        0.237556         4
         8         7        15        16     9        0.000000       -0.864112         1
         8         7        15        16     9      180.000000       -0.269346         2
         8         7        15        16     9        0.000000       -0.294400         3
         8         7        15        16     9      180.000000        0.217114         4
         8         7        15        19     9        0.000000       -0.231744         1
         8         7        15        19     9      180.000000        1.872503         2
         8         7        15        19     9        0.000000       -0.163923         3
         8         7        15        19     9      180.000000       -0.004626         4
         9         8         1        21     9        0.000000       -0.075198         1
         9         8         1        21     9      180.000000       13.159724         2
         9         8         1        21     9        0.000000       -0.193861         3
         9         8         1        21     9      180.000000        0.174152         4
         9         8         7        15     9        0.000000       -0.093180         1
         9         8         7        15     9      180.000000       13.464457         2
         9         8         7        15     9        0.000000       -0.230321         3
         9         8         7        15     9      180.000000        0.078223         4
        10         6         7        15     9        0.000000        0.652877         1
        10         6         7        15     9      180.000000       13.735837         2
        10         6         7        15     9        0.000000        0.969375         3
        10         6         7        15     9      180.000000       -0.661470         4
        10        11        12        13     9        0.000000        0.010187         1
        10        11        12        13     9      180.000000        0.032223         2
        10        11        12        13     9        0.000000        0.118020         3
        10        11        12        13     9      180.000000        0.005280         4
        10        11        12        14     9        0.000000        0.010187         1
        10        11        12        14     9      180.000000        0.032223         2
        10        11        12        14     9        0.000000        0.118020         3
        10        11        12        14     9      180.000000        0.005280         4
        10        11        12        15     9        0.000000        6.398275         1
        10        11        12        15     9      180.000000       -3.171040         2
        10        11        12        15     9        0.000000       -0.812227         3
        10        11        12        15     9      180.000000        0.264324         4
        10        11        39        40     9        0.000000        0.022757         1
        10        11        39        40     9      180.000000       -0.106326         2
        10        11        39        40     9        0.000000        0.371208         3
        10        11        39        40     9      180.000000        0.017378         4
        10        11        39        41     9        0.000000        0.022757         1
        10        11        39        41     9      180.000000       -0.106326         2
        10        11        39        41     9        0.000000        0.371208         3
        10        11        39        41     9      180.000000        0.017378         4
        10        11        39        42     9        0.000000        0.022757         1
        10        11        39        42     9      180.000000       -0.106326         2
        10        11        39        42     9        0.000000        0.371208         3
        10        11        39        42     9      180.000000        0.017378         4
        10        11        43        44     9        0.000000        0.022757         1
        10        11        43        44     9      180.000000       -0.106326         2
        10        11        43        44     9        0.000000        0.371208         3
        10        11        43        44     9      180.000000        0.017378         4
        10        11        43        45     9        0.000000        0.022757         1
        10        11        43        45     9      180.000000       -0.106326         2
        10        11        43        45     9        0.000000        0.371208         3
        10        11        43        45     9      180.000000        0.017378         4
        10        11        43        46     9        0.000000        0.022757         1
        10        11        43        46     9      180.000000       -0.106326         2
        10        11        43        46     9        0.000000        0.371208         3
        10        11        43        46     9      180.000000        0.017378         4
        11        12        15        16     9        0.000000       -0.158489         1
        11        12        15        16     9      180.000000        0.109710         2
        11        12        15        16     9        0.000000        0.008060         3
        11        12        15        16     9      180.000000        0.059205         4
        11        12        15        19     9        0.000000       -1.376753         1
        11        12        15        19     9      180.000000       -0.656378         2
        11        12        15        19     9        0.000000        0.372563         3
        11        12        15        19     9      180.000000        0.291438         4
        12        11        39        40     9        0.000000       -0.089919         1
        12        11        39        40     9      180.000000        0.000423         2
        12        11        39        40     9        0.000000        0.433042         3
        12        11        39        40     9      180.000000        0.019250         4
        12        11        39        41     9        0.000000       -0.089919         1
        12        11        39        41     9      180.000000        0.000423         2
        12        11        39        41     9        0.000000        0.433042         3
        12        11        39        41     9      180.000000        0.019250         4
        12        11        39        42     9        0.000000       -0.089919         1
        12        11        39        42     9      180.000000        0.000423         2
        12        11        39        42     9        0.000000        0.433042         3
        12        11        39        42     9      180.000000        0.019250         4
        12        11        43        44     9        0.000000       -0.089919         1
        12        11        43        44     9      180.000000        0.000423         2
        12        11        43        44     9        0.000000        0.433042         3
        12        11        43        44     9      180.000000        0.019250         4
        12        11        43        45     9        0.000000       -0.089919         1
        12        11        43        45     9      180.000000        0.000423         2
        12        11        43        45     9        0.000000        0.433042         3
        12        11        43        45     9      180.000000        0.019250         4
        12        11        43        46     9        0.000000       -0.089919         1
        12        11        43        46     9      180.000000        0.000423         2
        12        11        43        46     9        0.000000        0.433042         3
        12        11        43        46     9      180.000000        0.019250         4
        12        15        16        17     9        0.000000       -0.141660         1
        12        15        16        17     9      180.000000        3.066579         2
        12        15        16        17     9        0.000000        0.134318         3
        12        15        16        17     9      180.000000        0.386088         4
        12        15        16        38     9        0.000000        1.080604         1
        12        15        16        38     9      180.000000        2.732702         2
        12        15        16        38     9        0.000000       -0.579963         3
        12        15        16        38     9      180.000000        0.528779         4
        12        15        19        18     9        0.000000       -0.582310         1
        12        15        19        18     9      180.000000        0.755302         2
        12        15        19        18     9        0.000000        0.351235         3
        12        15        19        18     9      180.000000        0.157736         4
        12        15        19        20     9        0.000000        0.171427         1
        12        15        19        20     9      180.000000       -0.174988         2
        12        15        19        20     9        0.000000        0.231541         3
        12        15        19        20     9      180.000000       -0.054083         4
        13        12        11        39     9        0.000000       -0.021980         1
        13        12        11        39     9      180.000000       -0.009422         2
        13        12        11        39     9        0.000000        0.356718         3
        13        12        11        39     9      180.000000       -0.000954         4
        13        12        11        43     9        0.000000       -0.021980         1
        13        12        11        43     9      180.000000       -0.009422         2
        13        12        11        43     9        0.000000        0.356718         3
        13        12        11        43     9      180.000000       -0.000954         4
        13        12        15        16     9        0.000000       -0.120531         1
        13        12        15        16     9      180.000000        0.006259         2
        13        12        15        16     9        0.000000        0.249160         3
        13        12        15        16     9      180.000000        0.015556         4
        13        12        15        19     9        0.000000        0.048077         1
        13        12        15        19     9      180.000000        0.031139         2
        13        12        15        19     9        0.000000        0.441342         3
        13        12        15        19     9      180.000000       -0.090829         4
        14        12        11        39     9        0.000000       -0.021980         1
        14        12        11        39     9      180.000000       -0.009422         2
        14        12        11        39     9        0.000000        0.356718         3
        14        12        11        39     9      180.000000       -0.000954         4
        14        12        11        43     9        0.000000       -0.021980         1
        14        12        11        43     9      180.000000       -0.009422         2
        14        12        11        43     9        0.000000        0.356718         3
        14        12        11        43     9      180.000000       -0.000954         4
        14        12        15        16     9        0.000000       -0.120531         1
        14        12        15        16     9      180.000000        0.006259         2
        14        12        15        16     9        0.000000        0.249160         3
        14        12        15        16     9      180.000000        0.015556         4
        14        12        15        19     9        0.000000        0.048077         1
        14        12        15        19     9      180.000000        0.031139         2
        14        12        15        19     9        0.000000        0.441342         3
        14        12        15        19     9      180.000000       -0.090829         4
        15        12        11        39     9        0.000000       -0.491719         1
        15        12        11        39     9      180.000000        0.610387         2
        15        12        11        39     9        0.000000        0.252005         3
        15        12        11        39     9      180.000000       -0.014027         4
        15        12        11        43     9        0.000000       -0.491719         1
        15        12        11        43     9      180.000000        0.610387         2
        15        12        11        43     9        0.000000        0.252005         3
        15        12        11        43     9      180.000000       -0.014027         4
        15        16        17        18     9        0.000000       -2.621426         1
        15        16        17        18     9      180.000000       12.608727         2
        15        16        17        18     9        0.000000       -1.689385         3
        15        16        17        18     9      180.000000       -0.516965         4
        15        16        17        22     9        0.000000       -1.161959         1
        15        16        17        22     9      180.000000        6.523790         2
        15        16        17        22     9        0.000000        0.171203         3
        15        16        17        22     9      180.000000       -0.171941         4
        15        19        18        17     9        0.000000       -1.486140         1
        15        19        18        17     9      180.000000       26.058799         2
        15        19        18        17     9        0.000000       -2.115652         3
        15        19        18        17     9      180.000000       -2.999679         4
        15        19        18        26     9        0.000000        1.704033         1
        15        19        18        26     9      180.000000       19.771991         2
        15        19        18        26     9        0.000000        0.715132         3
        15        19        18        26     9      180.000000       -2.025611         4
        16        15        19        18     9        0.000000       -3.202930         1
        16        15        19        18     9      180.000000        3.675471         2
        16        15        19        18     9        0.000000       -0.128940         3
        16        15        19        18     9      180.000000       -0.635128         4
        16        15        19        20     9        0.000000       -0.882341         1
        16        15        19        20     9      180.000000       -0.826404         2
        16        15        19        20     9        0.000000        0.165262         3
        16        15        19        20     9      180.000000        0.141885         4
        16        17        18        19     9        0.000000       -2.490328         1
        16        17        18        19     9      180.000000       13.834040         2
        16        17        18        19     9        0.000000       -2.378247         3
        16        17        18        19     9      180.000000       -1.280421         4
        16        17        18        26     9        0.000000        1.935113         1
        16        17        18        26     9      180.000000       11.081021         2
        16        17        18        26     9        0.000000       -0.210529         3
        16        17        18        26     9      180.000000       -0.637296         4
        16        17        22        23     9        0.000000       -0.046462         1
        16        17        22        23     9      180.000000       -0.089247         2
        16        17        22        23     9        0.000000       -0.283225         3
        16        17        22        23     9      180.000000        0.030104         4
        16        17        22        24     9        0.000000       -0.046462         1
        16        17        22        24     9      180.000000       -0.089247         2
        16        17        22        24     9        0.000000       -0.283225         3
        16        17        22        24     9      180.000000        0.030104         4
        16        17        22        25     9        0.000000       -0.046462         1
        16        17        22        25     9      180.000000       -0.089247         2
        16        17        22        25     9        0.000000       -0.283225         3
        16        17        22        25     9      180.000000        0.030104         4
        17        16        15        19     9        0.000000        0.490408         1
        17        16        15        19     9      180.000000        7.821340         2
        17        16        15        19     9        0.000000       -0.339097         3
        17        16        15        19     9      180.000000       -0.046198         4
        17        18        19        20     9        0.000000        0.456219         1
        17        18        19        20     9      180.000000       11.615587         2
        17        18        19        20     9        0.000000        0.224486         3
        17        18        19        20     9      180.000000       -0.965494         4
        17        18        26        27     9        0.000000       -0.170244         1
        17        18        26        27     9      180.000000        6.404527         2
        17        18        26        27     9        0.000000        0.524424         3
        17        18        26        27     9      180.000000       -0.541232         4
        17        18        26        28     9        0.000000       -0.170244         1
        17        18        26        28     9      180.000000        6.404527         2
        17        18        26        28     9        0.000000        0.524424         3
        17        18        26        28     9      180.000000       -0.541232         4
        18        17        16        38     9        0.000000        1.168478         1
        18        17        16        38     9      180.000000       20.631698         2
        18        17        16        38     9        0.000000       -0.713105         3
        18        17        16        38     9      180.000000       -0.822735         4
        18        17        22        23     9        0.000000        0.029063         1
        18        17        22        23     9      180.000000        0.021416         2
        18        17        22        23     9        0.000000        0.188894         3
        18        17        22        23     9      180.000000       -0.011671         4
        18        17        22        24     9        0.000000        0.029063         1
        18        17        22        24     9      180.000000        0.021416         2
        18        17        22        24     9        0.000000        0.188894         3
        18        17        22        24     9      180.000000       -0.011671         4
        18        17        22        25     9        0.000000        0.029063         1
        18        17        22        25     9      180.000000        0.021417         2
        18        17        22        25     9        0.000000        0.188894         3
        18        17        22        25     9      180.000000       -0.011671         4
        19        15        16        38     9        0.000000        7.981292         1
        19        15        16        38     9      180.000000        7.024952         2
        19        15        16        38     9        0.000000       -0.163171         3
        19        15        16        38     9      180.000000        0.325120         4
        19        18        17        22     9        0.000000       -3.776014         1
        19        18        17        22     9      180.000000        5.458345         2
        19        18        17        22     9        0.000000       -0.154527         3
        19        18        17        22     9      180.000000        0.081931         4
        19        18        26        27     9        0.000000       -1.696700         1
        19        18        26        27     9      180.000000        6.696568         2
        19        18        26        27     9        0.000000        0.180424         3
        19        18        26        27     9      180.000000       -0.442659         4
        19        18        26        28     9        0.000000       -1.696700         1
        19        18        26        28     9      180.000000        6.696568         2
        19        18        26        28     9        0.000000        0.180424         3
        19        18        26        28     9      180.000000       -0.442659         4
        20        19        18        26     9        0.000000        0.829726         1
        20        19        18        26     9      180.000000        7.727449         2
        20        19        18        26     9        0.000000        0.246605         3
        20        19        18        26     9      180.000000       -0.383134         4
        21        29        31        32     9        0.000000       -0.105288         1
        21        29        31        32     9      180.000000       18.483943         2
        21        29        31        32     9        0.000000       -1.541260         3
        21        29        31        32     9      180.000000       -0.422515         4
        21        29        31        47     9        0.000000       -0.007844         1
        21        29        31        47     9      180.000000       16.566077         2
        21        29        31        47     9        0.000000       -0.013991         3
        21        29        31        47     9      180.000000       -0.324360         4
        21        36        34        32     9        0.000000       -0.000174         1
        21        36        34        32     9      180.000000       18.824221         2
        21        36        34        32     9        0.000000       -1.425043         3
        21        36        34        32     9      180.000000       -0.397574         4
        21        36        34        35     9        0.000000       -0.087158         1
        21        36        34        35     9      180.000000       14.953895         2
        21        36        34        35     9        0.000000       -0.591993         3
        21        36        34        35     9      180.000000        0.055526         4
        22        17        16        38     9        0.000000       -0.327768         1
        22        17        16        38     9      180.000000        9.752935         2
        22        17        16        38     9        0.000000       -0.183564         3
        22        17        16        38     9      180.000000        0.446364         4
        22        17        18        26     9        0.000000        1.331771         1
        22        17        18        26     9      180.000000        6.631611         2
        22        17        18        26     9        0.000000        0.055652         3
        22        17        18        26     9      180.000000       -0.063283         4
        29        21        36        34     9        0.000000       -0.192073         1
        29        21        36        34     9      180.000000       18.177546         2
        29        21        36        34     9        0.000000       -1.343682         3
        29        21        36        34     9      180.000000       -0.363806         4
        29        21        36        37     9        0.000000       -0.150278         1
        29        21        36        37     9      180.000000       14.304976         2
        29        21        36        37     9        0.000000       -0.582144         3
        29        21        36        37     9      180.000000       -0.000982         4
        29        31        32        33     9        0.000000       -0.070539         1
        29        31        32        33     9      180.000000       14.167914         2
        29        31        32        33     9        0.000000       -0.628573         3
        29        31        32        33     9      180.000000       -0.000149         4
        29        31        32        34     9        0.000000       -0.081862         1
        29        31        32        34     9      180.000000       18.296850         2
        29        31        32        34     9        0.000000       -1.507557         3
        29        31        32        34     9      180.000000       -0.452367         4
        29        31        47        48     9        0.000000        0.000000         1
        29        31        47        48     9      180.000000        0.000000         2
        29        31        47        48     9        0.000000        0.000000         3
        29        31        47        48     9      180.000000        0.000000         4
        30        29        21        36     9        0.000000       -0.124868         1
        30        29        21        36     9      180.000000       14.370516         2
        30        29        21        36     9        0.000000       -0.616174         3
        30        29        21        36     9      180.000000        0.024376         4
        30        29        31        32     9        0.000000        0.002259         1
        30        29        31        32     9      180.000000       14.331790         2
        30        29        31        32     9        0.000000       -0.667843         3
        30        29        31        32     9      180.000000        0.059150         4
        30        29        31        47     9        0.000000        0.030039         1
        30        29        31        47     9      180.000000       13.027889         2
        30        29        31        47     9        0.000000       -0.246896         3
        30        29        31        47     9      180.000000        0.169636         4
        31        29        21        36     9        0.000000       -0.241773         1
        31        29        21        36     9      180.000000       18.373130         2
        31        29        21        36     9        0.000000       -1.352671         3
        31        29        21        36     9      180.000000       -0.384003         4
        31        32        34        35     9        0.000000       -0.053375         1
        31        32        34        35     9      180.000000       14.567668         2
        31        32        34        35     9        0.000000       -0.547322         3
        31        32        34        35     9      180.000000        0.093682         4
        31        32        34        36     9        0.000000       -0.101917         1
        31        32        34        36     9      180.000000       19.020109         2
        31        32        34        36     9        0.000000       -1.425103         3
        31        32        34        36     9      180.000000       -0.510815         4
        32        31        47        48     9        0.000000        0.000000         1
        32        31        47        48     9      180.000000        0.000000         2
        32        31        47        48     9        0.000000        0.000000         3
        32        31        47        48     9      180.000000        0.000000         4
        32        34        36        37     9        0.000000        0.041066         1
        32        34        36        37     9      180.000000       14.732760         2
        32        34        36        37     9        0.000000       -0.623870         3
        32        34        36        37     9      180.000000        0.125248         4
        33        32        31        47     9        0.000000        0.059637         1
        33        32        31        47     9      180.000000       12.875504         2
        33        32        31        47     9        0.000000       -0.281126         3
        33        32        31        47     9      180.000000        0.119643         4
        33        32        34        35     9        0.000000       -0.199045         1
        33        32        34        35     9      180.000000       11.701936         2
        33        32        34        35     9        0.000000       -0.625894         3
        33        32        34        35     9      180.000000        0.290637         4
        33        32        34        36     9        0.000000       -0.053111         1
        33        32        34        36     9      180.000000       14.440586         2
        33        32        34        36     9        0.000000       -0.634058         3
        33        32        34        36     9      180.000000        0.064422         4
        34        32        31        47     9        0.000000        0.057654         1
        34        32        31        47     9      180.000000       16.759546         2
        34        32        31        47     9        0.000000       -0.041341         3
        34        32        31        47     9      180.000000       -0.266341         4
        35        34        36        37     9        0.000000       -0.173870         1
        35        34        36        37     9      180.000000       12.062453         2
        35        34        36        37     9        0.000000       -0.671445         3
        35        34        36        37     9      180.000000        0.298143         4
        39        11        43        44     9        0.000000       -0.082665         1
        39        11        43        44     9      180.000000        0.011908         2
        39        11        43        44     9        0.000000        0.531653         3
        39        11        43        44     9      180.000000        0.044561         4
        39        11        43        45     9        0.000000       -0.082665         1
        39        11        43        45     9      180.000000        0.011908         2
        39        11        43        45     9        0.000000        0.531653         3
        39        11        43        45     9      180.000000        0.044561         4
        39        11        43        46     9        0.000000       -0.082665         1
        39        11        43        46     9      180.000000        0.011908         2
        39        11        43        46     9        0.000000        0.531653         3
        39        11        43        46     9      180.000000        0.044561         4
        40        39        11        43     9        0.000000       -0.082665         1
        40        39        11        43     9      180.000000        0.011908         2
        40        39        11        43     9        0.000000        0.531653         3
        40        39        11        43     9      180.000000        0.044561         4
        41        39        11        43     9        0.000000       -0.082665         1
        41        39        11        43     9      180.000000        0.011908         2
        41        39        11        43     9        0.000000        0.531653         3
        41        39        11        43     9      180.000000        0.044561         4
        42        39        11        43     9        0.000000       -0.082665         1
        42        39        11        43     9      180.000000        0.011908         2
        42        39        11        43     9        0.000000        0.531653         3
        42        39        11        43     9      180.000000        0.044561         4

[ dihedrals ] ; impropers
;       ai        aj        ak        al funct           phase               k        pn
        16        15        17        38     4      180.000000       26.920058         2
        16        17        38        15     4      180.000000       26.920058         2
        16        38        15        17     4      180.000000       26.920058         2
        18        17        19        26     4      180.000000       10.189567         2
        18        19        26        17     4      180.000000       10.189567         2
        18        26        17        19     4      180.000000       10.189567         2

[ pairs ]
;       ai        aj funct
         1         5     1
         1         6     1
         1        15     1
         1        30     1
         1        31     1
         1        34     1
         1        37     1
         2         7     1
         2         9     1
         2        10     1
         2        29     1
         2        36     1
         3         5     1
         3         6     1
         3         8     1
         3        21     1
         4         8     1
         4        11     1
         4        15     1
         4        21     1
         5         7     1
         5        10     1
         6         9     1
         6        12     1
         6        16     1
         6        19     1
         6        39     1
         6        43     1
         7        11     1
         7        13     1
         7        14     1
         7        17     1
         7        18     1
         7        20     1
         7        21     1
         7        38     1
         8        10     1
         8        12     1
         8        16     1
         8        19     1
         8        29     1
         8        36     1
         9        15     1
         9        21     1
        10        13     1
        10        14     1
        10        15     1
        10        40     1
        10        41     1
        10        42     1
        10        44     1
        10        45     1
        10        46     1
        11        16     1
        11        19     1
        12        17     1
        12        18     1
        12        20     1
        12        38     1
        12        40     1
        12        41     1
        12        42     1
        12        44     1
        12        45     1
        12        46     1
        13        16     1
        13        19     1
        13        39     1
        13        43     1
        14        16     1
        14        19     1
        14        39     1
        14        43     1
        15        22     1
        15        26     1
        15        39     1
        15        43     1
        16        20     1
        16        23     1
        16        24     1
        16        25     1
        16        26     1
        17        20     1
        17        27     1
        17        28     1
        18        23     1
        18        24     1
        18        25     1
        18        38     1
        19        22     1
        19        27     1
        19        28     1
        19        38     1
        20        26     1
        21        32     1
        21        35     1
        21        47     1
        22        26     1
        22        38     1
        29        33     1
        29        34     1
        29        37     1
        29        48     1
        30        32     1
        30        36     1
        30        47     1
        31        35     1
        31        36     1
        32        37     1
        32        48     1
        33        35     1
        33        36     1
        33        47     1
        34        47     1
        35        37     1
        39        44     1
        39        45     1
        39        46     1
        40        43     1
        41        43     1
        42        43     1
