; ITP file created by ByteFF-ML, 2026-03-14 15:25:40.203061

[ atomtypes ]
;name           bonded.type        at.num        mass        charge   ptype           sigma         epsilon
 c0bf                                   6      0.0000       0.00000       A     3.31434e-01     4.11660e-01
 c1bf                                   6      0.0000       0.00000       A     3.31568e-01     4.13143e-01
 h2bf                                   1      0.0000       0.00000       A     2.62485e-01     6.75153e-02
 c3bf                                   6      0.0000       0.00000       A     3.31523e-01     4.12056e-01
 h4bf                                   1      0.0000       0.00000       A     2.62405e-01     6.67253e-02
 c5bf                                   6      0.0000       0.00000       A     3.31279e-01     4.11283e-01
 c6bf                                   6      0.0000       0.00000       A     3.31150e-01     4.13198e-01
 c7bf                                   6      0.0000       0.00000       A     3.31448e-01     4.13506e-01
 h8bf                                   1      0.0000       0.00000       A     2.62592e-01     6.73030e-02
 o9bf                                   8      0.0000       0.00000       A     3.15529e-01     3.02270e-01
 c10bf                                  6      0.0000       0.00000       A     3.39880e-01     4.53386e-01
 c11bf                                  6      0.0000       0.00000       A     3.39567e-01     4.51771e-01
 h12bf                                  1      0.0000       0.00000       A     2.59417e-01     8.63170e-02
 h13bf                                  1      0.0000       0.00000       A     2.59417e-01     8.63170e-02
 c14bf                                  6      0.0000       0.00000       A     3.39917e-01     4.52880e-01
 c15bf                                  6      0.0000       0.00000       A     3.31525e-01     4.13256e-01
 n16bf                                  7      0.0000       0.00000       A     3.18147e-01     7.08350e-01
 c17bf                                  6      0.0000       0.00000       A     3.31173e-01     4.11985e-01
 n18bf                                  7      0.0000       0.00000       A     3.26363e-01     6.55753e-01
 h19bf                                  1      0.0000       0.00000       A     1.10240e-01     4.07109e-02
 c20bf                                  6      0.0000       0.00000       A     3.31467e-01     4.12287e-01
 c21bf                                  6      0.0000       0.00000       A     3.39925e-01     4.53383e-01
 h22bf                                  1      0.0000       0.00000       A     2.42238e-01     8.60936e-02
 h23bf                                  1      0.0000       0.00000       A     2.42238e-01     8.60936e-02
 h24bf                                  1      0.0000       0.00000       A     2.42238e-01     8.60936e-02
 n25bf                                  7      0.0000       0.00000       A     3.36693e-01     4.77150e-01
 h26bf                                  1      0.0000       0.00000       A     1.10539e-01     3.88978e-02
 h27bf                                  1      0.0000       0.00000       A     1.10539e-01     3.88978e-02
 c28bf                                  6      0.0000       0.00000       A     3.31521e-01     4.12809e-01
 h29bf                                  1      0.0000       0.00000       A     2.62482e-01     6.75153e-02
 c30bf                                  6      0.0000       0.00000       A     3.31533e-01     4.12632e-01
 h31bf                                  1      0.0000       0.00000       A     2.62487e-01     6.70190e-02
 c32bf                                  6      0.0000       0.00000       A     3.31402e-01     4.13623e-01
 o33bf                                  8      0.0000       0.00000       A     3.15888e-01     3.04118e-01
 c34bf                                  6      0.0000       0.00000       A     3.39778e-01     4.49916e-01
 h35bf                                  1      0.0000       0.00000       A     2.42080e-01     8.75859e-02
 h36bf                                  1      0.0000       0.00000       A     2.42080e-01     8.75859e-02
 h37bf                                  1      0.0000       0.00000       A     2.42080e-01     8.75859e-02
 c38bf                                  6      0.0000       0.00000       A     3.31533e-01     4.12632e-01
 h39bf                                  1      0.0000       0.00000       A     2.62487e-01     6.70190e-02
 c40bf                                  6      0.0000       0.00000       A     3.31521e-01     4.12809e-01
 h41bf                                  1      0.0000       0.00000       A     2.62482e-01     6.75153e-02
 o42bf                                  8      0.0000       0.00000       A     3.04358e-01     6.10575e-01
 c43bf                                  6      0.0000       0.00000       A     3.39798e-01     4.50250e-01
 h44bf                                  1      0.0000       0.00000       A     2.59893e-01     8.82802e-02
 h45bf                                  1      0.0000       0.00000       A     2.59893e-01     8.82802e-02
 h46bf                                  1      0.0000       0.00000       A     2.59893e-01     8.82802e-02
 c47bf                                  6      0.0000       0.00000       A     3.39798e-01     4.50250e-01
 h48bf                                  1      0.0000       0.00000       A     2.59893e-01     8.82802e-02
 h49bf                                  1      0.0000       0.00000       A     2.59893e-01     8.82802e-02
 h50bf                                  1      0.0000       0.00000       A     2.59893e-01     8.82802e-02

[ moleculetype ]
;name             nrexcl
 16                    3

[ atoms ]
;       nr            type      resi   res      atom      cgnr      charge          mass ; qtot
         1            c0bf         1   UNL        c0         1    -0.04465       12.0110 ; qtot   -0.045
         2            c1bf         1   UNL        c1         2    -0.06600       12.0110 ; qtot   -0.111
         3            h2bf         1   UNL        h2         3     0.11821        1.0080 ; qtot    0.008
         4            c3bf         1   UNL        c3         4    -0.13502       12.0110 ; qtot   -0.127
         5            h4bf         1   UNL        h4         5     0.13342        1.0080 ; qtot    0.006
         6            c5bf         1   UNL        c5         6     0.17007       12.0110 ; qtot    0.176
         7            c6bf         1   UNL        c6         7    -0.18112       12.0110 ; qtot   -0.005
         8            c7bf         1   UNL        c7         8    -0.04411       12.0110 ; qtot   -0.049
         9            h8bf         1   UNL        h8         9     0.12822        1.0080 ; qtot    0.079
        10            o9bf         1   UNL        o9        10    -0.35834       15.9990 ; qtot   -0.279
        11           c10bf         1   UNL       c10        11     0.18141       12.0110 ; qtot   -0.098
        12           c11bf         1   UNL       c11        12    -0.08115       12.0110 ; qtot   -0.179
        13           h12bf         1   UNL       h12        13     0.08348        1.0080 ; qtot   -0.096
        14           h13bf         1   UNL       h13        14     0.08348        1.0080 ; qtot   -0.012
        15           c14bf         1   UNL       c14        15     0.10827       12.0110 ; qtot    0.096
        16           c15bf         1   UNL       c15        16     0.55024       12.0110 ; qtot    0.646
        17           n16bf         1   UNL       n16        17    -0.64651       14.0070 ; qtot   -0.000
        18           c17bf         1   UNL       c17        18     0.99722       12.0110 ; qtot    0.997
        19           n18bf         1   UNL       n18        19    -0.63159       14.0070 ; qtot    0.366
        20           h19bf         1   UNL       h19        20     0.41427        1.0080 ; qtot    0.780
        21           c20bf         1   UNL       c20        21    -0.07399       12.0110 ; qtot    0.706
        22           c21bf         1   UNL       c21        22     0.07086       12.0110 ; qtot    0.777
        23           h22bf         1   UNL       h22        23     0.09037        1.0080 ; qtot    0.867
        24           h23bf         1   UNL       h23        24     0.09037        1.0080 ; qtot    0.957
        25           h24bf         1   UNL       h24        25     0.09037        1.0080 ; qtot    1.048
        26           n25bf         1   UNL       n25        26    -0.57853       14.0070 ; qtot    0.469
        27           h26bf         1   UNL       h26        27     0.38249        1.0080 ; qtot    0.852
        28           h27bf         1   UNL       h27        28     0.38249        1.0080 ; qtot    1.234
        29           c28bf         1   UNL       c28        29    -0.06436       12.0110 ; qtot    1.170
        30           h29bf         1   UNL       h29        30     0.11706        1.0080 ; qtot    1.287
        31           c30bf         1   UNL       c30        31    -0.17380       12.0110 ; qtot    1.113
        32           h31bf         1   UNL       h31        32     0.12342        1.0080 ; qtot    1.237
        33           c32bf         1   UNL       c32        33     0.14053       12.0110 ; qtot    1.377
        34           o33bf         1   UNL       o33        34    -0.34485       15.9990 ; qtot    1.032
        35           c34bf         1   UNL       c34        35     0.14272       12.0110 ; qtot    1.175
        36           h35bf         1   UNL       h35        36     0.04277        1.0080 ; qtot    1.218
        37           h36bf         1   UNL       h36        37     0.04277        1.0080 ; qtot    1.260
        38           h37bf         1   UNL       h37        38     0.04277        1.0080 ; qtot    1.303
        39           c38bf         1   UNL       c38        39    -0.17380       12.0110 ; qtot    1.129
        40           h39bf         1   UNL       h39        40     0.12342        1.0080 ; qtot    1.253
        41           c40bf         1   UNL       c40        41    -0.06436       12.0110 ; qtot    1.189
        42           h41bf         1   UNL       h41        42     0.11706        1.0080 ; qtot    1.306
        43           o42bf         1   UNL       o42        43    -0.39811       15.9990 ; qtot    0.907
        44           c43bf         1   UNL       c43        44    -0.10005       12.0110 ; qtot    0.807
        45           h44bf         1   UNL       h44        45     0.04877        1.0080 ; qtot    0.856
        46           h45bf         1   UNL       h45        46     0.04877        1.0080 ; qtot    0.905
        47           h46bf         1   UNL       h46        47     0.04877        1.0080 ; qtot    0.954
        48           c47bf         1   UNL       c47        48    -0.10005       12.0110 ; qtot    0.854
        49           h48bf         1   UNL       h48        49     0.04877        1.0080 ; qtot    0.902
        50           h49bf         1   UNL       h49        50     0.04877        1.0080 ; qtot    0.951
        51           h50bf         1   UNL       h50        51     0.04878        1.0080 ; qtot    1.000

[ bonds ]
;       ai        aj funct               r               k
         1         2     1        0.140740   281502.221826
         1         8     1        0.140033   289403.658838
         1        21     1        0.148141   214307.804932
         2         3     1        0.108592   318492.009717
         2         4     1        0.139082   332814.318750
         4         5     1        0.108562   321104.966748
         4         6     1        0.140026   288678.966748
         6         7     1        0.140470   276536.760742
         6        10     1        0.136436   267339.417578
         7         8     1        0.140023   297895.615967
         7        15     1        0.151265   181133.452710
         8         9     1        0.108506   319358.177393
        10        11     1        0.145731   141482.468188
        11        12     1        0.154147   164699.186426
        11        44     1        0.152988   183033.962695
        11        48     1        0.152988   183033.962695
        12        13     1        0.109298   301656.951270
        12        14     1        0.109298   301656.951270
        12        15     1        0.154171   160537.276025
        15        16     1        0.154381   128485.484058
        15        19     1        0.148548   146191.332397
        16        17     1        0.141843   159362.683911
        16        43     1        0.120598   711921.900781
        17        18     1        0.135797   301738.465723
        17        22     1        0.146668   196952.070361
        18        19     1        0.133090   390989.564893
        18        26     1        0.133332   412686.097314
        19        20     1        0.101348   425202.319824
        21        29     1        0.140521   285098.280957
        21        41     1        0.140521   285098.280957
        22        23     1        0.109031   312124.791162
        22        24     1        0.109031   312124.791162
        22        25     1        0.109031   312124.816699
        26        27     1        0.101316   425666.584473
        26        28     1        0.101316   425666.584473
        29        30     1        0.108615   317669.536035
        29        31     1        0.139494   327970.567529
        31        32     1        0.108448   322398.370264
        31        33     1        0.140379   286602.569922
        33        34     1        0.136580   273203.044336
        33        39     1        0.140379   286602.569922
        34        35     1        0.142441   208856.819556
        35        36     1        0.109438   297412.683691
        35        37     1        0.109438   297412.683691
        35        38     1        0.109438   297412.683691
        39        40     1        0.108448   322398.395801
        39        41     1        0.139494   327970.567529
        41        42     1        0.108615   317669.536035
        44        45     1        0.109316   303222.120703
        44        46     1        0.109316   303222.120703
        44        47     1        0.109316   303222.120703
        48        49     1        0.109316   303222.120703
        48        50     1        0.109316   303222.120703
        48        51     1        0.109316   303222.120703

[ angles ]
;       ai        aj        ak funct           theta             cth
         1         2         3     1      119.640671      429.373998
         1         2         4     1      120.997543      697.222715
         1         8         7     1      121.857498      649.897344
         1         8         9     1      119.022232      421.925813
         1        21        29     1      121.292831      524.782235
         1        21        41     1      121.292831      524.782235
         2         1         8     1      117.601120      625.756540
         2         1        21     1      121.303528      564.749088
         2         4         5     1      121.209946      430.951681
         2         4         6     1      120.149979      734.422814
         3         2         4     1      119.145973      426.572450
         4         6         7     1      119.925880      589.802844
         4         6        10     1      116.437744      551.331380
         5         4         6     1      118.621658      435.820746
         6         7         8     1      118.894142      739.081357
         6         7        15     1      119.745766      586.516281
         6        10        11     1      117.993736      500.028604
         7         6        10     1      123.637672      514.558357
         7         8         9     1      119.072144      422.141729
         7        15        12     1      111.733620      557.947853
         7        15        16     1      112.067848      601.546658
         7        15        19     1      111.488197      598.667668
         8         1        21     1      121.230492      431.600738
         8         7        15     1      121.302391      442.309470
        10        11        12     1      109.078835      556.881551
        10        11        44     1      106.645714      604.086579
        10        11        48     1      106.645714      604.086579
        11        12        13     1      109.154335      466.471374
        11        12        14     1      109.154335      466.471374
        11        12        15     1      113.052734      640.250254
        11        44        45     1      110.474686      475.605615
        11        44        46     1      110.474686      475.605615
        11        44        47     1      110.474686      475.605615
        11        48        49     1      110.474686      475.605615
        11        48        50     1      110.474686      475.605615
        11        48        51     1      110.474686      475.605615
        12        11        44     1      111.385193      575.618575
        12        11        48     1      111.385193      575.618575
        12        15        16     1      110.797043      616.450307
        12        15        19     1      110.620262      611.566526
        13        12        14     1      107.420326      358.221546
        13        12        15     1      108.621048      474.551156
        14        12        15     1      108.621048      474.551156
        15        16        17     1      106.500320      167.360000
        15        16        43     1      127.583961      359.223303
        15        19        18     1      111.587624      619.880132
        15        19        20     1      121.368065      359.917625
        16        15        19     1      100.386848      329.498044
        16        17        18     1      109.401268      854.894893
        16        17        22     1      123.309692      531.050510
        17        16        43     1      124.771469      662.663728
        17        18        19     1      111.171402      582.762773
        17        18        26     1      123.442459      642.331720
        17        22        23     1      109.308334      484.616097
        17        22        24     1      109.308334      484.616097
        17        22        25     1      109.308334      484.616097
        18        17        22     1      126.712746      464.666028
        18        19        20     1      123.566017      425.702688
        18        26        27     1      120.916794      453.685646
        18        26        28     1      120.916794      453.685646
        19        18        26     1      125.735672      609.105387
        21        29        30     1      119.670120      422.634468
        21        29        31     1      121.628258      667.134893
        21        41        39     1      121.628258      667.134893
        21        41        42     1      119.670120      422.634500
        23        22        24     1      109.761864      350.063653
        23        22        25     1      109.761864      350.063653
        24        22        25     1      109.761864      350.063653
        27        26        28     1      117.283279      315.513859
        29        21        41     1      117.352249      541.000215
        29        31        32     1      119.900955      435.102099
        29        31        33     1      119.855568      749.514735
        30        29        31     1      118.802017      429.448024
        31        33        34     1      120.647621      570.375807
        31        33        39     1      119.318115      536.271317
        32        31        33     1      120.103966      441.213226
        33        34        35     1      118.120178      559.288232
        33        39        40     1      120.103966      441.213226
        33        39        41     1      119.855568      749.514735
        34        33        39     1      120.647629      570.375871
        34        35        36     1      109.552933      448.831711
        34        35        37     1      109.552940      448.831711
        34        35        38     1      109.552933      448.831711
        36        35        37     1      109.477646      342.882171
        36        35        38     1      109.477646      342.882171
        37        35        38     1      109.477646      342.882171
        39        41        42     1      118.802017      429.448024
        40        39        41     1      119.900955      435.102099
        44        11        48     1      111.043091      610.311568
        45        44        46     1      108.427734      360.868117
        45        44        47     1      108.427734      360.868117
        46        44        47     1      108.427734      360.868117
        49        48        50     1      108.427734      360.868117
        49        48        51     1      108.427734      360.868117
        50        48        51     1      108.427734      360.868149

[ dihedrals ] ; propers for gromacs 4.5 or higher, use funct 9
;       ai        aj        ak        al funct           phase               k        pn
         1         2         4         5     9        0.000000       -0.037522         1
         1         2         4         5     9      180.000000       14.444308         2
         1         2         4         5     9        0.000000       -0.484747         3
         1         2         4         5     9      180.000000        0.153181         4
         1         2         4         6     9        0.000000        0.040363         1
         1         2         4         6     9      180.000000       18.920574         2
         1         2         4         6     9        0.000000       -1.452136         3
         1         2         4         6     9      180.000000       -0.461723         4
         1         8         7         6     9        0.000000        0.018215         1
         1         8         7         6     9      180.000000       18.970248         2
         1         8         7         6     9        0.000000       -1.308769         3
         1         8         7         6     9      180.000000       -0.486143         4
         1         8         7        15     9        0.000000        0.229309         1
         1         8         7        15     9      180.000000       16.404467         2
         1         8         7        15     9        0.000000       -0.084629         3
         1         8         7        15     9      180.000000       -0.362247         4
         1        21        29        30     9        0.000000       -0.091578         1
         1        21        29        30     9      180.000000       13.210205         2
         1        21        29        30     9        0.000000       -0.253908         3
         1        21        29        30     9      180.000000        0.172365         4
         1        21        29        31     9        0.000000        0.189395         1
         1        21        29        31     9      180.000000       16.137048         2
         1        21        29        31     9        0.000000       -0.197865         3
         1        21        29        31     9      180.000000       -0.284001         4
         1        21        41        39     9        0.000000        0.189394         1
         1        21        41        39     9      180.000000       16.137051         2
         1        21        41        39     9        0.000000       -0.197864         3
         1        21        41        39     9      180.000000       -0.284002         4
         1        21        41        42     9        0.000000       -0.091579         1
         1        21        41        42     9      180.000000       13.210203         2
         1        21        41        42     9        0.000000       -0.253908         3
         1        21        41        42     9      180.000000        0.172365         4
         2         1         8         7     9        0.000000       -0.113465         1
         2         1         8         7     9      180.000000       18.455783         2
         2         1         8         7     9        0.000000       -1.777856         3
         2         1         8         7     9      180.000000       -0.436919         4
         2         1         8         9     9        0.000000       -0.072074         1
         2         1         8         9     9      180.000000       14.379819         2
         2         1         8         9     9        0.000000       -0.585268         3
         2         1         8         9     9      180.000000        0.080691         4
         2         1        21        29     9        0.000000        0.047601         1
         2         1        21        29     9      180.000000        3.511534         2
         2         1        21        29     9        0.000000        0.061474         3
         2         1        21        29     9      180.000000        0.011130         4
         2         1        21        41     9        0.000000        0.047600         1
         2         1        21        41     9      180.000000        3.511534         2
         2         1        21        41     9        0.000000        0.061473         3
         2         1        21        41     9      180.000000        0.011130         4
         2         4         6         7     9        0.000000        0.003421         1
         2         4         6         7     9      180.000000       18.393486         2
         2         4         6         7     9        0.000000       -0.952192         3
         2         4         6         7     9      180.000000       -0.528169         4
         2         4         6        10     9        0.000000        0.453909         1
         2         4         6        10     9      180.000000       20.115699         2
         2         4         6        10     9        0.000000        0.712090         3
         2         4         6        10     9      180.000000       -0.566591         4
         3         2         1         8     9        0.000000       -0.140662         1
         3         2         1         8     9      180.000000       13.903466         2
         3         2         1         8     9        0.000000       -0.767412         3
         3         2         1         8     9      180.000000        0.070958         4
         3         2         1        21     9        0.000000       -0.071830         1
         3         2         1        21     9      180.000000       13.215234         2
         3         2         1        21     9        0.000000       -0.279069         3
         3         2         1        21     9      180.000000        0.144037         4
         3         2         4         5     9        0.000000       -0.101728         1
         3         2         4         5     9      180.000000       12.219593         2
         3         2         4         5     9        0.000000       -0.707685         3
         3         2         4         5     9      180.000000        0.368380         4
         3         2         4         6     9        0.000000        0.136480         1
         3         2         4         6     9      180.000000       14.623831         2
         3         2         4         6     9        0.000000       -0.535734         3
         3         2         4         6     9      180.000000        0.133918         4
         4         2         1         8     9        0.000000       -0.186708         1
         4         2         1         8     9      180.000000       18.030217         2
         4         2         1         8     9        0.000000       -1.572484         3
         4         2         1         8     9      180.000000       -0.309858         4
         4         2         1        21     9        0.000000        0.210392         1
         4         2         1        21     9      180.000000       16.277325         2
         4         2         1        21     9        0.000000       -0.215654         3
         4         2         1        21     9      180.000000       -0.335253         4
         4         6         7         8     9        0.000000       -0.099981         1
         4         6         7         8     9      180.000000       15.402617         2
         4         6         7         8     9        0.000000       -0.818311         3
         4         6         7         8     9      180.000000       -0.311874         4
         4         6         7        15     9        0.000000        0.317601         1
         4         6         7        15     9      180.000000       12.594617         2
         4         6         7        15     9        0.000000        0.140950         3
         4         6         7        15     9      180.000000       -0.263644         4
         4         6        10        11     9        0.000000       -0.524440         1
         4         6        10        11     9      180.000000        0.965350         2
         4         6        10        11     9        0.000000        0.127626         3
         4         6        10        11     9      180.000000        0.274670         4
         5         4         6         7     9        0.000000        0.029945         1
         5         4         6         7     9      180.000000       13.435392         2
         5         4         6         7     9        0.000000       -0.361852         3
         5         4         6         7     9      180.000000       -0.014588         4
         5         4         6        10     9        0.000000        0.018714         1
         5         4         6        10     9      180.000000       16.055862         2
         5         4         6        10     9        0.000000        0.173212         3
         5         4         6        10     9      180.000000        0.104013         4
         6         7         8         9     9        0.000000        0.268573         1
         6         7         8         9     9      180.000000       14.612480         2
         6         7         8         9     9        0.000000       -0.273898         3
         6         7         8         9     9      180.000000        0.027503         4
         6         7        15        12     9        0.000000        0.442429         1
         6         7        15        12     9      180.000000       -0.582160         2
         6         7        15        12     9        0.000000        0.566510         3
         6         7        15        12     9      180.000000        0.177976         4
         6         7        15        16     9        0.000000        0.102814         1
         6         7        15        16     9      180.000000       -0.121196         2
         6         7        15        16     9        0.000000       -0.091766         3
         6         7        15        16     9      180.000000        0.098350         4
         6         7        15        19     9        0.000000       -1.211495         1
         6         7        15        19     9      180.000000        1.208789         2
         6         7        15        19     9        0.000000        0.479329         3
         6         7        15        19     9      180.000000       -0.237524         4
         6        10        11        12     9        0.000000        6.552491         1
         6        10        11        12     9      180.000000       -3.144803         2
         6        10        11        12     9        0.000000       -0.417738         3
         6        10        11        12     9      180.000000        0.734854         4
         6        10        11        44     9        0.000000       -0.601019         1
         6        10        11        44     9      180.000000        0.475001         2
         6        10        11        44     9        0.000000        0.451956         3
         6        10        11        44     9      180.000000        0.038632         4
         6        10        11        48     9        0.000000       -0.601019         1
         6        10        11        48     9      180.000000        0.475001         2
         6        10        11        48     9        0.000000        0.451956         3
         6        10        11        48     9      180.000000        0.038632         4
         7         6        10        11     9        0.000000        1.640771         1
         7         6        10        11     9      180.000000        0.065588         2
         7         6        10        11     9        0.000000       -0.117565         3
         7         6        10        11     9      180.000000        0.605195         4
         7         8         1        21     9        0.000000        0.049518         1
         7         8         1        21     9      180.000000       17.252698         2
         7         8         1        21     9        0.000000       -0.274700         3
         7         8         1        21     9      180.000000       -0.534839         4
         7        15        12        11     9        0.000000        1.224939         1
         7        15        12        11     9      180.000000       -1.112698         2
         7        15        12        11     9        0.000000        0.379613         3
         7        15        12        11     9      180.000000        0.212213         4
         7        15        12        13     9        0.000000        0.060303         1
         7        15        12        13     9      180.000000        0.038717         2
         7        15        12        13     9        0.000000        0.531071         3
         7        15        12        13     9      180.000000        0.004443         4
         7        15        12        14     9        0.000000        0.060303         1
         7        15        12        14     9      180.000000        0.038717         2
         7        15        12        14     9        0.000000        0.531071         3
         7        15        12        14     9      180.000000        0.004443         4
         7        15        16        17     9        0.000000        0.204138         1
         7        15        16        17     9      180.000000        2.054007         2
         7        15        16        17     9        0.000000        0.314617         3
         7        15        16        17     9      180.000000        0.636535         4
         7        15        16        43     9        0.000000       -1.028429         1
         7        15        16        43     9      180.000000        1.994955         2
         7        15        16        43     9        0.000000       -0.383167         3
         7        15        16        43     9      180.000000        0.534449         4
         7        15        19        18     9        0.000000        1.475577         1
         7        15        19        18     9      180.000000        0.330887         2
         7        15        19        18     9        0.000000        0.426833         3
         7        15        19        18     9      180.000000        0.176206         4
         7        15        19        20     9        0.000000        1.133225         1
         7        15        19        20     9      180.000000       -0.176846         2
         7        15        19        20     9        0.000000        0.307694         3
         7        15        19        20     9      180.000000        0.155610         4
         8         1        21        29     9        0.000000       -0.037580         1
         8         1        21        29     9      180.000000        3.620065         2
         8         1        21        29     9        0.000000        0.067047         3
         8         1        21        29     9      180.000000       -0.011443         4
         8         1        21        41     9        0.000000       -0.037580         1
         8         1        21        41     9      180.000000        3.620065         2
         8         1        21        41     9        0.000000        0.067047         3
         8         1        21        41     9      180.000000       -0.011443         4
         8         7         6        10     9        0.000000        0.065874         1
         8         7         6        10     9      180.000000       16.858075         2
         8         7         6        10     9        0.000000        0.609920         3
         8         7         6        10     9      180.000000       -0.441368         4
         8         7        15        12     9        0.000000       -0.413872         1
         8         7        15        12     9      180.000000        0.649232         2
         8         7        15        12     9        0.000000       -0.252932         3
         8         7        15        12     9      180.000000        0.237556         4
         8         7        15        16     9        0.000000       -0.864112         1
         8         7        15        16     9      180.000000       -0.269346         2
         8         7        15        16     9        0.000000       -0.294400         3
         8         7        15        16     9      180.000000        0.217114         4
         8         7        15        19     9        0.000000       -0.231744         1
         8         7        15        19     9      180.000000        1.872503         2
         8         7        15        19     9        0.000000       -0.163923         3
         8         7        15        19     9      180.000000       -0.004626         4
         9         8         1        21     9        0.000000       -0.050173         1
         9         8         1        21     9      180.000000       13.211626         2
         9         8         1        21     9        0.000000       -0.201887         3
         9         8         1        21     9      180.000000        0.170334         4
         9         8         7        15     9        0.000000       -0.093180         1
         9         8         7        15     9      180.000000       13.464457         2
         9         8         7        15     9        0.000000       -0.230321         3
         9         8         7        15     9      180.000000        0.078223         4
        10         6         7        15     9        0.000000        0.652877         1
        10         6         7        15     9      180.000000       13.735837         2
        10         6         7        15     9        0.000000        0.969375         3
        10         6         7        15     9      180.000000       -0.661470         4
        10        11        12        13     9        0.000000        0.010187         1
        10        11        12        13     9      180.000000        0.032223         2
        10        11        12        13     9        0.000000        0.118020         3
        10        11        12        13     9      180.000000        0.005280         4
        10        11        12        14     9        0.000000        0.010187         1
        10        11        12        14     9      180.000000        0.032223         2
        10        11        12        14     9        0.000000        0.118020         3
        10        11        12        14     9      180.000000        0.005280         4
        10        11        12        15     9        0.000000        6.398275         1
        10        11        12        15     9      180.000000       -3.171040         2
        10        11        12        15     9        0.000000       -0.812227         3
        10        11        12        15     9      180.000000        0.264324         4
        10        11        44        45     9        0.000000        0.022757         1
        10        11        44        45     9      180.000000       -0.106326         2
        10        11        44        45     9        0.000000        0.371208         3
        10        11        44        45     9      180.000000        0.017378         4
        10        11        44        46     9        0.000000        0.022757         1
        10        11        44        46     9      180.000000       -0.106326         2
        10        11        44        46     9        0.000000        0.371208         3
        10        11        44        46     9      180.000000        0.017378         4
        10        11        44        47     9        0.000000        0.022757         1
        10        11        44        47     9      180.000000       -0.106326         2
        10        11        44        47     9        0.000000        0.371208         3
        10        11        44        47     9      180.000000        0.017378         4
        10        11        48        49     9        0.000000        0.022757         1
        10        11        48        49     9      180.000000       -0.106326         2
        10        11        48        49     9        0.000000        0.371208         3
        10        11        48        49     9      180.000000        0.017378         4
        10        11        48        50     9        0.000000        0.022757         1
        10        11        48        50     9      180.000000       -0.106326         2
        10        11        48        50     9        0.000000        0.371208         3
        10        11        48        50     9      180.000000        0.017378         4
        10        11        48        51     9        0.000000        0.022757         1
        10        11        48        51     9      180.000000       -0.106326         2
        10        11        48        51     9        0.000000        0.371208         3
        10        11        48        51     9      180.000000        0.017378         4
        11        12        15        16     9        0.000000       -0.158489         1
        11        12        15        16     9      180.000000        0.109710         2
        11        12        15        16     9        0.000000        0.008060         3
        11        12        15        16     9      180.000000        0.059205         4
        11        12        15        19     9        0.000000       -1.376753         1
        11        12        15        19     9      180.000000       -0.656378         2
        11        12        15        19     9        0.000000        0.372563         3
        11        12        15        19     9      180.000000        0.291438         4
        12        11        44        45     9        0.000000       -0.089919         1
        12        11        44        45     9      180.000000        0.000423         2
        12        11        44        45     9        0.000000        0.433042         3
        12        11        44        45     9      180.000000        0.019250         4
        12        11        44        46     9        0.000000       -0.089919         1
        12        11        44        46     9      180.000000        0.000423         2
        12        11        44        46     9        0.000000        0.433042         3
        12        11        44        46     9      180.000000        0.019250         4
        12        11        44        47     9        0.000000       -0.089919         1
        12        11        44        47     9      180.000000        0.000423         2
        12        11        44        47     9        0.000000        0.433042         3
        12        11        44        47     9      180.000000        0.019250         4
        12        11        48        49     9        0.000000       -0.089919         1
        12        11        48        49     9      180.000000        0.000423         2
        12        11        48        49     9        0.000000        0.433042         3
        12        11        48        49     9      180.000000        0.019250         4
        12        11        48        50     9        0.000000       -0.089919         1
        12        11        48        50     9      180.000000        0.000423         2
        12        11        48        50     9        0.000000        0.433042         3
        12        11        48        50     9      180.000000        0.019250         4
        12        11        48        51     9        0.000000       -0.089919         1
        12        11        48        51     9      180.000000        0.000423         2
        12        11        48        51     9        0.000000        0.433042         3
        12        11        48        51     9      180.000000        0.019250         4
        12        15        16        17     9        0.000000       -0.141660         1
        12        15        16        17     9      180.000000        3.066579         2
        12        15        16        17     9        0.000000        0.134318         3
        12        15        16        17     9      180.000000        0.386088         4
        12        15        16        43     9        0.000000        1.080604         1
        12        15        16        43     9      180.000000        2.732702         2
        12        15        16        43     9        0.000000       -0.579963         3
        12        15        16        43     9      180.000000        0.528779         4
        12        15        19        18     9        0.000000       -0.582310         1
        12        15        19        18     9      180.000000        0.755302         2
        12        15        19        18     9        0.000000        0.351235         3
        12        15        19        18     9      180.000000        0.157736         4
        12        15        19        20     9        0.000000        0.171427         1
        12        15        19        20     9      180.000000       -0.174988         2
        12        15        19        20     9        0.000000        0.231541         3
        12        15        19        20     9      180.000000       -0.054083         4
        13        12        11        44     9        0.000000       -0.021980         1
        13        12        11        44     9      180.000000       -0.009422         2
        13        12        11        44     9        0.000000        0.356718         3
        13        12        11        44     9      180.000000       -0.000954         4
        13        12        11        48     9        0.000000       -0.021980         1
        13        12        11        48     9      180.000000       -0.009422         2
        13        12        11        48     9        0.000000        0.356718         3
        13        12        11        48     9      180.000000       -0.000954         4
        13        12        15        16     9        0.000000       -0.120531         1
        13        12        15        16     9      180.000000        0.006259         2
        13        12        15        16     9        0.000000        0.249160         3
        13        12        15        16     9      180.000000        0.015556         4
        13        12        15        19     9        0.000000        0.048077         1
        13        12        15        19     9      180.000000        0.031139         2
        13        12        15        19     9        0.000000        0.441342         3
        13        12        15        19     9      180.000000       -0.090829         4
        14        12        11        44     9        0.000000       -0.021980         1
        14        12        11        44     9      180.000000       -0.009422         2
        14        12        11        44     9        0.000000        0.356718         3
        14        12        11        44     9      180.000000       -0.000954         4
        14        12        11        48     9        0.000000       -0.021980         1
        14        12        11        48     9      180.000000       -0.009422         2
        14        12        11        48     9        0.000000        0.356718         3
        14        12        11        48     9      180.000000       -0.000954         4
        14        12        15        16     9        0.000000       -0.120531         1
        14        12        15        16     9      180.000000        0.006259         2
        14        12        15        16     9        0.000000        0.249160         3
        14        12        15        16     9      180.000000        0.015556         4
        14        12        15        19     9        0.000000        0.048077         1
        14        12        15        19     9      180.000000        0.031139         2
        14        12        15        19     9        0.000000        0.441342         3
        14        12        15        19     9      180.000000       -0.090829         4
        15        12        11        44     9        0.000000       -0.491719         1
        15        12        11        44     9      180.000000        0.610387         2
        15        12        11        44     9        0.000000        0.252005         3
        15        12        11        44     9      180.000000       -0.014027         4
        15        12        11        48     9        0.000000       -0.491719         1
        15        12        11        48     9      180.000000        0.610387         2
        15        12        11        48     9        0.000000        0.252005         3
        15        12        11        48     9      180.000000       -0.014027         4
        15        16        17        18     9        0.000000       -2.621426         1
        15        16        17        18     9      180.000000       12.608727         2
        15        16        17        18     9        0.000000       -1.689385         3
        15        16        17        18     9      180.000000       -0.516965         4
        15        16        17        22     9        0.000000       -1.161959         1
        15        16        17        22     9      180.000000        6.523790         2
        15        16        17        22     9        0.000000        0.171203         3
        15        16        17        22     9      180.000000       -0.171941         4
        15        19        18        17     9        0.000000       -1.486140         1
        15        19        18        17     9      180.000000       26.058799         2
        15        19        18        17     9        0.000000       -2.115652         3
        15        19        18        17     9      180.000000       -2.999679         4
        15        19        18        26     9        0.000000        1.704035         1
        15        19        18        26     9      180.000000       19.771991         2
        15        19        18        26     9        0.000000        0.715132         3
        15        19        18        26     9      180.000000       -2.025611         4
        16        15        19        18     9        0.000000       -3.202930         1
        16        15        19        18     9      180.000000        3.675471         2
        16        15        19        18     9        0.000000       -0.128940         3
        16        15        19        18     9      180.000000       -0.635128         4
        16        15        19        20     9        0.000000       -0.882341         1
        16        15        19        20     9      180.000000       -0.826404         2
        16        15        19        20     9        0.000000        0.165262         3
        16        15        19        20     9      180.000000        0.141885         4
        16        17        18        19     9        0.000000       -2.490328         1
        16        17        18        19     9      180.000000       13.834040         2
        16        17        18        19     9        0.000000       -2.378247         3
        16        17        18        19     9      180.000000       -1.280421         4
        16        17        18        26     9        0.000000        1.935113         1
        16        17        18        26     9      180.000000       11.081020         2
        16        17        18        26     9        0.000000       -0.210528         3
        16        17        18        26     9      180.000000       -0.637296         4
        16        17        22        23     9        0.000000       -0.046462         1
        16        17        22        23     9      180.000000       -0.089247         2
        16        17        22        23     9        0.000000       -0.283225         3
        16        17        22        23     9      180.000000        0.030104         4
        16        17        22        24     9        0.000000       -0.046462         1
        16        17        22        24     9      180.000000       -0.089247         2
        16        17        22        24     9        0.000000       -0.283225         3
        16        17        22        24     9      180.000000        0.030104         4
        16        17        22        25     9        0.000000       -0.046462         1
        16        17        22        25     9      180.000000       -0.089247         2
        16        17        22        25     9        0.000000       -0.283225         3
        16        17        22        25     9      180.000000        0.030104         4
        17        16        15        19     9        0.000000        0.490408         1
        17        16        15        19     9      180.000000        7.821340         2
        17        16        15        19     9        0.000000       -0.339097         3
        17        16        15        19     9      180.000000       -0.046198         4
        17        18        19        20     9        0.000000        0.456219         1
        17        18        19        20     9      180.000000       11.615587         2
        17        18        19        20     9        0.000000        0.224486         3
        17        18        19        20     9      180.000000       -0.965494         4
        17        18        26        27     9        0.000000       -0.170243         1
        17        18        26        27     9      180.000000        6.404526         2
        17        18        26        27     9        0.000000        0.524424         3
        17        18        26        27     9      180.000000       -0.541232         4
        17        18        26        28     9        0.000000       -0.170243         1
        17        18        26        28     9      180.000000        6.404526         2
        17        18        26        28     9        0.000000        0.524424         3
        17        18        26        28     9      180.000000       -0.541232         4
        18        17        16        43     9        0.000000        1.168478         1
        18        17        16        43     9      180.000000       20.631698         2
        18        17        16        43     9        0.000000       -0.713105         3
        18        17        16        43     9      180.000000       -0.822735         4
        18        17        22        23     9        0.000000        0.029063         1
        18        17        22        23     9      180.000000        0.021416         2
        18        17        22        23     9        0.000000        0.188894         3
        18        17        22        23     9      180.000000       -0.011671         4
        18        17        22        24     9        0.000000        0.029063         1
        18        17        22        24     9      180.000000        0.021416         2
        18        17        22        24     9        0.000000        0.188894         3
        18        17        22        24     9      180.000000       -0.011671         4
        18        17        22        25     9        0.000000        0.029063         1
        18        17        22        25     9      180.000000        0.021416         2
        18        17        22        25     9        0.000000        0.188894         3
        18        17        22        25     9      180.000000       -0.011671         4
        19        15        16        43     9        0.000000        7.981292         1
        19        15        16        43     9      180.000000        7.024952         2
        19        15        16        43     9        0.000000       -0.163171         3
        19        15        16        43     9      180.000000        0.325120         4
        19        18        17        22     9        0.000000       -3.776014         1
        19        18        17        22     9      180.000000        5.458345         2
        19        18        17        22     9        0.000000       -0.154527         3
        19        18        17        22     9      180.000000        0.081931         4
        19        18        26        27     9        0.000000       -1.696699         1
        19        18        26        27     9      180.000000        6.696569         2
        19        18        26        27     9        0.000000        0.180424         3
        19        18        26        27     9      180.000000       -0.442659         4
        19        18        26        28     9        0.000000       -1.696699         1
        19        18        26        28     9      180.000000        6.696569         2
        19        18        26        28     9        0.000000        0.180424         3
        19        18        26        28     9      180.000000       -0.442659         4
        20        19        18        26     9        0.000000        0.829726         1
        20        19        18        26     9      180.000000        7.727450         2
        20        19        18        26     9        0.000000        0.246606         3
        20        19        18        26     9      180.000000       -0.383134         4
        21        29        31        32     9        0.000000       -0.054525         1
        21        29        31        32     9      180.000000       14.133085         2
        21        29        31        32     9        0.000000       -0.564512         3
        21        29        31        32     9      180.000000        0.171624         4
        21        29        31        33     9        0.000000       -0.090552         1
        21        29        31        33     9      180.000000       18.802271         2
        21        29        31        33     9        0.000000       -1.529460         3
        21        29        31        33     9      180.000000       -0.466002         4
        21        41        39        33     9        0.000000       -0.090551         1
        21        41        39        33     9      180.000000       18.802271         2
        21        41        39        33     9        0.000000       -1.529460         3
        21        41        39        33     9      180.000000       -0.466001         4
        21        41        39        40     9        0.000000       -0.054527         1
        21        41        39        40     9      180.000000       14.133087         2
        21        41        39        40     9        0.000000       -0.564512         3
        21        41        39        40     9      180.000000        0.171624         4
        22        17        16        43     9        0.000000       -0.327768         1
        22        17        16        43     9      180.000000        9.752935         2
        22        17        16        43     9        0.000000       -0.183564         3
        22        17        16        43     9      180.000000        0.446364         4
        22        17        18        26     9        0.000000        1.331771         1
        22        17        18        26     9      180.000000        6.631611         2
        22        17        18        26     9        0.000000        0.055652         3
        22        17        18        26     9      180.000000       -0.063283         4
        29        21        41        39     9        0.000000       -0.153168         1
        29        21        41        39     9      180.000000       18.312625         2
        29        21        41        39     9        0.000000       -1.495961         3
        29        21        41        39     9      180.000000       -0.314537         4
        29        21        41        42     9        0.000000       -0.082361         1
        29        21        41        42     9      180.000000       14.190961         2
        29        21        41        42     9        0.000000       -0.699370         3
        29        21        41        42     9      180.000000        0.059827         4
        29        31        33        34     9        0.000000        0.597208         1
        29        31        33        34     9      180.000000       17.025156         2
        29        31        33        34     9        0.000000        0.430433         3
        29        31        33        34     9      180.000000       -0.348898         4
        29        31        33        39     9        0.000000       -0.047065         1
        29        31        33        39     9      180.000000       15.719003         2
        29        31        33        39     9        0.000000       -0.938746         3
        29        31        33        39     9      180.000000       -0.245464         4
        30        29        21        41     9        0.000000       -0.082361         1
        30        29        21        41     9      180.000000       14.190961         2
        30        29        21        41     9        0.000000       -0.699370         3
        30        29        21        41     9      180.000000        0.059827         4
        30        29        31        32     9        0.000000       -0.157055         1
        30        29        31        32     9      180.000000       12.124510         2
        30        29        31        32     9        0.000000       -0.665094         3
        30        29        31        32     9      180.000000        0.341216         4
        30        29        31        33     9        0.000000        0.056651         1
        30        29        31        33     9      180.000000       14.874563         2
        30        29        31        33     9        0.000000       -0.522820         3
        30        29        31        33     9      180.000000        0.091774         4
        31        29        21        41     9        0.000000       -0.153166         1
        31        29        21        41     9      180.000000       18.312625         2
        31        29        21        41     9        0.000000       -1.495961         3
        31        29        21        41     9      180.000000       -0.314536         4
        31        33        34        35     9        0.000000        0.241546         1
        31        33        34        35     9      180.000000        5.747495         2
        31        33        34        35     9        0.000000       -0.010019         3
        31        33        34        35     9      180.000000        0.667461         4
        31        33        39        40     9        0.000000        0.157468         1
        31        33        39        40     9      180.000000       12.492432         2
        31        33        39        40     9        0.000000       -0.424174         3
        31        33        39        40     9      180.000000        0.183540         4
        31        33        39        41     9        0.000000       -0.047065         1
        31        33        39        41     9      180.000000       15.719004         2
        31        33        39        41     9        0.000000       -0.938746         3
        31        33        39        41     9      180.000000       -0.245464         4
        32        31        33        34     9        0.000000        0.088275         1
        32        31        33        34     9      180.000000       12.677363         2
        32        31        33        34     9        0.000000       -0.117363         3
        32        31        33        34     9      180.000000        0.298513         4
        32        31        33        39     9        0.000000        0.157468         1
        32        31        33        39     9      180.000000       12.492432         2
        32        31        33        39     9        0.000000       -0.424174         3
        32        31        33        39     9      180.000000        0.183540         4
        33        34        35        36     9        0.000000       -0.090045         1
        33        34        35        36     9      180.000000        0.039695         2
        33        34        35        36     9        0.000000        0.655262         3
        33        34        35        36     9      180.000000       -0.031937         4
        33        34        35        37     9        0.000000       -0.090045         1
        33        34        35        37     9      180.000000        0.039695         2
        33        34        35        37     9        0.000000        0.655262         3
        33        34        35        37     9      180.000000       -0.031937         4
        33        34        35        38     9        0.000000       -0.090045         1
        33        34        35        38     9      180.000000        0.039695         2
        33        34        35        38     9        0.000000        0.655262         3
        33        34        35        38     9      180.000000       -0.031937         4
        33        39        41        42     9        0.000000        0.056651         1
        33        39        41        42     9      180.000000       14.874565         2
        33        39        41        42     9        0.000000       -0.522820         3
        33        39        41        42     9      180.000000        0.091773         4
        34        33        39        40     9        0.000000        0.088274         1
        34        33        39        40     9      180.000000       12.677363         2
        34        33        39        40     9        0.000000       -0.117364         3
        34        33        39        40     9      180.000000        0.298513         4
        34        33        39        41     9        0.000000        0.597207         1
        34        33        39        41     9      180.000000       17.025156         2
        34        33        39        41     9        0.000000        0.430434         3
        34        33        39        41     9      180.000000       -0.348898         4
        35        34        33        39     9        0.000000        0.241544         1
        35        34        33        39     9      180.000000        5.747496         2
        35        34        33        39     9        0.000000       -0.010019         3
        35        34        33        39     9      180.000000        0.667460         4
        40        39        41        42     9        0.000000       -0.157054         1
        40        39        41        42     9      180.000000       12.124510         2
        40        39        41        42     9        0.000000       -0.665094         3
        40        39        41        42     9      180.000000        0.341216         4
        44        11        48        49     9        0.000000       -0.082665         1
        44        11        48        49     9      180.000000        0.011908         2
        44        11        48        49     9        0.000000        0.531653         3
        44        11        48        49     9      180.000000        0.044561         4
        44        11        48        50     9        0.000000       -0.082665         1
        44        11        48        50     9      180.000000        0.011908         2
        44        11        48        50     9        0.000000        0.531653         3
        44        11        48        50     9      180.000000        0.044561         4
        44        11        48        51     9        0.000000       -0.082665         1
        44        11        48        51     9      180.000000        0.011908         2
        44        11        48        51     9        0.000000        0.531653         3
        44        11        48        51     9      180.000000        0.044561         4
        45        44        11        48     9        0.000000       -0.082665         1
        45        44        11        48     9      180.000000        0.011908         2
        45        44        11        48     9        0.000000        0.531653         3
        45        44        11        48     9      180.000000        0.044561         4
        46        44        11        48     9        0.000000       -0.082665         1
        46        44        11        48     9      180.000000        0.011908         2
        46        44        11        48     9        0.000000        0.531653         3
        46        44        11        48     9      180.000000        0.044561         4
        47        44        11        48     9        0.000000       -0.082665         1
        47        44        11        48     9      180.000000        0.011908         2
        47        44        11        48     9        0.000000        0.531653         3
        47        44        11        48     9      180.000000        0.044561         4

[ dihedrals ] ; impropers
;       ai        aj        ak        al funct           phase               k        pn
        16        15        17        43     4      180.000000       26.920058         2
        16        17        43        15     4      180.000000       26.920058         2
        16        43        15        17     4      180.000000       26.920058         2
        18        17        19        26     4      180.000000       10.189567         2
        18        19        26        17     4      180.000000       10.189567         2
        18        26        17        19     4      180.000000       10.189567         2
        33        31        34        39     4      180.000000        0.407429         2
        33        34        39        31     4      180.000000        0.407429         2
        33        39        31        34     4      180.000000        0.407429         2

[ pairs ]
;       ai        aj funct
         1         5     1
         1         6     1
         1        15     1
         1        30     1
         1        31     1
         1        39     1
         1        42     1
         2         7     1
         2         9     1
         2        10     1
         2        29     1
         2        41     1
         3         5     1
         3         6     1
         3         8     1
         3        21     1
         4         8     1
         4        11     1
         4        15     1
         4        21     1
         5         7     1
         5        10     1
         6         9     1
         6        12     1
         6        16     1
         6        19     1
         6        44     1
         6        48     1
         7        11     1
         7        13     1
         7        14     1
         7        17     1
         7        18     1
         7        20     1
         7        21     1
         7        43     1
         8        10     1
         8        12     1
         8        16     1
         8        19     1
         8        29     1
         8        41     1
         9        15     1
         9        21     1
        10        13     1
        10        14     1
        10        15     1
        10        45     1
        10        46     1
        10        47     1
        10        49     1
        10        50     1
        10        51     1
        11        16     1
        11        19     1
        12        17     1
        12        18     1
        12        20     1
        12        43     1
        12        45     1
        12        46     1
        12        47     1
        12        49     1
        12        50     1
        12        51     1
        13        16     1
        13        19     1
        13        44     1
        13        48     1
        14        16     1
        14        19     1
        14        44     1
        14        48     1
        15        22     1
        15        26     1
        15        44     1
        15        48     1
        16        20     1
        16        23     1
        16        24     1
        16        25     1
        16        26     1
        17        20     1
        17        27     1
        17        28     1
        18        23     1
        18        24     1
        18        25     1
        18        43     1
        19        22     1
        19        27     1
        19        28     1
        19        43     1
        20        26     1
        21        32     1
        21        33     1
        21        40     1
        22        26     1
        22        43     1
        29        34     1
        29        39     1
        29        42     1
        30        32     1
        30        33     1
        30        41     1
        31        35     1
        31        40     1
        31        41     1
        32        34     1
        32        39     1
        33        36     1
        33        37     1
        33        38     1
        33        42     1
        34        40     1
        34        41     1
        35        39     1
        40        42     1
        44        49     1
        44        50     1
        44        51     1
        45        48     1
        46        48     1
        47        48     1
