; ITP file created by ByteFF-ML, 2026-03-14 15:31:09.492992

[ atomtypes ]
;name           bonded.type        at.num        mass        charge   ptype           sigma         epsilon
 c0bf                                   6      0.0000       0.00000       A     3.31437e-01     4.09923e-01
 c1bf                                   6      0.0000       0.00000       A     3.31534e-01     4.13348e-01
 h2bf                                   1      0.0000       0.00000       A     2.62485e-01     6.75153e-02
 c3bf                                   6      0.0000       0.00000       A     3.31523e-01     4.12056e-01
 h4bf                                   1      0.0000       0.00000       A     2.62405e-01     6.67253e-02
 c5bf                                   6      0.0000       0.00000       A     3.31279e-01     4.11283e-01
 c6bf                                   6      0.0000       0.00000       A     3.31150e-01     4.13198e-01
 c7bf                                   6      0.0000       0.00000       A     3.31375e-01     4.12970e-01
 h8bf                                   1      0.0000       0.00000       A     2.62592e-01     6.73030e-02
 o9bf                                   8      0.0000       0.00000       A     3.15529e-01     3.02270e-01
 c10bf                                  6      0.0000       0.00000       A     3.39880e-01     4.53386e-01
 c11bf                                  6      0.0000       0.00000       A     3.39567e-01     4.51771e-01
 h12bf                                  1      0.0000       0.00000       A     2.59417e-01     8.63170e-02
 h13bf                                  1      0.0000       0.00000       A     2.59417e-01     8.63170e-02
 c14bf                                  6      0.0000       0.00000       A     3.39917e-01     4.52880e-01
 c15bf                                  6      0.0000       0.00000       A     3.31525e-01     4.13256e-01
 n16bf                                  7      0.0000       0.00000       A     3.18147e-01     7.08350e-01
 c17bf                                  6      0.0000       0.00000       A     3.31173e-01     4.11985e-01
 n18bf                                  7      0.0000       0.00000       A     3.26363e-01     6.55753e-01
 h19bf                                  1      0.0000       0.00000       A     1.10240e-01     4.07109e-02
 c20bf                                  6      0.0000       0.00000       A     3.31224e-01     4.14070e-01
 c21bf                                  6      0.0000       0.00000       A     3.39925e-01     4.53383e-01
 h22bf                                  1      0.0000       0.00000       A     2.42238e-01     8.60936e-02
 h23bf                                  1      0.0000       0.00000       A     2.42238e-01     8.60936e-02
 h24bf                                  1      0.0000       0.00000       A     2.42238e-01     8.60936e-02
 n25bf                                  7      0.0000       0.00000       A     3.36693e-01     4.77150e-01
 h26bf                                  1      0.0000       0.00000       A     1.10539e-01     3.88978e-02
 h27bf                                  1      0.0000       0.00000       A     1.10539e-01     3.88978e-02
 c28bf                                  6      0.0000       0.00000       A     3.31627e-01     4.12060e-01
 h29bf                                  1      0.0000       0.00000       A     2.62477e-01     6.73813e-02
 c30bf                                  6      0.0000       0.00000       A     3.31339e-01     4.13364e-01
 c31bf                                  6      0.0000       0.00000       A     3.31527e-01     4.12020e-01
 h32bf                                  1      0.0000       0.00000       A     2.62462e-01     6.68386e-02
 c33bf                                  6      0.0000       0.00000       A     3.31410e-01     4.12870e-01
 h34bf                                  1      0.0000       0.00000       A     2.62592e-01     6.73685e-02
 c35bf                                  6      0.0000       0.00000       A     3.31527e-01     4.12959e-01
 f36bf                                  9      0.0000       0.00000       A     3.03456e-01     3.47343e-01
 o37bf                                  8      0.0000       0.00000       A     3.04358e-01     6.10575e-01
 c38bf                                  6      0.0000       0.00000       A     3.39798e-01     4.50250e-01
 h39bf                                  1      0.0000       0.00000       A     2.59893e-01     8.82802e-02
 h40bf                                  1      0.0000       0.00000       A     2.59893e-01     8.82802e-02
 h41bf                                  1      0.0000       0.00000       A     2.59893e-01     8.82802e-02
 c42bf                                  6      0.0000       0.00000       A     3.39798e-01     4.50250e-01
 h43bf                                  1      0.0000       0.00000       A     2.59893e-01     8.82802e-02
 h44bf                                  1      0.0000       0.00000       A     2.59893e-01     8.82802e-02
 h45bf                                  1      0.0000       0.00000       A     2.59893e-01     8.82802e-02
 o46bf                                  8      0.0000       0.00000       A     3.15894e-01     3.03981e-01
 c47bf                                  6      0.0000       0.00000       A     3.39778e-01     4.49916e-01
 h48bf                                  1      0.0000       0.00000       A     2.42080e-01     8.75859e-02
 h49bf                                  1      0.0000       0.00000       A     2.42080e-01     8.75859e-02
 h50bf                                  1      0.0000       0.00000       A     2.42080e-01     8.75859e-02

[ moleculetype ]
;name             nrexcl
 19                    3

[ atoms ]
;       nr            type      resi   res      atom      cgnr      charge          mass ; qtot
         1            c0bf         1   UNL        c0         1    -0.04980       12.0110 ; qtot   -0.050
         2            c1bf         1   UNL        c1         2    -0.05859       12.0110 ; qtot   -0.108
         3            h2bf         1   UNL        h2         3     0.12102        1.0080 ; qtot    0.013
         4            c3bf         1   UNL        c3         4    -0.13752       12.0110 ; qtot   -0.125
         5            h4bf         1   UNL        h4         5     0.13342        1.0080 ; qtot    0.009
         6            c5bf         1   UNL        c5         6     0.17007       12.0110 ; qtot    0.179
         7            c6bf         1   UNL        c6         7    -0.18250       12.0110 ; qtot   -0.004
         8            c7bf         1   UNL        c7         8    -0.03649       12.0110 ; qtot   -0.040
         9            h8bf         1   UNL        h8         9     0.13195        1.0080 ; qtot    0.092
        10            o9bf         1   UNL        o9        10    -0.35834       15.9990 ; qtot   -0.267
        11           c10bf         1   UNL       c10        11     0.18141       12.0110 ; qtot   -0.085
        12           c11bf         1   UNL       c11        12    -0.08115       12.0110 ; qtot   -0.167
        13           h12bf         1   UNL       h12        13     0.08348        1.0080 ; qtot   -0.083
        14           h13bf         1   UNL       h13        14     0.08348        1.0080 ; qtot    0.000
        15           c14bf         1   UNL       c14        15     0.10827       12.0110 ; qtot    0.109
        16           c15bf         1   UNL       c15        16     0.55024       12.0110 ; qtot    0.659
        17           n16bf         1   UNL       n16        17    -0.64651       14.0070 ; qtot    0.012
        18           c17bf         1   UNL       c17        18     0.99722       12.0110 ; qtot    1.010
        19           n18bf         1   UNL       n18        19    -0.63159       14.0070 ; qtot    0.378
        20           h19bf         1   UNL       h19        20     0.41427        1.0080 ; qtot    0.792
        21           c20bf         1   UNL       c20        21    -0.02662       12.0110 ; qtot    0.766
        22           c21bf         1   UNL       c21        22     0.07086       12.0110 ; qtot    0.837
        23           h22bf         1   UNL       h22        23     0.09037        1.0080 ; qtot    0.927
        24           h23bf         1   UNL       h23        24     0.09037        1.0080 ; qtot    1.017
        25           h24bf         1   UNL       h24        25     0.09037        1.0080 ; qtot    1.108
        26           n25bf         1   UNL       n25        26    -0.57853       14.0070 ; qtot    0.529
        27           h26bf         1   UNL       h26        27     0.38249        1.0080 ; qtot    0.912
        28           h27bf         1   UNL       h27        28     0.38249        1.0080 ; qtot    1.294
        29           c28bf         1   UNL       c28        29    -0.13917       12.0110 ; qtot    1.155
        30           h29bf         1   UNL       h29        30     0.12597        1.0080 ; qtot    1.281
        31           c30bf         1   UNL       c30        31     0.12242       12.0110 ; qtot    1.403
        32           c31bf         1   UNL       c31        32    -0.14248       12.0110 ; qtot    1.261
        33           h32bf         1   UNL       h32        33     0.12945        1.0080 ; qtot    1.390
        34           c33bf         1   UNL       c33        34    -0.10953       12.0110 ; qtot    1.281
        35           h34bf         1   UNL       h34        35     0.13483        1.0080 ; qtot    1.416
        36           c35bf         1   UNL       c35        36     0.14457       12.0110 ; qtot    1.560
        37           f36bf         1   UNL       f36        37    -0.18045       18.9980 ; qtot    1.380
        38           o37bf         1   UNL       o37        38    -0.39811       15.9990 ; qtot    0.982
        39           c38bf         1   UNL       c38        39    -0.10005       12.0110 ; qtot    0.882
        40           h39bf         1   UNL       h39        40     0.04877        1.0080 ; qtot    0.930
        41           h40bf         1   UNL       h40        41     0.04877        1.0080 ; qtot    0.979
        42           h41bf         1   UNL       h41        42     0.04877        1.0080 ; qtot    1.028
        43           c42bf         1   UNL       c42        43    -0.10005       12.0110 ; qtot    0.928
        44           h43bf         1   UNL       h43        44     0.04877        1.0080 ; qtot    0.977
        45           h44bf         1   UNL       h44        45     0.04877        1.0080 ; qtot    1.025
        46           h45bf         1   UNL       h45        46     0.04877        1.0080 ; qtot    1.074
        47           o46bf         1   UNL       o46        47    -0.34577       15.9990 ; qtot    0.728
        48           c47bf         1   UNL       c47        48     0.14327       12.0110 ; qtot    0.872
        49           h48bf         1   UNL       h48        49     0.04277        1.0080 ; qtot    0.914
        50           h49bf         1   UNL       h49        50     0.04277        1.0080 ; qtot    0.957
        51           h50bf         1   UNL       h50        51     0.04280        1.0080 ; qtot    1.000

[ bonds ]
;       ai        aj funct               r               k
         1         2     1        0.140719   282880.536230
         1         8     1        0.139975   291723.271094
         1        21     1        0.148266   214803.633447
         2         3     1        0.108543   320213.696094
         2         4     1        0.139056   333219.235156
         4         5     1        0.108562   321104.966748
         4         6     1        0.140026   288678.966748
         6         7     1        0.140470   276536.760742
         6        10     1        0.136436   267339.417578
         7         8     1        0.139958   299233.556201
         7        15     1        0.151265   181133.452710
         8         9     1        0.108462   320844.105176
        10        11     1        0.145731   141482.468188
        11        12     1        0.154147   164699.186426
        11        39     1        0.152988   183033.962695
        11        43     1        0.152988   183033.962695
        12        13     1        0.109298   301656.951270
        12        14     1        0.109298   301656.951270
        12        15     1        0.154171   160537.276025
        15        16     1        0.154381   128485.484058
        15        19     1        0.148548   146191.332397
        16        17     1        0.141843   159362.683911
        16        38     1        0.120598   711921.798633
        17        18     1        0.135797   301738.465723
        17        22     1        0.146668   196952.070361
        18        19     1        0.133090   390989.564893
        18        26     1        0.133332   412686.097314
        19        20     1        0.101348   425202.319824
        21        29     1        0.140505   289179.289795
        21        36     1        0.140090   271919.140625
        22        23     1        0.109031   312124.791162
        22        24     1        0.109031   312124.791162
        22        25     1        0.109031   312124.816699
        26        27     1        0.101316   425666.584473
        26        28     1        0.101316   425666.584473
        29        30     1        0.108374   323163.691895
        29        31     1        0.140148   288292.539209
        31        32     1        0.140282   286619.577637
        31        47     1        0.136887   269117.489893
        32        33     1        0.108395   324957.392920
        32        34     1        0.139645   319932.455908
        34        35     1        0.108510   323510.587988
        34        36     1        0.138906   313617.001074
        36        37     1        0.136177   277740.426855
        39        40     1        0.109316   303222.120703
        39        41     1        0.109316   303222.120703
        39        42     1        0.109316   303222.120703
        43        44     1        0.109316   303222.120703
        43        45     1        0.109316   303222.120703
        43        46     1        0.109316   303222.120703
        47        48     1        0.142493   208267.423071
        48        49     1        0.109438   297412.683691
        48        50     1        0.109438   297412.683691
        48        51     1        0.109438   297412.734766

[ angles ]
;       ai        aj        ak funct           theta             cth
         1         2         3     1      119.572693      436.196141
         1         2         4     1      120.865128      694.232958
         1         8         7     1      121.768517      647.399049
         1         8         9     1      118.957436      427.892399
         1        21        29     1      120.429153      436.129713
         1        21        36     1      122.836098      483.760188
         2         1         8     1      117.785599      632.600549
         2         1        21     1      121.112633      552.580336
         2         4         5     1      121.221695      430.504334
         2         4         6     1      120.131798      736.330500
         3         2         4     1      119.367760      419.752860
         4         6         7     1      119.925880      589.802844
         4         6        10     1      116.437744      551.331380
         5         4         6     1      118.621658      435.820746
         6         7         8     1      118.857338      742.514566
         6         7        15     1      119.745766      586.516281
         6        10        11     1      117.993736      500.028604
         7         6        10     1      123.637672      514.558357
         7         8         9     1      119.204971      419.163496
         7        15        12     1      111.733620      557.947853
         7        15        16     1      112.067848      601.546658
         7        15        19     1      111.488197      598.667668
         8         1        21     1      121.031776      422.701566
         8         7        15     1      121.308456      444.718353
        10        11        12     1      109.078835      556.881551
        10        11        39     1      106.645714      604.086579
        10        11        43     1      106.645714      604.086579
        11        12        13     1      109.154335      466.471374
        11        12        14     1      109.154335      466.471374
        11        12        15     1      113.052734      640.250254
        11        39        40     1      110.474686      475.605679
        11        39        41     1      110.474686      475.605679
        11        39        42     1      110.474686      475.605679
        11        43        44     1      110.474686      475.605615
        11        43        45     1      110.474686      475.605615
        11        43        46     1      110.474686      475.605615
        12        11        39     1      111.385193      575.618575
        12        11        43     1      111.385193      575.618575
        12        15        16     1      110.797043      616.450307
        12        15        19     1      110.620262      611.566526
        13        12        14     1      107.420326      358.221546
        13        12        15     1      108.621048      474.551156
        14        12        15     1      108.621048      474.551156
        15        16        17     1      106.500320      167.360000
        15        16        38     1      127.583961      359.223303
        15        19        18     1      111.587624      619.880132
        15        19        20     1      121.368065      359.917625
        16        15        19     1      100.386848      329.498044
        16        17        18     1      109.401268      854.894893
        16        17        22     1      123.309692      531.050510
        17        16        38     1      124.771469      662.663664
        17        18        19     1      111.171402      582.762773
        17        18        26     1      123.442459      642.331720
        17        22        23     1      109.308334      484.616097
        17        22        24     1      109.308334      484.616097
        17        22        25     1      109.308334      484.616097
        18        17        22     1      126.712746      464.666028
        18        19        20     1      123.566017      425.702688
        18        26        27     1      120.916794      453.685646
        18        26        28     1      120.916794      453.685646
        19        18        26     1      125.735672      609.105387
        21        29        30     1      118.845680      422.935774
        21        29        31     1      121.491226      725.030393
        21        36        34     1      122.669518      595.756055
        21        36        37     1      119.523033      463.579488
        23        22        24     1      109.761864      350.063653
        23        22        25     1      109.761864      350.063653
        24        22        25     1      109.761864      350.063653
        27        26        28     1      117.283279      315.513859
        29        21        36     1      116.719467      589.188485
        29        31        32     1      119.737450      602.521154
        29        31        47     1      118.717651      523.190251
        30        29        31     1      119.325089      439.407018
        31        32        33     1      120.519028      434.004291
        31        32        34     1      119.455460      735.321784
        31        47        48     1      117.968628      563.222671
        32        31        47     1      120.988197      568.248310
        32        34        35     1      121.072899      427.444638
        32        34        36     1      119.716942      673.937723
        33        32        34     1      119.915184      428.153516
        34        36        37     1      117.836082      523.600824
        35        34        36     1      119.098495      444.257026
        39        11        43     1      111.043091      610.311568
        40        39        41     1      108.427734      360.868117
        40        39        42     1      108.427734      360.868117
        41        39        42     1      108.427734      360.868117
        44        43        45     1      108.427734      360.868117
        44        43        46     1      108.427734      360.868117
        45        43        46     1      108.427734      360.868117
        47        48        49     1      109.524864      448.897884
        47        48        50     1      109.524864      448.897884
        47        48        51     1      109.524864      448.897884
        49        48        50     1      109.477646      342.882171
        49        48        51     1      109.477646      342.882171
        50        48        51     1      109.477646      342.882107

[ dihedrals ] ; propers for gromacs 4.5 or higher, use funct 9
;       ai        aj        ak        al funct           phase               k        pn
         1         2         4         5     9        0.000000       -0.031044         1
         1         2         4         5     9      180.000000       14.408091         2
         1         2         4         5     9        0.000000       -0.469571         3
         1         2         4         5     9      180.000000        0.150694         4
         1         2         4         6     9        0.000000       -0.003670         1
         1         2         4         6     9      180.000000       18.943126         2
         1         2         4         6     9        0.000000       -1.510028         3
         1         2         4         6     9      180.000000       -0.472589         4
         1         8         7         6     9        0.000000        0.007308         1
         1         8         7         6     9      180.000000       18.975313         2
         1         8         7         6     9        0.000000       -1.390216         3
         1         8         7         6     9      180.000000       -0.476965         4
         1         8         7        15     9        0.000000        0.236728         1
         1         8         7        15     9      180.000000       16.549552         2
         1         8         7        15     9        0.000000       -0.128376         3
         1         8         7        15     9      180.000000       -0.371833         4
         1        21        29        30     9        0.000000       -0.058282         1
         1        21        29        30     9      180.000000       13.375205         2
         1        21        29        30     9        0.000000       -0.121270         3
         1        21        29        30     9      180.000000        0.171016         4
         1        21        29        31     9        0.000000        0.310607         1
         1        21        29        31     9      180.000000       16.566277         2
         1        21        29        31     9        0.000000       -0.078082         3
         1        21        29        31     9      180.000000       -0.494075         4
         1        21        36        34     9        0.000000        0.160854         1
         1        21        36        34     9      180.000000       12.924006         2
         1        21        36        34     9        0.000000       -0.173554         3
         1        21        36        34     9      180.000000       -0.137111         4
         1        21        36        37     9        0.000000       -0.058221         1
         1        21        36        37     9      180.000000       19.590187         2
         1        21        36        37     9        0.000000        0.480845         3
         1        21        36        37     9      180.000000       -1.056887         4
         2         1         8         7     9        0.000000       -0.108081         1
         2         1         8         7     9      180.000000       18.296722         2
         2         1         8         7     9        0.000000       -1.731503         3
         2         1         8         7     9      180.000000       -0.396320         4
         2         1         8         9     9        0.000000       -0.019731         1
         2         1         8         9     9      180.000000       14.323028         2
         2         1         8         9     9        0.000000       -0.593883         3
         2         1         8         9     9      180.000000        0.101335         4
         2         1        21        29     9        0.000000       -0.137261         1
         2         1        21        29     9      180.000000        3.917139         2
         2         1        21        29     9        0.000000       -0.041646         3
         2         1        21        29     9      180.000000        0.408827         4
         2         1        21        36     9        0.000000        0.176091         1
         2         1        21        36     9      180.000000        3.960149         2
         2         1        21        36     9        0.000000       -0.231971         3
         2         1        21        36     9      180.000000        0.768212         4
         2         4         6         7     9        0.000000       -0.003478         1
         2         4         6         7     9      180.000000       18.323528         2
         2         4         6         7     9        0.000000       -0.927844         3
         2         4         6         7     9      180.000000       -0.517933         4
         2         4         6        10     9        0.000000        0.461225         1
         2         4         6        10     9      180.000000       20.120972         2
         2         4         6        10     9        0.000000        0.720528         3
         2         4         6        10     9      180.000000       -0.571896         4
         3         2         1         8     9        0.000000       -0.047888         1
         3         2         1         8     9      180.000000       13.933312         2
         3         2         1         8     9        0.000000       -0.685797         3
         3         2         1         8     9      180.000000        0.096785         4
         3         2         1        21     9        0.000000       -0.032075         1
         3         2         1        21     9      180.000000       13.042061         2
         3         2         1        21     9        0.000000       -0.259597         3
         3         2         1        21     9      180.000000        0.215765         4
         3         2         4         5     9        0.000000       -0.105686         1
         3         2         4         5     9      180.000000       12.221872         2
         3         2         4         5     9        0.000000       -0.705542         3
         3         2         4         5     9      180.000000        0.363337         4
         3         2         4         6     9        0.000000        0.146081         1
         3         2         4         6     9      180.000000       14.692534         2
         3         2         4         6     9        0.000000       -0.514407         3
         3         2         4         6     9      180.000000        0.121469         4
         4         2         1         8     9        0.000000       -0.166684         1
         4         2         1         8     9      180.000000       18.172243         2
         4         2         1         8     9        0.000000       -1.454022         3
         4         2         1         8     9      180.000000       -0.309751         4
         4         2         1        21     9        0.000000        0.213645         1
         4         2         1        21     9      180.000000       15.881985         2
         4         2         1        21     9        0.000000       -0.268872         3
         4         2         1        21     9      180.000000       -0.184829         4
         4         6         7         8     9        0.000000       -0.110584         1
         4         6         7         8     9      180.000000       15.379737         2
         4         6         7         8     9        0.000000       -0.823696         3
         4         6         7         8     9      180.000000       -0.295040         4
         4         6         7        15     9        0.000000        0.317601         1
         4         6         7        15     9      180.000000       12.594617         2
         4         6         7        15     9        0.000000        0.140950         3
         4         6         7        15     9      180.000000       -0.263644         4
         4         6        10        11     9        0.000000       -0.524440         1
         4         6        10        11     9      180.000000        0.965350         2
         4         6        10        11     9        0.000000        0.127626         3
         4         6        10        11     9      180.000000        0.274670         4
         5         4         6         7     9        0.000000        0.029945         1
         5         4         6         7     9      180.000000       13.435392         2
         5         4         6         7     9        0.000000       -0.361852         3
         5         4         6         7     9      180.000000       -0.014588         4
         5         4         6        10     9        0.000000        0.018714         1
         5         4         6        10     9      180.000000       16.055862         2
         5         4         6        10     9        0.000000        0.173212         3
         5         4         6        10     9      180.000000        0.104013         4
         6         7         8         9     9        0.000000        0.238121         1
         6         7         8         9     9      180.000000       14.659676         2
         6         7         8         9     9        0.000000       -0.258724         3
         6         7         8         9     9      180.000000        0.014415         4
         6         7        15        12     9        0.000000        0.442429         1
         6         7        15        12     9      180.000000       -0.582160         2
         6         7        15        12     9        0.000000        0.566510         3
         6         7        15        12     9      180.000000        0.177976         4
         6         7        15        16     9        0.000000        0.102814         1
         6         7        15        16     9      180.000000       -0.121196         2
         6         7        15        16     9        0.000000       -0.091766         3
         6         7        15        16     9      180.000000        0.098350         4
         6         7        15        19     9        0.000000       -1.211495         1
         6         7        15        19     9      180.000000        1.208789         2
         6         7        15        19     9        0.000000        0.479329         3
         6         7        15        19     9      180.000000       -0.237524         4
         6        10        11        12     9        0.000000        6.552491         1
         6        10        11        12     9      180.000000       -3.144803         2
         6        10        11        12     9        0.000000       -0.417738         3
         6        10        11        12     9      180.000000        0.734854         4
         6        10        11        39     9        0.000000       -0.601020         1
         6        10        11        39     9      180.000000        0.475002         2
         6        10        11        39     9        0.000000        0.451956         3
         6        10        11        39     9      180.000000        0.038632         4
         6        10        11        43     9        0.000000       -0.601019         1
         6        10        11        43     9      180.000000        0.475001         2
         6        10        11        43     9        0.000000        0.451956         3
         6        10        11        43     9      180.000000        0.038632         4
         7         6        10        11     9        0.000000        1.640771         1
         7         6        10        11     9      180.000000        0.065588         2
         7         6        10        11     9        0.000000       -0.117565         3
         7         6        10        11     9      180.000000        0.605195         4
         7         8         1        21     9        0.000000       -0.085215         1
         7         8         1        21     9      180.000000       16.749048         2
         7         8         1        21     9        0.000000       -0.321142         3
         7         8         1        21     9      180.000000       -0.441632         4
         7        15        12        11     9        0.000000        1.224939         1
         7        15        12        11     9      180.000000       -1.112698         2
         7        15        12        11     9        0.000000        0.379613         3
         7        15        12        11     9      180.000000        0.212213         4
         7        15        12        13     9        0.000000        0.060303         1
         7        15        12        13     9      180.000000        0.038717         2
         7        15        12        13     9        0.000000        0.531071         3
         7        15        12        13     9      180.000000        0.004443         4
         7        15        12        14     9        0.000000        0.060303         1
         7        15        12        14     9      180.000000        0.038717         2
         7        15        12        14     9        0.000000        0.531071         3
         7        15        12        14     9      180.000000        0.004443         4
         7        15        16        17     9        0.000000        0.204138         1
         7        15        16        17     9      180.000000        2.054007         2
         7        15        16        17     9        0.000000        0.314617         3
         7        15        16        17     9      180.000000        0.636535         4
         7        15        16        38     9        0.000000       -1.028428         1
         7        15        16        38     9      180.000000        1.994956         2
         7        15        16        38     9        0.000000       -0.383168         3
         7        15        16        38     9      180.000000        0.534449         4
         7        15        19        18     9        0.000000        1.475577         1
         7        15        19        18     9      180.000000        0.330887         2
         7        15        19        18     9        0.000000        0.426833         3
         7        15        19        18     9      180.000000        0.176206         4
         7        15        19        20     9        0.000000        1.133225         1
         7        15        19        20     9      180.000000       -0.176846         2
         7        15        19        20     9        0.000000        0.307694         3
         7        15        19        20     9      180.000000        0.155610         4
         8         1        21        29     9        0.000000       -0.255817         1
         8         1        21        29     9      180.000000        4.032767         2
         8         1        21        29     9        0.000000       -0.063402         3
         8         1        21        29     9      180.000000        0.395334         4
         8         1        21        36     9        0.000000        0.235494         1
         8         1        21        36     9      180.000000        4.133726         2
         8         1        21        36     9        0.000000       -0.352200         3
         8         1        21        36     9      180.000000        0.834738         4
         8         7         6        10     9        0.000000        0.087989         1
         8         7         6        10     9      180.000000       16.762559         2
         8         7         6        10     9        0.000000        0.587308         3
         8         7         6        10     9      180.000000       -0.417494         4
         8         7        15        12     9        0.000000       -0.429483         1
         8         7        15        12     9      180.000000        0.662637         2
         8         7        15        12     9        0.000000       -0.268521         3
         8         7        15        12     9      180.000000        0.240238         4
         8         7        15        16     9        0.000000       -0.753945         1
         8         7        15        16     9      180.000000       -0.315229         2
         8         7        15        16     9        0.000000       -0.292874         3
         8         7        15        16     9      180.000000        0.223535         4
         8         7        15        19     9        0.000000       -0.309774         1
         8         7        15        19     9      180.000000        1.961174         2
         8         7        15        19     9        0.000000       -0.189522         3
         8         7        15        19     9      180.000000        0.012231         4
         9         8         1        21     9        0.000000       -0.035810         1
         9         8         1        21     9      180.000000       13.076248         2
         9         8         1        21     9        0.000000       -0.168178         3
         9         8         1        21     9      180.000000        0.208961         4
         9         8         7        15     9        0.000000       -0.105131         1
         9         8         7        15     9      180.000000       13.476459         2
         9         8         7        15     9        0.000000       -0.230351         3
         9         8         7        15     9      180.000000        0.083635         4
        10         6         7        15     9        0.000000        0.652877         1
        10         6         7        15     9      180.000000       13.735837         2
        10         6         7        15     9        0.000000        0.969375         3
        10         6         7        15     9      180.000000       -0.661470         4
        10        11        12        13     9        0.000000        0.010187         1
        10        11        12        13     9      180.000000        0.032223         2
        10        11        12        13     9        0.000000        0.118020         3
        10        11        12        13     9      180.000000        0.005280         4
        10        11        12        14     9        0.000000        0.010187         1
        10        11        12        14     9      180.000000        0.032223         2
        10        11        12        14     9        0.000000        0.118020         3
        10        11        12        14     9      180.000000        0.005280         4
        10        11        12        15     9        0.000000        6.398275         1
        10        11        12        15     9      180.000000       -3.171040         2
        10        11        12        15     9        0.000000       -0.812227         3
        10        11        12        15     9      180.000000        0.264324         4
        10        11        39        40     9        0.000000        0.022757         1
        10        11        39        40     9      180.000000       -0.106326         2
        10        11        39        40     9        0.000000        0.371208         3
        10        11        39        40     9      180.000000        0.017378         4
        10        11        39        41     9        0.000000        0.022757         1
        10        11        39        41     9      180.000000       -0.106326         2
        10        11        39        41     9        0.000000        0.371208         3
        10        11        39        41     9      180.000000        0.017378         4
        10        11        39        42     9        0.000000        0.022757         1
        10        11        39        42     9      180.000000       -0.106326         2
        10        11        39        42     9        0.000000        0.371208         3
        10        11        39        42     9      180.000000        0.017378         4
        10        11        43        44     9        0.000000        0.022757         1
        10        11        43        44     9      180.000000       -0.106326         2
        10        11        43        44     9        0.000000        0.371208         3
        10        11        43        44     9      180.000000        0.017378         4
        10        11        43        45     9        0.000000        0.022757         1
        10        11        43        45     9      180.000000       -0.106326         2
        10        11        43        45     9        0.000000        0.371208         3
        10        11        43        45     9      180.000000        0.017378         4
        10        11        43        46     9        0.000000        0.022757         1
        10        11        43        46     9      180.000000       -0.106326         2
        10        11        43        46     9        0.000000        0.371208         3
        10        11        43        46     9      180.000000        0.017378         4
        11        12        15        16     9        0.000000       -0.158489         1
        11        12        15        16     9      180.000000        0.109710         2
        11        12        15        16     9        0.000000        0.008060         3
        11        12        15        16     9      180.000000        0.059205         4
        11        12        15        19     9        0.000000       -1.376753         1
        11        12        15        19     9      180.000000       -0.656378         2
        11        12        15        19     9        0.000000        0.372563         3
        11        12        15        19     9      180.000000        0.291438         4
        12        11        39        40     9        0.000000       -0.089920         1
        12        11        39        40     9      180.000000        0.000424         2
        12        11        39        40     9        0.000000        0.433042         3
        12        11        39        40     9      180.000000        0.019251         4
        12        11        39        41     9        0.000000       -0.089920         1
        12        11        39        41     9      180.000000        0.000424         2
        12        11        39        41     9        0.000000        0.433042         3
        12        11        39        41     9      180.000000        0.019251         4
        12        11        39        42     9        0.000000       -0.089920         1
        12        11        39        42     9      180.000000        0.000424         2
        12        11        39        42     9        0.000000        0.433042         3
        12        11        39        42     9      180.000000        0.019251         4
        12        11        43        44     9        0.000000       -0.089919         1
        12        11        43        44     9      180.000000        0.000423         2
        12        11        43        44     9        0.000000        0.433042         3
        12        11        43        44     9      180.000000        0.019250         4
        12        11        43        45     9        0.000000       -0.089919         1
        12        11        43        45     9      180.000000        0.000423         2
        12        11        43        45     9        0.000000        0.433042         3
        12        11        43        45     9      180.000000        0.019250         4
        12        11        43        46     9        0.000000       -0.089919         1
        12        11        43        46     9      180.000000        0.000423         2
        12        11        43        46     9        0.000000        0.433042         3
        12        11        43        46     9      180.000000        0.019250         4
        12        15        16        17     9        0.000000       -0.141660         1
        12        15        16        17     9      180.000000        3.066579         2
        12        15        16        17     9        0.000000        0.134318         3
        12        15        16        17     9      180.000000        0.386088         4
        12        15        16        38     9        0.000000        1.080605         1
        12        15        16        38     9      180.000000        2.732703         2
        12        15        16        38     9        0.000000       -0.579963         3
        12        15        16        38     9      180.000000        0.528780         4
        12        15        19        18     9        0.000000       -0.582310         1
        12        15        19        18     9      180.000000        0.755302         2
        12        15        19        18     9        0.000000        0.351235         3
        12        15        19        18     9      180.000000        0.157736         4
        12        15        19        20     9        0.000000        0.171427         1
        12        15        19        20     9      180.000000       -0.174988         2
        12        15        19        20     9        0.000000        0.231541         3
        12        15        19        20     9      180.000000       -0.054083         4
        13        12        11        39     9        0.000000       -0.021980         1
        13        12        11        39     9      180.000000       -0.009422         2
        13        12        11        39     9        0.000000        0.356718         3
        13        12        11        39     9      180.000000       -0.000954         4
        13        12        11        43     9        0.000000       -0.021980         1
        13        12        11        43     9      180.000000       -0.009422         2
        13        12        11        43     9        0.000000        0.356718         3
        13        12        11        43     9      180.000000       -0.000954         4
        13        12        15        16     9        0.000000       -0.120531         1
        13        12        15        16     9      180.000000        0.006259         2
        13        12        15        16     9        0.000000        0.249160         3
        13        12        15        16     9      180.000000        0.015556         4
        13        12        15        19     9        0.000000        0.048077         1
        13        12        15        19     9      180.000000        0.031139         2
        13        12        15        19     9        0.000000        0.441342         3
        13        12        15        19     9      180.000000       -0.090829         4
        14        12        11        39     9        0.000000       -0.021980         1
        14        12        11        39     9      180.000000       -0.009422         2
        14        12        11        39     9        0.000000        0.356718         3
        14        12        11        39     9      180.000000       -0.000954         4
        14        12        11        43     9        0.000000       -0.021980         1
        14        12        11        43     9      180.000000       -0.009422         2
        14        12        11        43     9        0.000000        0.356718         3
        14        12        11        43     9      180.000000       -0.000954         4
        14        12        15        16     9        0.000000       -0.120531         1
        14        12        15        16     9      180.000000        0.006259         2
        14        12        15        16     9        0.000000        0.249160         3
        14        12        15        16     9      180.000000        0.015556         4
        14        12        15        19     9        0.000000        0.048077         1
        14        12        15        19     9      180.000000        0.031139         2
        14        12        15        19     9        0.000000        0.441342         3
        14        12        15        19     9      180.000000       -0.090829         4
        15        12        11        39     9        0.000000       -0.491720         1
        15        12        11        39     9      180.000000        0.610387         2
        15        12        11        39     9        0.000000        0.252005         3
        15        12        11        39     9      180.000000       -0.014027         4
        15        12        11        43     9        0.000000       -0.491719         1
        15        12        11        43     9      180.000000        0.610387         2
        15        12        11        43     9        0.000000        0.252005         3
        15        12        11        43     9      180.000000       -0.014027         4
        15        16        17        18     9        0.000000       -2.621426         1
        15        16        17        18     9      180.000000       12.608727         2
        15        16        17        18     9        0.000000       -1.689385         3
        15        16        17        18     9      180.000000       -0.516965         4
        15        16        17        22     9        0.000000       -1.161959         1
        15        16        17        22     9      180.000000        6.523790         2
        15        16        17        22     9        0.000000        0.171203         3
        15        16        17        22     9      180.000000       -0.171941         4
        15        19        18        17     9        0.000000       -1.486140         1
        15        19        18        17     9      180.000000       26.058799         2
        15        19        18        17     9        0.000000       -2.115652         3
        15        19        18        17     9      180.000000       -2.999679         4
        15        19        18        26     9        0.000000        1.704035         1
        15        19        18        26     9      180.000000       19.771991         2
        15        19        18        26     9        0.000000        0.715132         3
        15        19        18        26     9      180.000000       -2.025611         4
        16        15        19        18     9        0.000000       -3.202930         1
        16        15        19        18     9      180.000000        3.675471         2
        16        15        19        18     9        0.000000       -0.128940         3
        16        15        19        18     9      180.000000       -0.635128         4
        16        15        19        20     9        0.000000       -0.882341         1
        16        15        19        20     9      180.000000       -0.826404         2
        16        15        19        20     9        0.000000        0.165262         3
        16        15        19        20     9      180.000000        0.141885         4
        16        17        18        19     9        0.000000       -2.490328         1
        16        17        18        19     9      180.000000       13.834040         2
        16        17        18        19     9        0.000000       -2.378247         3
        16        17        18        19     9      180.000000       -1.280421         4
        16        17        18        26     9        0.000000        1.935113         1
        16        17        18        26     9      180.000000       11.081020         2
        16        17        18        26     9        0.000000       -0.210528         3
        16        17        18        26     9      180.000000       -0.637296         4
        16        17        22        23     9        0.000000       -0.046462         1
        16        17        22        23     9      180.000000       -0.089247         2
        16        17        22        23     9        0.000000       -0.283225         3
        16        17        22        23     9      180.000000        0.030104         4
        16        17        22        24     9        0.000000       -0.046462         1
        16        17        22        24     9      180.000000       -0.089247         2
        16        17        22        24     9        0.000000       -0.283225         3
        16        17        22        24     9      180.000000        0.030104         4
        16        17        22        25     9        0.000000       -0.046462         1
        16        17        22        25     9      180.000000       -0.089247         2
        16        17        22        25     9        0.000000       -0.283225         3
        16        17        22        25     9      180.000000        0.030104         4
        17        16        15        19     9        0.000000        0.490408         1
        17        16        15        19     9      180.000000        7.821340         2
        17        16        15        19     9        0.000000       -0.339097         3
        17        16        15        19     9      180.000000       -0.046198         4
        17        18        19        20     9        0.000000        0.456219         1
        17        18        19        20     9      180.000000       11.615587         2
        17        18        19        20     9        0.000000        0.224486         3
        17        18        19        20     9      180.000000       -0.965494         4
        17        18        26        27     9        0.000000       -0.170243         1
        17        18        26        27     9      180.000000        6.404526         2
        17        18        26        27     9        0.000000        0.524424         3
        17        18        26        27     9      180.000000       -0.541232         4
        17        18        26        28     9        0.000000       -0.170243         1
        17        18        26        28     9      180.000000        6.404526         2
        17        18        26        28     9        0.000000        0.524424         3
        17        18        26        28     9      180.000000       -0.541232         4
        18        17        16        38     9        0.000000        1.168480         1
        18        17        16        38     9      180.000000       20.631698         2
        18        17        16        38     9        0.000000       -0.713106         3
        18        17        16        38     9      180.000000       -0.822735         4
        18        17        22        23     9        0.000000        0.029063         1
        18        17        22        23     9      180.000000        0.021416         2
        18        17        22        23     9        0.000000        0.188894         3
        18        17        22        23     9      180.000000       -0.011671         4
        18        17        22        24     9        0.000000        0.029063         1
        18        17        22        24     9      180.000000        0.021416         2
        18        17        22        24     9        0.000000        0.188894         3
        18        17        22        24     9      180.000000       -0.011671         4
        18        17        22        25     9        0.000000        0.029063         1
        18        17        22        25     9      180.000000        0.021416         2
        18        17        22        25     9        0.000000        0.188894         3
        18        17        22        25     9      180.000000       -0.011671         4
        19        15        16        38     9        0.000000        7.981295         1
        19        15        16        38     9      180.000000        7.024952         2
        19        15        16        38     9        0.000000       -0.163171         3
        19        15        16        38     9      180.000000        0.325120         4
        19        18        17        22     9        0.000000       -3.776014         1
        19        18        17        22     9      180.000000        5.458345         2
        19        18        17        22     9        0.000000       -0.154527         3
        19        18        17        22     9      180.000000        0.081931         4
        19        18        26        27     9        0.000000       -1.696699         1
        19        18        26        27     9      180.000000        6.696569         2
        19        18        26        27     9        0.000000        0.180424         3
        19        18        26        27     9      180.000000       -0.442659         4
        19        18        26        28     9        0.000000       -1.696699         1
        19        18        26        28     9      180.000000        6.696569         2
        19        18        26        28     9        0.000000        0.180424         3
        19        18        26        28     9      180.000000       -0.442659         4
        20        19        18        26     9        0.000000        0.829726         1
        20        19        18        26     9      180.000000        7.727450         2
        20        19        18        26     9        0.000000        0.246606         3
        20        19        18        26     9      180.000000       -0.383134         4
        21        29        31        32     9        0.000000       -0.032984         1
        21        29        31        32     9      180.000000       15.840571         2
        21        29        31        32     9        0.000000       -0.936413         3
        21        29        31        32     9      180.000000       -0.234673         4
        21        29        31        47     9        0.000000        0.302085         1
        21        29        31        47     9      180.000000       16.894113         2
        21        29        31        47     9        0.000000        0.262222         3
        21        29        31        47     9      180.000000       -0.272576         4
        21        36        34        32     9        0.000000        0.095778         1
        21        36        34        32     9      180.000000       17.443462         2
        21        36        34        32     9        0.000000       -1.121677         3
        21        36        34        32     9      180.000000       -0.416720         4
        21        36        34        35     9        0.000000        0.165371         1
        21        36        34        35     9      180.000000       12.896374         2
        21        36        34        35     9        0.000000       -0.487525         3
        21        36        34        35     9      180.000000        0.128803         4
        22        17        16        38     9        0.000000       -0.327769         1
        22        17        16        38     9      180.000000        9.752935         2
        22        17        16        38     9        0.000000       -0.183563         3
        22        17        16        38     9      180.000000        0.446364         4
        22        17        18        26     9        0.000000        1.331771         1
        22        17        18        26     9      180.000000        6.631611         2
        22        17        18        26     9        0.000000        0.055652         3
        22        17        18        26     9      180.000000       -0.063283         4
        29        21        36        34     9        0.000000       -0.090497         1
        29        21        36        34     9      180.000000       15.594294         2
        29        21        36        34     9        0.000000       -0.954707         3
        29        21        36        34     9      180.000000       -0.268284         4
        29        21        36        37     9        0.000000        0.582449         1
        29        21        36        37     9      180.000000       21.330922         2
        29        21        36        37     9        0.000000        0.430906         3
        29        21        36        37     9      180.000000       -0.641767         4
        29        31        32        33     9        0.000000        0.040058         1
        29        31        32        33     9      180.000000       12.424889         2
        29        31        32        33     9        0.000000       -0.543172         3
        29        31        32        33     9      180.000000        0.133355         4
        29        31        32        34     9        0.000000       -0.032336         1
        29        31        32        34     9      180.000000       15.911651         2
        29        31        32        34     9        0.000000       -0.973372         3
        29        31        32        34     9      180.000000       -0.190823         4
        29        31        47        48     9        0.000000       -0.310705         1
        29        31        47        48     9      180.000000        5.399461         2
        29        31        47        48     9        0.000000       -0.181959         3
        29        31        47        48     9      180.000000        0.706159         4
        30        29        21        36     9        0.000000        0.142742         1
        30        29        21        36     9      180.000000       13.604278         2
        30        29        21        36     9        0.000000       -0.454108         3
        30        29        21        36     9      180.000000        0.265990         4
        30        29        31        32     9        0.000000        0.122816         1
        30        29        31        32     9      180.000000       12.414624         2
        30        29        31        32     9        0.000000       -0.521483         3
        30        29        31        32     9      180.000000        0.244016         4
        30        29        31        47     9        0.000000        0.048221         1
        30        29        31        47     9      180.000000       12.794439         2
        30        29        31        47     9        0.000000       -0.101171         3
        30        29        31        47     9      180.000000        0.298200         4
        31        29        21        36     9        0.000000       -0.291698         1
        31        29        21        36     9      180.000000       18.235585         2
        31        29        21        36     9        0.000000       -1.645593         3
        31        29        21        36     9      180.000000       -0.373593         4
        31        32        34        35     9        0.000000        0.082841         1
        31        32        34        35     9      180.000000       14.244259         2
        31        32        34        35     9        0.000000       -0.443584         3
        31        32        34        35     9      180.000000        0.092138         4
        31        32        34        36     9        0.000000       -0.152850         1
        31        32        34        36     9      180.000000       18.801876         2
        31        32        34        36     9        0.000000       -1.602233         3
        31        32        34        36     9      180.000000       -0.522211         4
        31        47        48        49     9        0.000000       -0.095310         1
        31        47        48        49     9      180.000000        0.028826         2
        31        47        48        49     9        0.000000        0.698770         3
        31        47        48        49     9      180.000000       -0.022507         4
        31        47        48        50     9        0.000000       -0.095310         1
        31        47        48        50     9      180.000000        0.028826         2
        31        47        48        50     9        0.000000        0.698770         3
        31        47        48        50     9      180.000000       -0.022507         4
        31        47        48        51     9        0.000000       -0.095310         1
        31        47        48        51     9      180.000000        0.028826         2
        31        47        48        51     9        0.000000        0.698770         3
        31        47        48        51     9      180.000000       -0.022507         4
        32        31        47        48     9        0.000000        0.239635         1
        32        31        47        48     9      180.000000        5.302745         2
        32        31        47        48     9        0.000000       -0.062554         3
        32        31        47        48     9      180.000000        0.684682         4
        32        34        36        37     9        0.000000        0.469496         1
        32        34        36        37     9      180.000000       23.207526         2
        32        34        36        37     9        0.000000        0.471070         3
        32        34        36        37     9      180.000000       -0.521229         4
        33        32        31        47     9        0.000000        0.079939         1
        33        32        31        47     9      180.000000       12.821835         2
        33        32        31        47     9        0.000000       -0.132634         3
        33        32        31        47     9      180.000000        0.268626         4
        33        32        34        35     9        0.000000       -0.105499         1
        33        32        34        35     9      180.000000       11.690384         2
        33        32        34        35     9        0.000000       -0.698881         3
        33        32        34        35     9      180.000000        0.226598         4
        33        32        34        36     9        0.000000        0.252958         1
        33        32        34        36     9      180.000000       14.187822         2
        33        32        34        36     9        0.000000       -0.508508         3
        33        32        34        36     9      180.000000        0.110303         4
        34        32        31        47     9        0.000000        0.517169         1
        34        32        31        47     9      180.000000       17.679040         2
        34        32        31        47     9        0.000000        0.431298         3
        34        32        31        47     9      180.000000       -0.266591         4
        35        34        36        37     9        0.000000        0.292486         1
        35        34        36        37     9      180.000000       16.658000         2
        35        34        36        37     9        0.000000        0.300353         3
        35        34        36        37     9      180.000000        0.106244         4
        39        11        43        44     9        0.000000       -0.082665         1
        39        11        43        44     9      180.000000        0.011908         2
        39        11        43        44     9        0.000000        0.531652         3
        39        11        43        44     9      180.000000        0.044562         4
        39        11        43        45     9        0.000000       -0.082665         1
        39        11        43        45     9      180.000000        0.011908         2
        39        11        43        45     9        0.000000        0.531652         3
        39        11        43        45     9      180.000000        0.044562         4
        39        11        43        46     9        0.000000       -0.082665         1
        39        11        43        46     9      180.000000        0.011908         2
        39        11        43        46     9        0.000000        0.531652         3
        39        11        43        46     9      180.000000        0.044562         4
        40        39        11        43     9        0.000000       -0.082665         1
        40        39        11        43     9      180.000000        0.011907         2
        40        39        11        43     9        0.000000        0.531652         3
        40        39        11        43     9      180.000000        0.044561         4
        41        39        11        43     9        0.000000       -0.082665         1
        41        39        11        43     9      180.000000        0.011907         2
        41        39        11        43     9        0.000000        0.531652         3
        41        39        11        43     9      180.000000        0.044561         4
        42        39        11        43     9        0.000000       -0.082665         1
        42        39        11        43     9      180.000000        0.011907         2
        42        39        11        43     9        0.000000        0.531652         3
        42        39        11        43     9      180.000000        0.044561         4

[ dihedrals ] ; impropers
;       ai        aj        ak        al funct           phase               k        pn
        16        15        17        38     4      180.000000       26.920056         2
        16        17        38        15     4      180.000000       26.920056         2
        16        38        15        17     4      180.000000       26.920056         2
        18        17        19        26     4      180.000000       10.189567         2
        18        19        26        17     4      180.000000       10.189567         2
        18        26        17        19     4      180.000000       10.189567         2
        31        29        32        47     4      180.000000        0.027385         2
        31        32        47        29     4      180.000000        0.027385         2
        31        47        29        32     4      180.000000        0.027385         2

[ pairs ]
;       ai        aj funct
         1         5     1
         1         6     1
         1        15     1
         1        30     1
         1        31     1
         1        34     1
         1        37     1
         2         7     1
         2         9     1
         2        10     1
         2        29     1
         2        36     1
         3         5     1
         3         6     1
         3         8     1
         3        21     1
         4         8     1
         4        11     1
         4        15     1
         4        21     1
         5         7     1
         5        10     1
         6         9     1
         6        12     1
         6        16     1
         6        19     1
         6        39     1
         6        43     1
         7        11     1
         7        13     1
         7        14     1
         7        17     1
         7        18     1
         7        20     1
         7        21     1
         7        38     1
         8        10     1
         8        12     1
         8        16     1
         8        19     1
         8        29     1
         8        36     1
         9        15     1
         9        21     1
        10        13     1
        10        14     1
        10        15     1
        10        40     1
        10        41     1
        10        42     1
        10        44     1
        10        45     1
        10        46     1
        11        16     1
        11        19     1
        12        17     1
        12        18     1
        12        20     1
        12        38     1
        12        40     1
        12        41     1
        12        42     1
        12        44     1
        12        45     1
        12        46     1
        13        16     1
        13        19     1
        13        39     1
        13        43     1
        14        16     1
        14        19     1
        14        39     1
        14        43     1
        15        22     1
        15        26     1
        15        39     1
        15        43     1
        16        20     1
        16        23     1
        16        24     1
        16        25     1
        16        26     1
        17        20     1
        17        27     1
        17        28     1
        18        23     1
        18        24     1
        18        25     1
        18        38     1
        19        22     1
        19        27     1
        19        28     1
        19        38     1
        20        26     1
        21        32     1
        21        35     1
        21        47     1
        22        26     1
        22        38     1
        29        33     1
        29        34     1
        29        37     1
        29        48     1
        30        32     1
        30        36     1
        30        47     1
        31        35     1
        31        36     1
        31        49     1
        31        50     1
        31        51     1
        32        37     1
        32        48     1
        33        35     1
        33        36     1
        33        47     1
        34        47     1
        35        37     1
        39        44     1
        39        45     1
        39        46     1
        40        43     1
        41        43     1
        42        43     1
