; ITP file created by ByteFF-ML, 2026-03-14 15:25:44.187051

[ atomtypes ]
;name           bonded.type        at.num        mass        charge   ptype           sigma         epsilon
 c0bf                                   6      0.0000       0.00000       A     3.31519e-01     4.13190e-01
 c1bf                                   6      0.0000       0.00000       A     3.31461e-01     4.12744e-01
 h2bf                                   1      0.0000       0.00000       A     2.62526e-01     6.71387e-02
 c3bf                                   6      0.0000       0.00000       A     3.31541e-01     4.11722e-01
 h4bf                                   1      0.0000       0.00000       A     2.62431e-01     6.67827e-02
 c5bf                                   6      0.0000       0.00000       A     3.31250e-01     4.11826e-01
 c6bf                                   6      0.0000       0.00000       A     3.31177e-01     4.13725e-01
 c7bf                                   6      0.0000       0.00000       A     3.31453e-01     4.12254e-01
 h8bf                                   1      0.0000       0.00000       A     2.62492e-01     6.68849e-02
 o9bf                                   8      0.0000       0.00000       A     3.15529e-01     3.02270e-01
 c10bf                                  6      0.0000       0.00000       A     3.39880e-01     4.53386e-01
 c11bf                                  6      0.0000       0.00000       A     3.39567e-01     4.51771e-01
 h12bf                                  1      0.0000       0.00000       A     2.59417e-01     8.63170e-02
 h13bf                                  1      0.0000       0.00000       A     2.59417e-01     8.63170e-02
 c14bf                                  6      0.0000       0.00000       A     3.39912e-01     4.53250e-01
 c15bf                                  6      0.0000       0.00000       A     3.31525e-01     4.13256e-01
 n16bf                                  7      0.0000       0.00000       A     3.18147e-01     7.08350e-01
 c17bf                                  6      0.0000       0.00000       A     3.31173e-01     4.11985e-01
 n18bf                                  7      0.0000       0.00000       A     3.26363e-01     6.55753e-01
 h19bf                                  1      0.0000       0.00000       A     1.10240e-01     4.07109e-02
 br20bf                                35      0.0000       0.00000       A     3.61310e-01     1.64481e+00
 c21bf                                  6      0.0000       0.00000       A     3.39925e-01     4.53383e-01
 h22bf                                  1      0.0000       0.00000       A     2.42238e-01     8.60936e-02
 h23bf                                  1      0.0000       0.00000       A     2.42238e-01     8.60936e-02
 h24bf                                  1      0.0000       0.00000       A     2.42238e-01     8.60936e-02
 n25bf                                  7      0.0000       0.00000       A     3.36693e-01     4.77150e-01
 h26bf                                  1      0.0000       0.00000       A     1.10539e-01     3.88978e-02
 h27bf                                  1      0.0000       0.00000       A     1.10539e-01     3.88978e-02
 o28bf                                  8      0.0000       0.00000       A     3.04358e-01     6.10575e-01
 c29bf                                  6      0.0000       0.00000       A     3.39798e-01     4.50250e-01
 h30bf                                  1      0.0000       0.00000       A     2.59893e-01     8.82802e-02
 h31bf                                  1      0.0000       0.00000       A     2.59893e-01     8.82802e-02
 h32bf                                  1      0.0000       0.00000       A     2.59893e-01     8.82802e-02
 c33bf                                  6      0.0000       0.00000       A     3.39798e-01     4.50250e-01
 h34bf                                  1      0.0000       0.00000       A     2.59893e-01     8.82802e-02
 h35bf                                  1      0.0000       0.00000       A     2.59893e-01     8.82802e-02
 h36bf                                  1      0.0000       0.00000       A     2.59893e-01     8.82802e-02

[ moleculetype ]
;name             nrexcl
 1a                    3

[ atoms ]
;       nr            type      resi   res      atom      cgnr      charge          mass ; qtot
         1            c0bf         1   UNL        c0         1    -0.03848       12.0110 ; qtot   -0.038
         2            c1bf         1   UNL        c1         2    -0.04045       12.0110 ; qtot   -0.079
         3            h2bf         1   UNL        h2         3     0.13416        1.0080 ; qtot    0.055
         4            c3bf         1   UNL        c3         4    -0.13263       12.0110 ; qtot   -0.077
         5            h4bf         1   UNL        h4         5     0.13761        1.0080 ; qtot    0.060
         6            c5bf         1   UNL        c5         6     0.16816       12.0110 ; qtot    0.228
         7            c6bf         1   UNL        c6         7    -0.18091       12.0110 ; qtot    0.047
         8            c7bf         1   UNL        c7         8    -0.02251       12.0110 ; qtot    0.025
         9            h8bf         1   UNL        h8         9     0.14280        1.0080 ; qtot    0.168
        10            o9bf         1   UNL        o9        10    -0.35870       15.9990 ; qtot   -0.191
        11           c10bf         1   UNL       c10        11     0.18141       12.0110 ; qtot   -0.010
        12           c11bf         1   UNL       c11        12    -0.08096       12.0110 ; qtot   -0.090
        13           h12bf         1   UNL       h12        13     0.08348        1.0080 ; qtot   -0.007
        14           h13bf         1   UNL       h13        14     0.08348        1.0080 ; qtot    0.076
        15           c14bf         1   UNL       c14        15     0.10583       12.0110 ; qtot    0.182
        16           c15bf         1   UNL       c15        16     0.55101       12.0110 ; qtot    0.733
        17           n16bf         1   UNL       n16        17    -0.64651       14.0070 ; qtot    0.087
        18           c17bf         1   UNL       c17        18     0.99722       12.0110 ; qtot    1.084
        19           n18bf         1   UNL       n18        19    -0.63110       14.0070 ; qtot    0.453
        20           h19bf         1   UNL       h19        20     0.41427        1.0080 ; qtot    0.867
        21          br20bf         1   UNL      br20        21    -0.09002       79.9040 ; qtot    0.777
        22           c21bf         1   UNL       c21        22     0.07086       12.0110 ; qtot    0.848
        23           h22bf         1   UNL       h22        23     0.09037        1.0080 ; qtot    0.938
        24           h23bf         1   UNL       h23        24     0.09037        1.0080 ; qtot    1.029
        25           h24bf         1   UNL       h24        25     0.09037        1.0080 ; qtot    1.119
        26           n25bf         1   UNL       n25        26    -0.57853       14.0070 ; qtot    0.541
        27           h26bf         1   UNL       h26        27     0.38249        1.0080 ; qtot    0.923
        28           h27bf         1   UNL       h27        28     0.38249        1.0080 ; qtot    1.306
        29           o28bf         1   UNL       o28        29    -0.39811       15.9990 ; qtot    0.907
        30           c29bf         1   UNL       c29        30    -0.10005       12.0110 ; qtot    0.807
        31           h30bf         1   UNL       h30        31     0.04877        1.0080 ; qtot    0.856
        32           h31bf         1   UNL       h31        32     0.04877        1.0080 ; qtot    0.905
        33           h32bf         1   UNL       h32        33     0.04877        1.0080 ; qtot    0.954
        34           c33bf         1   UNL       c33        34    -0.10005       12.0110 ; qtot    0.854
        35           h34bf         1   UNL       h34        35     0.04877        1.0080 ; qtot    0.902
        36           h35bf         1   UNL       h35        36     0.04877        1.0080 ; qtot    0.951
        37           h36bf         1   UNL       h36        37     0.04878        1.0080 ; qtot    1.000

[ bonds ]
;       ai        aj funct               r               k
         1         2     1        0.139770   296840.601367
         1         8     1        0.139164   310348.046777
         1        21     1        0.191534   125174.968115
         2         3     1        0.108460   325241.569873
         2         4     1        0.139338   321650.311719
         4         5     1        0.108520   322830.381543
         4         6     1        0.140046   288803.638916
         6         7     1        0.140526   274640.911279
         6        10     1        0.136541   266108.605518
         7         8     1        0.140189   292906.813965
         7        15     1        0.151360   180497.412695
         8         9     1        0.108423   323964.535645
        10        11     1        0.145731   141482.468188
        11        12     1        0.154147   164699.186426
        11        30     1        0.152988   183033.962695
        11        34     1        0.152988   183033.962695
        12        13     1        0.109298   301656.951270
        12        14     1        0.109298   301656.951270
        12        15     1        0.154171   160472.347925
        15        16     1        0.154409   128155.263696
        15        19     1        0.148525   146533.248755
        16        17     1        0.141843   159362.696680
        16        29     1        0.120598   711921.798633
        17        18     1        0.135797   301738.516797
        17        22     1        0.146668   196952.070361
        18        19     1        0.133090   390989.539355
        18        26     1        0.133332   412686.071777
        19        20     1        0.101348   425202.319824
        22        23     1        0.109031   312124.816699
        22        24     1        0.109031   312124.816699
        22        25     1        0.109031   312124.791162
        26        27     1        0.101316   425666.584473
        26        28     1        0.101316   425666.584473
        30        31     1        0.109316   303222.120703
        30        32     1        0.109316   303222.120703
        30        33     1        0.109316   303222.120703
        34        35     1        0.109316   303222.120703
        34        36     1        0.109316   303222.120703
        34        37     1        0.109316   303222.120703

[ angles ]
;       ai        aj        ak funct           theta             cth
         1         2         3     1      120.479591      411.907094
         1         2         4     1      119.053139      624.317332
         1         8         7     1      120.033035      601.415142
         1         8         9     1      119.785179      411.580602
         2         1         8     1      120.808121      658.670554
         2         1        21     1      119.546387      328.737326
         2         4         5     1      120.933815      428.483519
         2         4         6     1      120.455666      740.293859
         3         2         4     1      120.402969      415.247763
         4         6         7     1      120.194603      613.970079
         4         6        10     1      116.357864      549.247424
         5         4         6     1      118.735756      429.388363
         6         7         8     1      119.161621      728.995987
         6         7        15     1      119.712807      587.704523
         6        10        11     1      117.915688      499.618382
         7         6        10     1      123.654335      499.094872
         7         8         9     1      120.239639      407.451667
         7        15        12     1      111.565758      557.854962
         7        15        16     1      111.917969      605.081185
         7        15        19     1      111.384995      596.280587
         8         1        21     1      119.530846      312.339022
         8         7        15     1      120.929665      460.981502
        10        11        12     1      109.078835      556.881551
        10        11        30     1      106.645714      604.086579
        10        11        34     1      106.645714      604.086579
        11        12        13     1      109.154335      466.471374
        11        12        14     1      109.154335      466.471374
        11        12        15     1      113.057266      640.489218
        11        30        31     1      110.474686      475.605615
        11        30        32     1      110.474686      475.605615
        11        30        33     1      110.474686      475.605615
        11        34        35     1      110.474686      475.605615
        11        34        36     1      110.474686      475.605615
        11        34        37     1      110.474686      475.605615
        12        11        30     1      111.385193      575.618575
        12        11        34     1      111.385193      575.618575
        12        15        16     1      110.807152      617.033063
        12        15        19     1      110.624733      611.781038
        13        12        14     1      107.420326      358.221546
        13        12        15     1      108.616562      474.822519
        14        12        15     1      108.616562      474.822519
        15        16        17     1      106.498962      167.360000
        15        16        29     1      127.548439      358.891481
        15        19        18     1      111.586441      619.815268
        15        19        20     1      121.407516      360.234222
        16        15        19     1      100.397034      329.408888
        16        17        18     1      109.401268      854.894893
        16        17        22     1      123.309692      531.050510
        17        16        29     1      124.771469      662.663728
        17        18        19     1      111.171402      582.762773
        17        18        26     1      123.442459      642.331720
        17        22        23     1      109.308334      484.616097
        17        22        24     1      109.308334      484.616097
        17        22        25     1      109.308334      484.616097
        18        17        22     1      126.712746      464.666092
        18        19        20     1      123.566017      425.702688
        18        26        27     1      120.916794      453.685646
        18        26        28     1      120.916794      453.685646
        19        18        26     1      125.735672      609.105451
        23        22        24     1      109.761864      350.063653
        23        22        25     1      109.761864      350.063653
        24        22        25     1      109.761864      350.063653
        27        26        28     1      117.283279      315.513827
        30        11        34     1      111.043091      610.311568
        31        30        32     1      108.427734      360.868117
        31        30        33     1      108.427734      360.868117
        32        30        33     1      108.427734      360.868117
        35        34        36     1      108.427734      360.868117
        35        34        37     1      108.427734      360.868149
        36        34        37     1      108.427734      360.868117

[ dihedrals ] ; propers for gromacs 4.5 or higher, use funct 9
;       ai        aj        ak        al funct           phase               k        pn
         1         2         4         5     9        0.000000        0.073611         1
         1         2         4         5     9      180.000000       14.167152         2
         1         2         4         5     9        0.000000       -0.575252         3
         1         2         4         5     9      180.000000        0.196529         4
         1         2         4         6     9        0.000000       -0.017740         1
         1         2         4         6     9      180.000000       19.038414         2
         1         2         4         6     9        0.000000       -1.401156         3
         1         2         4         6     9      180.000000       -0.541042         4
         1         8         7         6     9        0.000000        0.066191         1
         1         8         7         6     9      180.000000       19.079263         2
         1         8         7         6     9        0.000000       -1.125803         3
         1         8         7         6     9      180.000000       -0.462440         4
         1         8         7        15     9        0.000000        0.218256         1
         1         8         7        15     9      180.000000       16.886765         2
         1         8         7        15     9        0.000000        0.027432         3
         1         8         7        15     9      180.000000       -0.446369         4
         2         1         8         7     9        0.000000       -0.090346         1
         2         1         8         7     9      180.000000       18.300270         2
         2         1         8         7     9        0.000000       -1.397464         3
         2         1         8         7     9      180.000000       -0.475493         4
         2         1         8         9     9        0.000000       -0.004534         1
         2         1         8         9     9      180.000000       14.150713         2
         2         1         8         9     9        0.000000       -0.613157         3
         2         1         8         9     9      180.000000        0.056034         4
         2         4         6         7     9        0.000000        0.023468         1
         2         4         6         7     9      180.000000       18.335345         2
         2         4         6         7     9        0.000000       -0.803016         3
         2         4         6         7     9      180.000000       -0.497805         4
         2         4         6        10     9        0.000000        0.585182         1
         2         4         6        10     9      180.000000       20.208444         2
         2         4         6        10     9        0.000000        0.781410         3
         2         4         6        10     9      180.000000       -0.519914         4
         3         2         1         8     9        0.000000        0.009810         1
         3         2         1         8     9      180.000000       13.497096         2
         3         2         1         8     9        0.000000       -0.689071         3
         3         2         1         8     9      180.000000        0.080145         4
         3         2         1        21     9        0.000000        0.123608         1
         3         2         1        21     9      180.000000       12.670159         2
         3         2         1        21     9        0.000000       -0.064192         3
         3         2         1        21     9      180.000000        0.182687         4
         3         2         4         5     9        0.000000       -0.088020         1
         3         2         4         5     9      180.000000       12.066914         2
         3         2         4         5     9        0.000000       -0.709676         3
         3         2         4         5     9      180.000000        0.323478         4
         3         2         4         6     9        0.000000        0.112541         1
         3         2         4         6     9      180.000000       14.217337         2
         3         2         4         6     9        0.000000       -0.563525         3
         3         2         4         6     9      180.000000        0.109207         4
         4         2         1         8     9        0.000000       -0.093761         1
         4         2         1         8     9      180.000000       17.418892         2
         4         2         1         8     9        0.000000       -1.285308         3
         4         2         1         8     9      180.000000       -0.369965         4
         4         2         1        21     9        0.000000        0.380786         1
         4         2         1        21     9      180.000000       17.832198         2
         4         2         1        21     9        0.000000        0.248447         3
         4         2         1        21     9      180.000000       -0.524922         4
         4         6         7         8     9        0.000000       -0.104007         1
         4         6         7         8     9      180.000000       15.251959         2
         4         6         7         8     9        0.000000       -0.797616         3
         4         6         7         8     9      180.000000       -0.270060         4
         4         6         7        15     9        0.000000        0.296370         1
         4         6         7        15     9      180.000000       12.418972         2
         4         6         7        15     9        0.000000        0.173866         3
         4         6         7        15     9      180.000000       -0.252046         4
         4         6        10        11     9        0.000000       -0.594792         1
         4         6        10        11     9      180.000000        0.740466         2
         4         6        10        11     9        0.000000        0.085580         3
         4         6        10        11     9      180.000000        0.291143         4
         5         4         6         7     9        0.000000        0.031233         1
         5         4         6         7     9      180.000000       13.508508         2
         5         4         6         7     9        0.000000       -0.408381         3
         5         4         6         7     9      180.000000        0.006405         4
         5         4         6        10     9        0.000000       -0.008821         1
         5         4         6        10     9      180.000000       15.994953         2
         5         4         6        10     9        0.000000        0.135572         3
         5         4         6        10     9      180.000000        0.172425         4
         6         7         8         9     9        0.000000        0.184845         1
         6         7         8         9     9      180.000000       14.228594         2
         6         7         8         9     9        0.000000       -0.311610         3
         6         7         8         9     9      180.000000        0.036816         4
         6         7        15        12     9        0.000000        0.344165         1
         6         7        15        12     9      180.000000       -0.588453         2
         6         7        15        12     9        0.000000        0.523898         3
         6         7        15        12     9      180.000000        0.195813         4
         6         7        15        16     9        0.000000        0.068933         1
         6         7        15        16     9      180.000000       -0.170225         2
         6         7        15        16     9        0.000000       -0.130019         3
         6         7        15        16     9      180.000000        0.102429         4
         6         7        15        19     9        0.000000       -0.939789         1
         6         7        15        19     9      180.000000        1.101019         2
         6         7        15        19     9        0.000000        0.405224         3
         6         7        15        19     9      180.000000       -0.210921         4
         6        10        11        12     9        0.000000        6.073683         1
         6        10        11        12     9      180.000000       -3.046382         2
         6        10        11        12     9        0.000000       -0.356998         3
         6        10        11        12     9      180.000000        0.714126         4
         6        10        11        30     9        0.000000       -0.618283         1
         6        10        11        30     9      180.000000        0.501973         2
         6        10        11        30     9        0.000000        0.455156         3
         6        10        11        30     9      180.000000        0.040978         4
         6        10        11        34     9        0.000000       -0.618283         1
         6        10        11        34     9      180.000000        0.501973         2
         6        10        11        34     9        0.000000        0.455156         3
         6        10        11        34     9      180.000000        0.040978         4
         7         6        10        11     9        0.000000        1.917795         1
         7         6        10        11     9      180.000000       -0.184968         2
         7         6        10        11     9        0.000000       -0.084972         3
         7         6        10        11     9      180.000000        0.643792         4
         7         8         1        21     9        0.000000        0.121737         1
         7         8         1        21     9      180.000000       19.116857         2
         7         8         1        21     9        0.000000        0.313585         3
         7         8         1        21     9      180.000000       -0.791867         4
         7        15        12        11     9        0.000000        1.609950         1
         7        15        12        11     9      180.000000       -1.141238         2
         7        15        12        11     9        0.000000        0.385613         3
         7        15        12        11     9      180.000000        0.198999         4
         7        15        12        13     9        0.000000        0.024912         1
         7        15        12        13     9      180.000000        0.043707         2
         7        15        12        13     9        0.000000        0.528649         3
         7        15        12        13     9      180.000000        0.006211         4
         7        15        12        14     9        0.000000        0.024912         1
         7        15        12        14     9      180.000000        0.043707         2
         7        15        12        14     9        0.000000        0.528649         3
         7        15        12        14     9      180.000000        0.006211         4
         7        15        16        17     9        0.000000        0.570292         1
         7        15        16        17     9      180.000000        1.947886         2
         7        15        16        17     9        0.000000        0.309533         3
         7        15        16        17     9      180.000000        0.614940         4
         7        15        16        29     9        0.000000       -0.914936         1
         7        15        16        29     9      180.000000        1.877908         2
         7        15        16        29     9        0.000000       -0.427185         3
         7        15        16        29     9      180.000000        0.533003         4
         7        15        19        18     9        0.000000        1.447322         1
         7        15        19        18     9      180.000000        0.286025         2
         7        15        19        18     9        0.000000        0.444327         3
         7        15        19        18     9      180.000000        0.174486         4
         7        15        19        20     9        0.000000        0.800776         1
         7        15        19        20     9      180.000000       -0.234966         2
         7        15        19        20     9        0.000000        0.311697         3
         7        15        19        20     9      180.000000        0.144663         4
         8         7         6        10     9        0.000000        0.247704         1
         8         7         6        10     9      180.000000       16.746522         2
         8         7         6        10     9        0.000000        0.617541         3
         8         7         6        10     9      180.000000       -0.364375         4
         8         7        15        12     9        0.000000       -0.265753         1
         8         7        15        12     9      180.000000        0.431476         2
         8         7        15        12     9        0.000000       -0.238938         3
         8         7        15        12     9      180.000000        0.262420         4
         8         7        15        16     9        0.000000       -0.471876         1
         8         7        15        16     9      180.000000       -0.373065         2
         8         7        15        16     9        0.000000       -0.256129         3
         8         7        15        16     9      180.000000        0.209769         4
         8         7        15        19     9        0.000000       -0.072731         1
         8         7        15        19     9      180.000000        1.766459         2
         8         7        15        19     9        0.000000       -0.120397         3
         8         7        15        19     9      180.000000        0.014904         4
         9         8         1        21     9        0.000000        0.098960         1
         9         8         1        21     9      180.000000       13.297045         2
         9         8         1        21     9        0.000000       -0.103705         3
         9         8         1        21     9      180.000000        0.121992         4
         9         8         7        15     9        0.000000       -0.060656         1
         9         8         7        15     9      180.000000       13.132456         2
         9         8         7        15     9        0.000000       -0.213823         3
         9         8         7        15     9      180.000000        0.091345         4
        10         6         7        15     9        0.000000        0.623776         1
        10         6         7        15     9      180.000000       13.333331         2
        10         6         7        15     9        0.000000        0.944804         3
        10         6         7        15     9      180.000000       -0.595714         4
        10        11        12        13     9        0.000000        0.010187         1
        10        11        12        13     9      180.000000        0.032223         2
        10        11        12        13     9        0.000000        0.118020         3
        10        11        12        13     9      180.000000        0.005280         4
        10        11        12        14     9        0.000000        0.010187         1
        10        11        12        14     9      180.000000        0.032223         2
        10        11        12        14     9        0.000000        0.118020         3
        10        11        12        14     9      180.000000        0.005280         4
        10        11        12        15     9        0.000000        6.448819         1
        10        11        12        15     9      180.000000       -3.192190         2
        10        11        12        15     9        0.000000       -0.821311         3
        10        11        12        15     9      180.000000        0.262919         4
        10        11        30        31     9        0.000000        0.022757         1
        10        11        30        31     9      180.000000       -0.106326         2
        10        11        30        31     9        0.000000        0.371208         3
        10        11        30        31     9      180.000000        0.017378         4
        10        11        30        32     9        0.000000        0.022757         1
        10        11        30        32     9      180.000000       -0.106326         2
        10        11        30        32     9        0.000000        0.371208         3
        10        11        30        32     9      180.000000        0.017378         4
        10        11        30        33     9        0.000000        0.022757         1
        10        11        30        33     9      180.000000       -0.106326         2
        10        11        30        33     9        0.000000        0.371208         3
        10        11        30        33     9      180.000000        0.017378         4
        10        11        34        35     9        0.000000        0.022757         1
        10        11        34        35     9      180.000000       -0.106326         2
        10        11        34        35     9        0.000000        0.371208         3
        10        11        34        35     9      180.000000        0.017378         4
        10        11        34        36     9        0.000000        0.022757         1
        10        11        34        36     9      180.000000       -0.106326         2
        10        11        34        36     9        0.000000        0.371208         3
        10        11        34        36     9      180.000000        0.017378         4
        10        11        34        37     9        0.000000        0.022757         1
        10        11        34        37     9      180.000000       -0.106326         2
        10        11        34        37     9        0.000000        0.371208         3
        10        11        34        37     9      180.000000        0.017378         4
        11        12        15        16     9        0.000000       -0.124347         1
        11        12        15        16     9      180.000000        0.092722         2
        11        12        15        16     9        0.000000        0.007641         3
        11        12        15        16     9      180.000000        0.063895         4
        11        12        15        19     9        0.000000       -1.338779         1
        11        12        15        19     9      180.000000       -0.649617         2
        11        12        15        19     9        0.000000        0.370522         3
        11        12        15        19     9      180.000000        0.288881         4
        12        11        30        31     9        0.000000       -0.089919         1
        12        11        30        31     9      180.000000        0.000423         2
        12        11        30        31     9        0.000000        0.433042         3
        12        11        30        31     9      180.000000        0.019250         4
        12        11        30        32     9        0.000000       -0.089919         1
        12        11        30        32     9      180.000000        0.000423         2
        12        11        30        32     9        0.000000        0.433042         3
        12        11        30        32     9      180.000000        0.019250         4
        12        11        30        33     9        0.000000       -0.089919         1
        12        11        30        33     9      180.000000        0.000423         2
        12        11        30        33     9        0.000000        0.433042         3
        12        11        30        33     9      180.000000        0.019250         4
        12        11        34        35     9        0.000000       -0.089919         1
        12        11        34        35     9      180.000000        0.000423         2
        12        11        34        35     9        0.000000        0.433042         3
        12        11        34        35     9      180.000000        0.019250         4
        12        11        34        36     9        0.000000       -0.089919         1
        12        11        34        36     9      180.000000        0.000423         2
        12        11        34        36     9        0.000000        0.433042         3
        12        11        34        36     9      180.000000        0.019250         4
        12        11        34        37     9        0.000000       -0.089919         1
        12        11        34        37     9      180.000000        0.000423         2
        12        11        34        37     9        0.000000        0.433042         3
        12        11        34        37     9      180.000000        0.019250         4
        12        15        16        17     9        0.000000       -0.069303         1
        12        15        16        17     9      180.000000        3.043344         2
        12        15        16        17     9        0.000000        0.132891         3
        12        15        16        17     9      180.000000        0.385757         4
        12        15        16        29     9        0.000000        1.044933         1
        12        15        16        29     9      180.000000        2.706068         2
        12        15        16        29     9        0.000000       -0.577798         3
        12        15        16        29     9      180.000000        0.526692         4
        12        15        19        18     9        0.000000       -0.540508         1
        12        15        19        18     9      180.000000        0.755121         2
        12        15        19        18     9        0.000000        0.345866         3
        12        15        19        18     9      180.000000        0.157922         4
        12        15        19        20     9        0.000000        0.223035         1
        12        15        19        20     9      180.000000       -0.171635         2
        12        15        19        20     9        0.000000        0.221110         3
        12        15        19        20     9      180.000000       -0.052393         4
        13        12        11        30     9        0.000000       -0.021980         1
        13        12        11        30     9      180.000000       -0.009422         2
        13        12        11        30     9        0.000000        0.356718         3
        13        12        11        30     9      180.000000       -0.000954         4
        13        12        11        34     9        0.000000       -0.021980         1
        13        12        11        34     9      180.000000       -0.009422         2
        13        12        11        34     9        0.000000        0.356718         3
        13        12        11        34     9      180.000000       -0.000954         4
        13        12        15        16     9        0.000000       -0.117724         1
        13        12        15        16     9      180.000000        0.009594         2
        13        12        15        16     9        0.000000        0.249214         3
        13        12        15        16     9      180.000000        0.013572         4
        13        12        15        19     9        0.000000        0.051786         1
        13        12        15        19     9      180.000000        0.029181         2
        13        12        15        19     9        0.000000        0.441234         3
        13        12        15        19     9      180.000000       -0.092124         4
        14        12        11        30     9        0.000000       -0.021980         1
        14        12        11        30     9      180.000000       -0.009422         2
        14        12        11        30     9        0.000000        0.356718         3
        14        12        11        30     9      180.000000       -0.000954         4
        14        12        11        34     9        0.000000       -0.021980         1
        14        12        11        34     9      180.000000       -0.009422         2
        14        12        11        34     9        0.000000        0.356718         3
        14        12        11        34     9      180.000000       -0.000954         4
        14        12        15        16     9        0.000000       -0.117724         1
        14        12        15        16     9      180.000000        0.009594         2
        14        12        15        16     9        0.000000        0.249214         3
        14        12        15        16     9      180.000000        0.013572         4
        14        12        15        19     9        0.000000        0.051786         1
        14        12        15        19     9      180.000000        0.029181         2
        14        12        15        19     9        0.000000        0.441234         3
        14        12        15        19     9      180.000000       -0.092124         4
        15        12        11        30     9        0.000000       -0.510087         1
        15        12        11        30     9      180.000000        0.611051         2
        15        12        11        30     9        0.000000        0.253184         3
        15        12        11        30     9      180.000000       -0.013854         4
        15        12        11        34     9        0.000000       -0.510087         1
        15        12        11        34     9      180.000000        0.611051         2
        15        12        11        34     9        0.000000        0.253184         3
        15        12        11        34     9      180.000000       -0.013854         4
        15        16        17        18     9        0.000000       -2.625528         1
        15        16        17        18     9      180.000000       12.591868         2
        15        16        17        18     9        0.000000       -1.701376         3
        15        16        17        18     9      180.000000       -0.494538         4
        15        16        17        22     9        0.000000       -1.188432         1
        15        16        17        22     9      180.000000        6.568568         2
        15        16        17        22     9        0.000000        0.164365         3
        15        16        17        22     9      180.000000       -0.165512         4
        15        19        18        17     9        0.000000       -1.488997         1
        15        19        18        17     9      180.000000       26.041138         2
        15        19        18        17     9        0.000000       -2.141865         3
        15        19        18        17     9      180.000000       -2.966263         4
        15        19        18        26     9        0.000000        1.663109         1
        15        19        18        26     9      180.000000       19.801993         2
        15        19        18        26     9        0.000000        0.709592         3
        15        19        18        26     9      180.000000       -2.030465         4
        16        15        19        18     9        0.000000       -3.164104         1
        16        15        19        18     9      180.000000        3.677574         2
        16        15        19        18     9        0.000000       -0.129711         3
        16        15        19        18     9      180.000000       -0.633640         4
        16        15        19        20     9        0.000000       -0.864849         1
        16        15        19        20     9      180.000000       -0.813521         2
        16        15        19        20     9        0.000000        0.164417         3
        16        15        19        20     9      180.000000        0.142811         4
        16        17        18        19     9        0.000000       -2.490328         1
        16        17        18        19     9      180.000000       13.834040         2
        16        17        18        19     9        0.000000       -2.378247         3
        16        17        18        19     9      180.000000       -1.280421         4
        16        17        18        26     9        0.000000        1.935113         1
        16        17        18        26     9      180.000000       11.081021         2
        16        17        18        26     9        0.000000       -0.210529         3
        16        17        18        26     9      180.000000       -0.637296         4
        16        17        22        23     9        0.000000       -0.046462         1
        16        17        22        23     9      180.000000       -0.089247         2
        16        17        22        23     9        0.000000       -0.283225         3
        16        17        22        23     9      180.000000        0.030104         4
        16        17        22        24     9        0.000000       -0.046462         1
        16        17        22        24     9      180.000000       -0.089247         2
        16        17        22        24     9        0.000000       -0.283225         3
        16        17        22        24     9      180.000000        0.030104         4
        16        17        22        25     9        0.000000       -0.046462         1
        16        17        22        25     9      180.000000       -0.089247         2
        16        17        22        25     9        0.000000       -0.283225         3
        16        17        22        25     9      180.000000        0.030104         4
        17        16        15        19     9        0.000000        0.529620         1
        17        16        15        19     9      180.000000        7.763028         2
        17        16        15        19     9        0.000000       -0.347500         3
        17        16        15        19     9      180.000000       -0.038359         4
        17        18        19        20     9        0.000000        0.456218         1
        17        18        19        20     9      180.000000       11.615588         2
        17        18        19        20     9        0.000000        0.224485         3
        17        18        19        20     9      180.000000       -0.965495         4
        17        18        26        27     9        0.000000       -0.170244         1
        17        18        26        27     9      180.000000        6.404527         2
        17        18        26        27     9        0.000000        0.524424         3
        17        18        26        27     9      180.000000       -0.541232         4
        17        18        26        28     9        0.000000       -0.170244         1
        17        18        26        28     9      180.000000        6.404527         2
        17        18        26        28     9        0.000000        0.524424         3
        17        18        26        28     9      180.000000       -0.541232         4
        18        17        16        29     9        0.000000        1.168478         1
        18        17        16        29     9      180.000000       20.631698         2
        18        17        16        29     9        0.000000       -0.713105         3
        18        17        16        29     9      180.000000       -0.822735         4
        18        17        22        23     9        0.000000        0.029062         1
        18        17        22        23     9      180.000000        0.021417         2
        18        17        22        23     9        0.000000        0.188894         3
        18        17        22        23     9      180.000000       -0.011671         4
        18        17        22        24     9        0.000000        0.029062         1
        18        17        22        24     9      180.000000        0.021417         2
        18        17        22        24     9        0.000000        0.188894         3
        18        17        22        24     9      180.000000       -0.011671         4
        18        17        22        25     9        0.000000        0.029062         1
        18        17        22        25     9      180.000000        0.021417         2
        18        17        22        25     9        0.000000        0.188894         3
        18        17        22        25     9      180.000000       -0.011671         4
        19        15        16        29     9        0.000000        7.953936         1
        19        15        16        29     9      180.000000        7.000470         2
        19        15        16        29     9        0.000000       -0.160915         3
        19        15        16        29     9      180.000000        0.324038         4
        19        18        17        22     9        0.000000       -3.776014         1
        19        18        17        22     9      180.000000        5.458346         2
        19        18        17        22     9        0.000000       -0.154527         3
        19        18        17        22     9      180.000000        0.081932         4
        19        18        26        27     9        0.000000       -1.696700         1
        19        18        26        27     9      180.000000        6.696568         2
        19        18        26        27     9        0.000000        0.180424         3
        19        18        26        27     9      180.000000       -0.442659         4
        19        18        26        28     9        0.000000       -1.696700         1
        19        18        26        28     9      180.000000        6.696568         2
        19        18        26        28     9        0.000000        0.180424         3
        19        18        26        28     9      180.000000       -0.442659         4
        20        19        18        26     9        0.000000        0.829726         1
        20        19        18        26     9      180.000000        7.727451         2
        20        19        18        26     9        0.000000        0.246605         3
        20        19        18        26     9      180.000000       -0.383134         4
        22        17        16        29     9        0.000000       -0.327768         1
        22        17        16        29     9      180.000000        9.752935         2
        22        17        16        29     9        0.000000       -0.183564         3
        22        17        16        29     9      180.000000        0.446364         4
        22        17        18        26     9        0.000000        1.331770         1
        22        17        18        26     9      180.000000        6.631611         2
        22        17        18        26     9        0.000000        0.055652         3
        22        17        18        26     9      180.000000       -0.063283         4
        30        11        34        35     9        0.000000       -0.082665         1
        30        11        34        35     9      180.000000        0.011908         2
        30        11        34        35     9        0.000000        0.531653         3
        30        11        34        35     9      180.000000        0.044561         4
        30        11        34        36     9        0.000000       -0.082665         1
        30        11        34        36     9      180.000000        0.011908         2
        30        11        34        36     9        0.000000        0.531653         3
        30        11        34        36     9      180.000000        0.044561         4
        30        11        34        37     9        0.000000       -0.082665         1
        30        11        34        37     9      180.000000        0.011908         2
        30        11        34        37     9        0.000000        0.531653         3
        30        11        34        37     9      180.000000        0.044561         4
        31        30        11        34     9        0.000000       -0.082665         1
        31        30        11        34     9      180.000000        0.011908         2
        31        30        11        34     9        0.000000        0.531653         3
        31        30        11        34     9      180.000000        0.044561         4
        32        30        11        34     9        0.000000       -0.082665         1
        32        30        11        34     9      180.000000        0.011908         2
        32        30        11        34     9        0.000000        0.531653         3
        32        30        11        34     9      180.000000        0.044561         4
        33        30        11        34     9        0.000000       -0.082665         1
        33        30        11        34     9      180.000000        0.011908         2
        33        30        11        34     9        0.000000        0.531653         3
        33        30        11        34     9      180.000000        0.044561         4

[ dihedrals ] ; impropers
;       ai        aj        ak        al funct           phase               k        pn
        16        15        17        29     4      180.000000       26.983055         2
        16        17        29        15     4      180.000000       26.983055         2
        16        29        15        17     4      180.000000       26.983055         2
        18        17        19        26     4      180.000000       10.189569         2
        18        19        26        17     4      180.000000       10.189569         2
        18        26        17        19     4      180.000000       10.189569         2

[ pairs ]
;       ai        aj funct
         1         5     1
         1         6     1
         1        15     1
         2         7     1
         2         9     1
         2        10     1
         3         5     1
         3         6     1
         3         8     1
         3        21     1
         4         8     1
         4        11     1
         4        15     1
         4        21     1
         5         7     1
         5        10     1
         6         9     1
         6        12     1
         6        16     1
         6        19     1
         6        30     1
         6        34     1
         7        11     1
         7        13     1
         7        14     1
         7        17     1
         7        18     1
         7        20     1
         7        21     1
         7        29     1
         8        10     1
         8        12     1
         8        16     1
         8        19     1
         9        15     1
         9        21     1
        10        13     1
        10        14     1
        10        15     1
        10        31     1
        10        32     1
        10        33     1
        10        35     1
        10        36     1
        10        37     1
        11        16     1
        11        19     1
        12        17     1
        12        18     1
        12        20     1
        12        29     1
        12        31     1
        12        32     1
        12        33     1
        12        35     1
        12        36     1
        12        37     1
        13        16     1
        13        19     1
        13        30     1
        13        34     1
        14        16     1
        14        19     1
        14        30     1
        14        34     1
        15        22     1
        15        26     1
        15        30     1
        15        34     1
        16        20     1
        16        23     1
        16        24     1
        16        25     1
        16        26     1
        17        20     1
        17        27     1
        17        28     1
        18        23     1
        18        24     1
        18        25     1
        18        29     1
        19        22     1
        19        27     1
        19        28     1
        19        29     1
        20        26     1
        22        26     1
        22        29     1
        30        35     1
        30        36     1
        30        37     1
        31        34     1
        32        34     1
        33        34     1
