; ITP file created by ByteFF-ML, 2026-03-14 15:29:15.405095

[ atomtypes ]
;name           bonded.type        at.num        mass        charge   ptype           sigma         epsilon
 c0bf                                   6      0.0000       0.00000       A     3.31437e-01     4.10016e-01
 c1bf                                   6      0.0000       0.00000       A     3.31534e-01     4.13348e-01
 h2bf                                   1      0.0000       0.00000       A     2.62485e-01     6.75153e-02
 c3bf                                   6      0.0000       0.00000       A     3.31523e-01     4.12056e-01
 h4bf                                   1      0.0000       0.00000       A     2.62405e-01     6.67253e-02
 c5bf                                   6      0.0000       0.00000       A     3.31279e-01     4.11283e-01
 c6bf                                   6      0.0000       0.00000       A     3.31150e-01     4.13198e-01
 c7bf                                   6      0.0000       0.00000       A     3.31375e-01     4.12970e-01
 h8bf                                   1      0.0000       0.00000       A     2.62592e-01     6.73030e-02
 o9bf                                   8      0.0000       0.00000       A     3.15529e-01     3.02270e-01
 c10bf                                  6      0.0000       0.00000       A     3.39880e-01     4.53386e-01
 c11bf                                  6      0.0000       0.00000       A     3.39567e-01     4.51771e-01
 h12bf                                  1      0.0000       0.00000       A     2.59417e-01     8.63170e-02
 h13bf                                  1      0.0000       0.00000       A     2.59417e-01     8.63170e-02
 c14bf                                  6      0.0000       0.00000       A     3.39917e-01     4.52880e-01
 c15bf                                  6      0.0000       0.00000       A     3.31525e-01     4.13256e-01
 n16bf                                  7      0.0000       0.00000       A     3.18147e-01     7.08350e-01
 c17bf                                  6      0.0000       0.00000       A     3.31173e-01     4.11985e-01
 n18bf                                  7      0.0000       0.00000       A     3.26363e-01     6.55753e-01
 h19bf                                  1      0.0000       0.00000       A     1.10240e-01     4.07109e-02
 c20bf                                  6      0.0000       0.00000       A     3.31225e-01     4.13605e-01
 c21bf                                  6      0.0000       0.00000       A     3.39925e-01     4.53383e-01
 h22bf                                  1      0.0000       0.00000       A     2.42238e-01     8.60936e-02
 h23bf                                  1      0.0000       0.00000       A     2.42238e-01     8.60936e-02
 h24bf                                  1      0.0000       0.00000       A     2.42238e-01     8.60936e-02
 n25bf                                  7      0.0000       0.00000       A     3.36693e-01     4.77150e-01
 h26bf                                  1      0.0000       0.00000       A     1.10539e-01     3.88978e-02
 h27bf                                  1      0.0000       0.00000       A     1.10539e-01     3.88978e-02
 c28bf                                  6      0.0000       0.00000       A     3.31515e-01     4.13084e-01
 h29bf                                  1      0.0000       0.00000       A     2.62449e-01     6.74323e-02
 c30bf                                  6      0.0000       0.00000       A     3.31474e-01     4.12977e-01
 c31bf                                  6      0.0000       0.00000       A     3.31494e-01     4.12842e-01
 h32bf                                  1      0.0000       0.00000       A     2.62491e-01     6.69982e-02
 c33bf                                  6      0.0000       0.00000       A     3.31401e-01     4.12766e-01
 h34bf                                  1      0.0000       0.00000       A     2.62542e-01     6.72647e-02
 c35bf                                  6      0.0000       0.00000       A     3.31544e-01     4.12946e-01
 f36bf                                  9      0.0000       0.00000       A     3.03456e-01     3.47343e-01
 o37bf                                  8      0.0000       0.00000       A     3.04358e-01     6.10575e-01
 c38bf                                  6      0.0000       0.00000       A     3.39798e-01     4.50250e-01
 h39bf                                  1      0.0000       0.00000       A     2.59893e-01     8.82802e-02
 h40bf                                  1      0.0000       0.00000       A     2.59893e-01     8.82802e-02
 h41bf                                  1      0.0000       0.00000       A     2.59893e-01     8.82802e-02
 c42bf                                  6      0.0000       0.00000       A     3.39798e-01     4.50250e-01
 h43bf                                  1      0.0000       0.00000       A     2.59893e-01     8.82802e-02
 h44bf                                  1      0.0000       0.00000       A     2.59893e-01     8.82802e-02
 h45bf                                  1      0.0000       0.00000       A     2.59893e-01     8.82802e-02
 cl46bf                                17      0.0000       0.00000       A     3.46727e-01     1.10410e+00

[ moleculetype ]
;name             nrexcl
 21                    3

[ atoms ]
;       nr            type      resi   res      atom      cgnr      charge          mass ; qtot
         1            c0bf         1   UNL        c0         1    -0.05561       12.0110 ; qtot   -0.056
         2            c1bf         1   UNL        c1         2    -0.05571       12.0110 ; qtot   -0.111
         3            h2bf         1   UNL        h2         3     0.12102        1.0080 ; qtot    0.010
         4            c3bf         1   UNL        c3         4    -0.13752       12.0110 ; qtot   -0.128
         5            h4bf         1   UNL        h4         5     0.13342        1.0080 ; qtot    0.006
         6            c5bf         1   UNL        c5         6     0.17007       12.0110 ; qtot    0.176
         7            c6bf         1   UNL        c6         7    -0.18250       12.0110 ; qtot   -0.007
         8            c7bf         1   UNL        c7         8    -0.03307       12.0110 ; qtot   -0.040
         9            h8bf         1   UNL        h8         9     0.13195        1.0080 ; qtot    0.092
        10            o9bf         1   UNL        o9        10    -0.35834       15.9990 ; qtot   -0.266
        11           c10bf         1   UNL       c10        11     0.18141       12.0110 ; qtot   -0.085
        12           c11bf         1   UNL       c11        12    -0.08115       12.0110 ; qtot   -0.166
        13           h12bf         1   UNL       h12        13     0.08348        1.0080 ; qtot   -0.083
        14           h13bf         1   UNL       h13        14     0.08348        1.0080 ; qtot    0.001
        15           c14bf         1   UNL       c14        15     0.10827       12.0110 ; qtot    0.109
        16           c15bf         1   UNL       c15        16     0.55024       12.0110 ; qtot    0.659
        17           n16bf         1   UNL       n16        17    -0.64651       14.0070 ; qtot    0.013
        18           c17bf         1   UNL       c17        18     0.99722       12.0110 ; qtot    1.010
        19           n18bf         1   UNL       n18        19    -0.63159       14.0070 ; qtot    0.379
        20           h19bf         1   UNL       h19        20     0.41427        1.0080 ; qtot    0.793
        21           c20bf         1   UNL       c20        21    -0.04863       12.0110 ; qtot    0.744
        22           c21bf         1   UNL       c21        22     0.07086       12.0110 ; qtot    0.815
        23           h22bf         1   UNL       h22        23     0.09037        1.0080 ; qtot    0.905
        24           h23bf         1   UNL       h23        24     0.09037        1.0080 ; qtot    0.996
        25           h24bf         1   UNL       h24        25     0.09037        1.0080 ; qtot    1.086
        26           n25bf         1   UNL       n25        26    -0.57853       14.0070 ; qtot    0.508
        27           h26bf         1   UNL       h26        27     0.38249        1.0080 ; qtot    0.890
        28           h27bf         1   UNL       h27        28     0.38249        1.0080 ; qtot    1.273
        29           c28bf         1   UNL       c28        29    -0.07098       12.0110 ; qtot    1.202
        30           h29bf         1   UNL       h29        30     0.13614        1.0080 ; qtot    1.338
        31           c30bf         1   UNL       c30        31     0.10757       12.0110 ; qtot    1.445
        32           c31bf         1   UNL       c31        32    -0.07073       12.0110 ; qtot    1.375
        33           h32bf         1   UNL       h32        33     0.13976        1.0080 ; qtot    1.514
        34           c33bf         1   UNL       c33        34    -0.13869       12.0110 ; qtot    1.376
        35           h34bf         1   UNL       h34        35     0.14078        1.0080 ; qtot    1.516
        36           c35bf         1   UNL       c35        36     0.16848       12.0110 ; qtot    1.685
        37           f36bf         1   UNL       f36        37    -0.17555       18.9980 ; qtot    1.509
        38           o37bf         1   UNL       o37        38    -0.39811       15.9990 ; qtot    1.111
        39           c38bf         1   UNL       c38        39    -0.10005       12.0110 ; qtot    1.011
        40           h39bf         1   UNL       h39        40     0.04877        1.0080 ; qtot    1.060
        41           h40bf         1   UNL       h40        41     0.04877        1.0080 ; qtot    1.109
        42           h41bf         1   UNL       h41        42     0.04877        1.0080 ; qtot    1.158
        43           c42bf         1   UNL       c42        43    -0.10005       12.0110 ; qtot    1.057
        44           h43bf         1   UNL       h43        44     0.04877        1.0080 ; qtot    1.106
        45           h44bf         1   UNL       h44        45     0.04877        1.0080 ; qtot    1.155
        46           h45bf         1   UNL       h45        46     0.04877        1.0080 ; qtot    1.204
        47          cl46bf         1   UNL      cl46        47    -0.20381       35.4530 ; qtot    1.000

[ bonds ]
;       ai        aj funct               r               k
         1         2     1        0.140693   283851.559277
         1         8     1        0.139934   293146.096680
         1        21     1        0.148233   215092.611377
         2         3     1        0.108543   320213.696094
         2         4     1        0.139056   333219.235156
         4         5     1        0.108562   321104.966748
         4         6     1        0.140026   288678.966748
         6         7     1        0.140470   276536.760742
         6        10     1        0.136436   267339.417578
         7         8     1        0.139958   299233.556201
         7        15     1        0.151265   181133.452710
         8         9     1        0.108462   320844.105176
        10        11     1        0.145731   141482.468188
        11        12     1        0.154147   164699.186426
        11        39     1        0.152988   183033.962695
        11        43     1        0.152988   183033.962695
        12        13     1        0.109298   301656.951270
        12        14     1        0.109298   301656.951270
        12        15     1        0.154171   160537.276025
        15        16     1        0.154381   128485.484058
        15        19     1        0.148548   146191.332397
        16        17     1        0.141843   159362.683911
        16        38     1        0.120598   711921.900781
        17        18     1        0.135797   301738.465723
        17        22     1        0.146668   196952.070361
        18        19     1        0.133090   390989.564893
        18        26     1        0.133332   412686.071777
        19        20     1        0.101348   425202.319824
        21        29     1        0.140664   284227.720898
        21        36     1        0.140170   269680.608691
        22        23     1        0.109031   312124.791162
        22        24     1        0.109031   312124.791162
        22        25     1        0.109031   312124.816699
        26        27     1        0.101316   425666.584473
        26        28     1        0.101316   425666.584473
        29        30     1        0.108439   323914.482910
        29        31     1        0.139389   307976.440967
        31        32     1        0.139638   297099.011377
        31        47     1        0.175791   148733.309033
        32        33     1        0.108428   327199.576660
        32        34     1        0.139636   313608.241846
        34        35     1        0.108478   325248.337207
        34        36     1        0.139014   312573.350488
        36        37     1        0.135807   283447.460059
        39        40     1        0.109316   303222.120703
        39        41     1        0.109316   303222.120703
        39        42     1        0.109316   303222.120703
        43        44     1        0.109316   303222.120703
        43        45     1        0.109316   303222.120703
        43        46     1        0.109316   303222.120703

[ angles ]
;       ai        aj        ak funct           theta             cth
         1         2         3     1      119.657837      435.309716
         1         2         4     1      120.799950      688.948947
         1         8         7     1      121.709923      642.352724
         1         8         9     1      119.040077      427.190831
         1        21        29     1      120.561539      490.098914
         1        21        36     1      122.991661      475.407830
         2         1         8     1      117.895241      632.892630
         2         1        21     1      121.047653      549.397327
         2         4         5     1      121.221695      430.504334
         2         4         6     1      120.131798      736.330500
         3         2         4     1      119.367760      419.752860
         4         6         7     1      119.925880      589.802844
         4         6        10     1      116.437744      551.331380
         5         4         6     1      118.621658      435.820746
         6         7         8     1      118.857338      742.514566
         6         7        15     1      119.745766      586.516281
         6        10        11     1      117.993736      500.028604
         7         6        10     1      123.637672      514.558357
         7         8         9     1      119.204971      419.163496
         7        15        12     1      111.733620      557.947853
         7        15        16     1      112.067848      601.546658
         7        15        19     1      111.488197      598.667668
         8         1        21     1      120.980141      420.996677
         8         7        15     1      121.308456      444.718353
        10        11        12     1      109.078835      556.881551
        10        11        39     1      106.645714      604.086579
        10        11        43     1      106.645714      604.086579
        11        12        13     1      109.154335      466.471374
        11        12        14     1      109.154335      466.471374
        11        12        15     1      113.052734      640.250254
        11        39        40     1      110.474686      475.605615
        11        39        41     1      110.474686      475.605615
        11        39        42     1      110.474686      475.605615
        11        43        44     1      110.474686      475.605615
        11        43        45     1      110.474686      475.605615
        11        43        46     1      110.474686      475.605615
        12        11        39     1      111.385193      575.618575
        12        11        43     1      111.385193      575.618575
        12        15        16     1      110.797043      616.450307
        12        15        19     1      110.620262      611.566526
        13        12        14     1      107.420326      358.221546
        13        12        15     1      108.621048      474.551156
        14        12        15     1      108.621048      474.551156
        15        16        17     1      106.500320      167.360000
        15        16        38     1      127.583961      359.223303
        15        19        18     1      111.587624      619.880132
        15        19        20     1      121.368065      359.917625
        16        15        19     1      100.386848      329.498044
        16        17        18     1      109.401268      854.894893
        16        17        22     1      123.309692      531.050510
        17        16        38     1      124.771469      662.663728
        17        18        19     1      111.171402      582.762773
        17        18        26     1      123.442459      642.331720
        17        22        23     1      109.308334      484.616097
        17        22        24     1      109.308334      484.616097
        17        22        25     1      109.308334      484.616097
        18        17        22     1      126.712746      464.666028
        18        19        20     1      123.566017      425.702688
        18        26        27     1      120.916794      453.685646
        18        26        28     1      120.916794      453.685646
        19        18        26     1      125.735672      609.105451
        21        29        30     1      119.505516      416.685343
        21        29        31     1      120.814980      648.930254
        21        36        34     1      123.015793      622.952565
        21        36        37     1      119.367111      447.881667
        23        22        24     1      109.761864      350.063653
        23        22        25     1      109.761864      350.063653
        24        22        25     1      109.761864      350.063653
        27        26        28     1      117.283279      315.513827
        29        21        36     1      116.484596      578.167179
        29        31        32     1      121.304016      647.270852
        29        31        47     1      119.233253      371.493884
        30        29        31     1      119.581802      414.875592
        31        32        33     1      120.558151      407.266491
        31        32        34     1      118.740219      605.312807
        32        31        47     1      119.378662      360.995483
        32        34        35     1      121.246925      429.858501
        32        34        36     1      119.453575      697.088518
        33        32        34     1      120.714096      418.593827
        34        36        37     1      117.600258      523.332812
        35        34        36     1      119.243568      438.555100
        39        11        43     1      111.043091      610.311568
        40        39        41     1      108.427734      360.868117
        40        39        42     1      108.427734      360.868117
        41        39        42     1      108.427734      360.868117
        44        43        45     1      108.427734      360.868117
        44        43        46     1      108.427734      360.868117
        45        43        46     1      108.427734      360.868117

[ dihedrals ] ; propers for gromacs 4.5 or higher, use funct 9
;       ai        aj        ak        al funct           phase               k        pn
         1         2         4         5     9        0.000000       -0.026027         1
         1         2         4         5     9      180.000000       14.449126         2
         1         2         4         5     9        0.000000       -0.471980         3
         1         2         4         5     9      180.000000        0.144274         4
         1         2         4         6     9        0.000000        0.002213         1
         1         2         4         6     9      180.000000       18.977023         2
         1         2         4         6     9        0.000000       -1.530812         3
         1         2         4         6     9      180.000000       -0.477619         4
         1         8         7         6     9        0.000000        0.017963         1
         1         8         7         6     9      180.000000       18.981181         2
         1         8         7         6     9        0.000000       -1.381238         3
         1         8         7         6     9      180.000000       -0.465779         4
         1         8         7        15     9        0.000000        0.229070         1
         1         8         7        15     9      180.000000       16.571065         2
         1         8         7        15     9        0.000000       -0.151695         3
         1         8         7        15     9      180.000000       -0.372739         4
         1        21        29        30     9        0.000000       -0.042057         1
         1        21        29        30     9      180.000000       13.448382         2
         1        21        29        30     9        0.000000       -0.203901         3
         1        21        29        30     9      180.000000        0.148597         4
         1        21        29        31     9        0.000000        0.255599         1
         1        21        29        31     9      180.000000       16.842362         2
         1        21        29        31     9        0.000000       -0.062991         3
         1        21        29        31     9      180.000000       -0.501898         4
         1        21        36        34     9        0.000000        0.195196         1
         1        21        36        34     9      180.000000       13.009732         2
         1        21        36        34     9        0.000000       -0.162305         3
         1        21        36        34     9      180.000000       -0.152299         4
         1        21        36        37     9        0.000000       -0.050694         1
         1        21        36        37     9      180.000000       19.705671         2
         1        21        36        37     9        0.000000        0.427908         3
         1        21        36        37     9      180.000000       -1.082071         4
         2         1         8         7     9        0.000000       -0.096206         1
         2         1         8         7     9      180.000000       18.343763         2
         2         1         8         7     9        0.000000       -1.784543         3
         2         1         8         7     9      180.000000       -0.393754         4
         2         1         8         9     9        0.000000       -0.012545         1
         2         1         8         9     9      180.000000       14.389708         2
         2         1         8         9     9        0.000000       -0.618226         3
         2         1         8         9     9      180.000000        0.095904         4
         2         1        21        29     9        0.000000       -0.130036         1
         2         1        21        29     9      180.000000        3.806872         2
         2         1        21        29     9        0.000000        0.025118         3
         2         1        21        29     9      180.000000        0.347037         4
         2         1        21        36     9        0.000000        0.174476         1
         2         1        21        36     9      180.000000        3.908733         2
         2         1        21        36     9        0.000000       -0.191338         3
         2         1        21        36     9      180.000000        0.694579         4
         2         4         6         7     9        0.000000       -0.003478         1
         2         4         6         7     9      180.000000       18.323528         2
         2         4         6         7     9        0.000000       -0.927844         3
         2         4         6         7     9      180.000000       -0.517933         4
         2         4         6        10     9        0.000000        0.461225         1
         2         4         6        10     9      180.000000       20.120972         2
         2         4         6        10     9        0.000000        0.720528         3
         2         4         6        10     9      180.000000       -0.571896         4
         3         2         1         8     9        0.000000       -0.039491         1
         3         2         1         8     9      180.000000       13.950340         2
         3         2         1         8     9        0.000000       -0.711667         3
         3         2         1         8     9      180.000000        0.097602         4
         3         2         1        21     9        0.000000       -0.054220         1
         3         2         1        21     9      180.000000       12.954385         2
         3         2         1        21     9        0.000000       -0.264855         3
         3         2         1        21     9      180.000000        0.218726         4
         3         2         4         5     9        0.000000       -0.105686         1
         3         2         4         5     9      180.000000       12.221872         2
         3         2         4         5     9        0.000000       -0.705542         3
         3         2         4         5     9      180.000000        0.363337         4
         3         2         4         6     9        0.000000        0.146081         1
         3         2         4         6     9      180.000000       14.692534         2
         3         2         4         6     9        0.000000       -0.514407         3
         3         2         4         6     9      180.000000        0.121469         4
         4         2         1         8     9        0.000000       -0.164419         1
         4         2         1         8     9      180.000000       18.201405         2
         4         2         1         8     9        0.000000       -1.484423         3
         4         2         1         8     9      180.000000       -0.308447         4
         4         2         1        21     9        0.000000        0.233771         1
         4         2         1        21     9      180.000000       15.865172         2
         4         2         1        21     9        0.000000       -0.261688         3
         4         2         1        21     9      180.000000       -0.209484         4
         4         6         7         8     9        0.000000       -0.110584         1
         4         6         7         8     9      180.000000       15.379737         2
         4         6         7         8     9        0.000000       -0.823696         3
         4         6         7         8     9      180.000000       -0.295040         4
         4         6         7        15     9        0.000000        0.317601         1
         4         6         7        15     9      180.000000       12.594617         2
         4         6         7        15     9        0.000000        0.140950         3
         4         6         7        15     9      180.000000       -0.263644         4
         4         6        10        11     9        0.000000       -0.524440         1
         4         6        10        11     9      180.000000        0.965350         2
         4         6        10        11     9        0.000000        0.127626         3
         4         6        10        11     9      180.000000        0.274670         4
         5         4         6         7     9        0.000000        0.029945         1
         5         4         6         7     9      180.000000       13.435392         2
         5         4         6         7     9        0.000000       -0.361852         3
         5         4         6         7     9      180.000000       -0.014588         4
         5         4         6        10     9        0.000000        0.018714         1
         5         4         6        10     9      180.000000       16.055862         2
         5         4         6        10     9        0.000000        0.173212         3
         5         4         6        10     9      180.000000        0.104013         4
         6         7         8         9     9        0.000000        0.238121         1
         6         7         8         9     9      180.000000       14.659676         2
         6         7         8         9     9        0.000000       -0.258724         3
         6         7         8         9     9      180.000000        0.014415         4
         6         7        15        12     9        0.000000        0.442429         1
         6         7        15        12     9      180.000000       -0.582160         2
         6         7        15        12     9        0.000000        0.566510         3
         6         7        15        12     9      180.000000        0.177976         4
         6         7        15        16     9        0.000000        0.102814         1
         6         7        15        16     9      180.000000       -0.121196         2
         6         7        15        16     9        0.000000       -0.091766         3
         6         7        15        16     9      180.000000        0.098350         4
         6         7        15        19     9        0.000000       -1.211495         1
         6         7        15        19     9      180.000000        1.208789         2
         6         7        15        19     9        0.000000        0.479329         3
         6         7        15        19     9      180.000000       -0.237524         4
         6        10        11        12     9        0.000000        6.552491         1
         6        10        11        12     9      180.000000       -3.144803         2
         6        10        11        12     9        0.000000       -0.417738         3
         6        10        11        12     9      180.000000        0.734854         4
         6        10        11        39     9        0.000000       -0.601019         1
         6        10        11        39     9      180.000000        0.475001         2
         6        10        11        39     9        0.000000        0.451956         3
         6        10        11        39     9      180.000000        0.038632         4
         6        10        11        43     9        0.000000       -0.601019         1
         6        10        11        43     9      180.000000        0.475001         2
         6        10        11        43     9        0.000000        0.451956         3
         6        10        11        43     9      180.000000        0.038632         4
         7         6        10        11     9        0.000000        1.640771         1
         7         6        10        11     9      180.000000        0.065588         2
         7         6        10        11     9        0.000000       -0.117565         3
         7         6        10        11     9      180.000000        0.605195         4
         7         8         1        21     9        0.000000       -0.042629         1
         7         8         1        21     9      180.000000       16.754381         2
         7         8         1        21     9        0.000000       -0.316131         3
         7         8         1        21     9      180.000000       -0.443466         4
         7        15        12        11     9        0.000000        1.224939         1
         7        15        12        11     9      180.000000       -1.112698         2
         7        15        12        11     9        0.000000        0.379613         3
         7        15        12        11     9      180.000000        0.212213         4
         7        15        12        13     9        0.000000        0.060303         1
         7        15        12        13     9      180.000000        0.038717         2
         7        15        12        13     9        0.000000        0.531071         3
         7        15        12        13     9      180.000000        0.004443         4
         7        15        12        14     9        0.000000        0.060303         1
         7        15        12        14     9      180.000000        0.038717         2
         7        15        12        14     9        0.000000        0.531071         3
         7        15        12        14     9      180.000000        0.004443         4
         7        15        16        17     9        0.000000        0.204138         1
         7        15        16        17     9      180.000000        2.054007         2
         7        15        16        17     9        0.000000        0.314617         3
         7        15        16        17     9      180.000000        0.636535         4
         7        15        16        38     9        0.000000       -1.028429         1
         7        15        16        38     9      180.000000        1.994955         2
         7        15        16        38     9        0.000000       -0.383167         3
         7        15        16        38     9      180.000000        0.534449         4
         7        15        19        18     9        0.000000        1.475577         1
         7        15        19        18     9      180.000000        0.330887         2
         7        15        19        18     9        0.000000        0.426833         3
         7        15        19        18     9      180.000000        0.176206         4
         7        15        19        20     9        0.000000        1.133225         1
         7        15        19        20     9      180.000000       -0.176846         2
         7        15        19        20     9        0.000000        0.307694         3
         7        15        19        20     9      180.000000        0.155610         4
         8         1        21        29     9        0.000000       -0.243645         1
         8         1        21        29     9      180.000000        3.964682         2
         8         1        21        29     9        0.000000        0.019036         3
         8         1        21        29     9      180.000000        0.330291         4
         8         1        21        36     9        0.000000        0.207377         1
         8         1        21        36     9      180.000000        4.083466         2
         8         1        21        36     9        0.000000       -0.305562         3
         8         1        21        36     9      180.000000        0.760881         4
         8         7         6        10     9        0.000000        0.087989         1
         8         7         6        10     9      180.000000       16.762559         2
         8         7         6        10     9        0.000000        0.587308         3
         8         7         6        10     9      180.000000       -0.417494         4
         8         7        15        12     9        0.000000       -0.429483         1
         8         7        15        12     9      180.000000        0.662637         2
         8         7        15        12     9        0.000000       -0.268521         3
         8         7        15        12     9      180.000000        0.240238         4
         8         7        15        16     9        0.000000       -0.753945         1
         8         7        15        16     9      180.000000       -0.315229         2
         8         7        15        16     9        0.000000       -0.292874         3
         8         7        15        16     9      180.000000        0.223535         4
         8         7        15        19     9        0.000000       -0.309774         1
         8         7        15        19     9      180.000000        1.961174         2
         8         7        15        19     9        0.000000       -0.189522         3
         8         7        15        19     9      180.000000        0.012231         4
         9         8         1        21     9        0.000000       -0.049977         1
         9         8         1        21     9      180.000000       12.985026         2
         9         8         1        21     9        0.000000       -0.164145         3
         9         8         1        21     9      180.000000        0.225535         4
         9         8         7        15     9        0.000000       -0.105131         1
         9         8         7        15     9      180.000000       13.476459         2
         9         8         7        15     9        0.000000       -0.230351         3
         9         8         7        15     9      180.000000        0.083635         4
        10         6         7        15     9        0.000000        0.652877         1
        10         6         7        15     9      180.000000       13.735837         2
        10         6         7        15     9        0.000000        0.969375         3
        10         6         7        15     9      180.000000       -0.661470         4
        10        11        12        13     9        0.000000        0.010187         1
        10        11        12        13     9      180.000000        0.032223         2
        10        11        12        13     9        0.000000        0.118020         3
        10        11        12        13     9      180.000000        0.005280         4
        10        11        12        14     9        0.000000        0.010187         1
        10        11        12        14     9      180.000000        0.032223         2
        10        11        12        14     9        0.000000        0.118020         3
        10        11        12        14     9      180.000000        0.005280         4
        10        11        12        15     9        0.000000        6.398275         1
        10        11        12        15     9      180.000000       -3.171040         2
        10        11        12        15     9        0.000000       -0.812227         3
        10        11        12        15     9      180.000000        0.264324         4
        10        11        39        40     9        0.000000        0.022757         1
        10        11        39        40     9      180.000000       -0.106326         2
        10        11        39        40     9        0.000000        0.371208         3
        10        11        39        40     9      180.000000        0.017378         4
        10        11        39        41     9        0.000000        0.022757         1
        10        11        39        41     9      180.000000       -0.106326         2
        10        11        39        41     9        0.000000        0.371208         3
        10        11        39        41     9      180.000000        0.017378         4
        10        11        39        42     9        0.000000        0.022757         1
        10        11        39        42     9      180.000000       -0.106326         2
        10        11        39        42     9        0.000000        0.371208         3
        10        11        39        42     9      180.000000        0.017378         4
        10        11        43        44     9        0.000000        0.022757         1
        10        11        43        44     9      180.000000       -0.106326         2
        10        11        43        44     9        0.000000        0.371208         3
        10        11        43        44     9      180.000000        0.017378         4
        10        11        43        45     9        0.000000        0.022757         1
        10        11        43        45     9      180.000000       -0.106326         2
        10        11        43        45     9        0.000000        0.371208         3
        10        11        43        45     9      180.000000        0.017378         4
        10        11        43        46     9        0.000000        0.022757         1
        10        11        43        46     9      180.000000       -0.106326         2
        10        11        43        46     9        0.000000        0.371208         3
        10        11        43        46     9      180.000000        0.017378         4
        11        12        15        16     9        0.000000       -0.158489         1
        11        12        15        16     9      180.000000        0.109710         2
        11        12        15        16     9        0.000000        0.008060         3
        11        12        15        16     9      180.000000        0.059205         4
        11        12        15        19     9        0.000000       -1.376753         1
        11        12        15        19     9      180.000000       -0.656378         2
        11        12        15        19     9        0.000000        0.372563         3
        11        12        15        19     9      180.000000        0.291438         4
        12        11        39        40     9        0.000000       -0.089919         1
        12        11        39        40     9      180.000000        0.000423         2
        12        11        39        40     9        0.000000        0.433042         3
        12        11        39        40     9      180.000000        0.019250         4
        12        11        39        41     9        0.000000       -0.089919         1
        12        11        39        41     9      180.000000        0.000423         2
        12        11        39        41     9        0.000000        0.433042         3
        12        11        39        41     9      180.000000        0.019250         4
        12        11        39        42     9        0.000000       -0.089919         1
        12        11        39        42     9      180.000000        0.000423         2
        12        11        39        42     9        0.000000        0.433042         3
        12        11        39        42     9      180.000000        0.019250         4
        12        11        43        44     9        0.000000       -0.089919         1
        12        11        43        44     9      180.000000        0.000423         2
        12        11        43        44     9        0.000000        0.433042         3
        12        11        43        44     9      180.000000        0.019250         4
        12        11        43        45     9        0.000000       -0.089919         1
        12        11        43        45     9      180.000000        0.000423         2
        12        11        43        45     9        0.000000        0.433042         3
        12        11        43        45     9      180.000000        0.019250         4
        12        11        43        46     9        0.000000       -0.089919         1
        12        11        43        46     9      180.000000        0.000423         2
        12        11        43        46     9        0.000000        0.433042         3
        12        11        43        46     9      180.000000        0.019250         4
        12        15        16        17     9        0.000000       -0.141660         1
        12        15        16        17     9      180.000000        3.066579         2
        12        15        16        17     9        0.000000        0.134318         3
        12        15        16        17     9      180.000000        0.386088         4
        12        15        16        38     9        0.000000        1.080604         1
        12        15        16        38     9      180.000000        2.732702         2
        12        15        16        38     9        0.000000       -0.579963         3
        12        15        16        38     9      180.000000        0.528779         4
        12        15        19        18     9        0.000000       -0.582310         1
        12        15        19        18     9      180.000000        0.755302         2
        12        15        19        18     9        0.000000        0.351235         3
        12        15        19        18     9      180.000000        0.157736         4
        12        15        19        20     9        0.000000        0.171427         1
        12        15        19        20     9      180.000000       -0.174988         2
        12        15        19        20     9        0.000000        0.231541         3
        12        15        19        20     9      180.000000       -0.054083         4
        13        12        11        39     9        0.000000       -0.021980         1
        13        12        11        39     9      180.000000       -0.009422         2
        13        12        11        39     9        0.000000        0.356718         3
        13        12        11        39     9      180.000000       -0.000954         4
        13        12        11        43     9        0.000000       -0.021980         1
        13        12        11        43     9      180.000000       -0.009422         2
        13        12        11        43     9        0.000000        0.356718         3
        13        12        11        43     9      180.000000       -0.000954         4
        13        12        15        16     9        0.000000       -0.120531         1
        13        12        15        16     9      180.000000        0.006259         2
        13        12        15        16     9        0.000000        0.249160         3
        13        12        15        16     9      180.000000        0.015556         4
        13        12        15        19     9        0.000000        0.048077         1
        13        12        15        19     9      180.000000        0.031139         2
        13        12        15        19     9        0.000000        0.441342         3
        13        12        15        19     9      180.000000       -0.090829         4
        14        12        11        39     9        0.000000       -0.021980         1
        14        12        11        39     9      180.000000       -0.009422         2
        14        12        11        39     9        0.000000        0.356718         3
        14        12        11        39     9      180.000000       -0.000954         4
        14        12        11        43     9        0.000000       -0.021980         1
        14        12        11        43     9      180.000000       -0.009422         2
        14        12        11        43     9        0.000000        0.356718         3
        14        12        11        43     9      180.000000       -0.000954         4
        14        12        15        16     9        0.000000       -0.120531         1
        14        12        15        16     9      180.000000        0.006259         2
        14        12        15        16     9        0.000000        0.249160         3
        14        12        15        16     9      180.000000        0.015556         4
        14        12        15        19     9        0.000000        0.048077         1
        14        12        15        19     9      180.000000        0.031139         2
        14        12        15        19     9        0.000000        0.441342         3
        14        12        15        19     9      180.000000       -0.090829         4
        15        12        11        39     9        0.000000       -0.491719         1
        15        12        11        39     9      180.000000        0.610387         2
        15        12        11        39     9        0.000000        0.252005         3
        15        12        11        39     9      180.000000       -0.014027         4
        15        12        11        43     9        0.000000       -0.491719         1
        15        12        11        43     9      180.000000        0.610387         2
        15        12        11        43     9        0.000000        0.252005         3
        15        12        11        43     9      180.000000       -0.014027         4
        15        16        17        18     9        0.000000       -2.621426         1
        15        16        17        18     9      180.000000       12.608727         2
        15        16        17        18     9        0.000000       -1.689385         3
        15        16        17        18     9      180.000000       -0.516965         4
        15        16        17        22     9        0.000000       -1.161959         1
        15        16        17        22     9      180.000000        6.523790         2
        15        16        17        22     9        0.000000        0.171203         3
        15        16        17        22     9      180.000000       -0.171941         4
        15        19        18        17     9        0.000000       -1.486140         1
        15        19        18        17     9      180.000000       26.058799         2
        15        19        18        17     9        0.000000       -2.115652         3
        15        19        18        17     9      180.000000       -2.999679         4
        15        19        18        26     9        0.000000        1.704033         1
        15        19        18        26     9      180.000000       19.771991         2
        15        19        18        26     9        0.000000        0.715132         3
        15        19        18        26     9      180.000000       -2.025611         4
        16        15        19        18     9        0.000000       -3.202930         1
        16        15        19        18     9      180.000000        3.675471         2
        16        15        19        18     9        0.000000       -0.128940         3
        16        15        19        18     9      180.000000       -0.635128         4
        16        15        19        20     9        0.000000       -0.882341         1
        16        15        19        20     9      180.000000       -0.826404         2
        16        15        19        20     9        0.000000        0.165262         3
        16        15        19        20     9      180.000000        0.141885         4
        16        17        18        19     9        0.000000       -2.490328         1
        16        17        18        19     9      180.000000       13.834040         2
        16        17        18        19     9        0.000000       -2.378247         3
        16        17        18        19     9      180.000000       -1.280421         4
        16        17        18        26     9        0.000000        1.935113         1
        16        17        18        26     9      180.000000       11.081021         2
        16        17        18        26     9        0.000000       -0.210529         3
        16        17        18        26     9      180.000000       -0.637296         4
        16        17        22        23     9        0.000000       -0.046462         1
        16        17        22        23     9      180.000000       -0.089247         2
        16        17        22        23     9        0.000000       -0.283225         3
        16        17        22        23     9      180.000000        0.030104         4
        16        17        22        24     9        0.000000       -0.046462         1
        16        17        22        24     9      180.000000       -0.089247         2
        16        17        22        24     9        0.000000       -0.283225         3
        16        17        22        24     9      180.000000        0.030104         4
        16        17        22        25     9        0.000000       -0.046462         1
        16        17        22        25     9      180.000000       -0.089247         2
        16        17        22        25     9        0.000000       -0.283225         3
        16        17        22        25     9      180.000000        0.030104         4
        17        16        15        19     9        0.000000        0.490408         1
        17        16        15        19     9      180.000000        7.821340         2
        17        16        15        19     9        0.000000       -0.339097         3
        17        16        15        19     9      180.000000       -0.046198         4
        17        18        19        20     9        0.000000        0.456219         1
        17        18        19        20     9      180.000000       11.615587         2
        17        18        19        20     9        0.000000        0.224486         3
        17        18        19        20     9      180.000000       -0.965494         4
        17        18        26        27     9        0.000000       -0.170244         1
        17        18        26        27     9      180.000000        6.404527         2
        17        18        26        27     9        0.000000        0.524424         3
        17        18        26        27     9      180.000000       -0.541232         4
        17        18        26        28     9        0.000000       -0.170244         1
        17        18        26        28     9      180.000000        6.404527         2
        17        18        26        28     9        0.000000        0.524424         3
        17        18        26        28     9      180.000000       -0.541232         4
        18        17        16        38     9        0.000000        1.168478         1
        18        17        16        38     9      180.000000       20.631698         2
        18        17        16        38     9        0.000000       -0.713105         3
        18        17        16        38     9      180.000000       -0.822735         4
        18        17        22        23     9        0.000000        0.029063         1
        18        17        22        23     9      180.000000        0.021416         2
        18        17        22        23     9        0.000000        0.188894         3
        18        17        22        23     9      180.000000       -0.011671         4
        18        17        22        24     9        0.000000        0.029063         1
        18        17        22        24     9      180.000000        0.021416         2
        18        17        22        24     9        0.000000        0.188894         3
        18        17        22        24     9      180.000000       -0.011671         4
        18        17        22        25     9        0.000000        0.029063         1
        18        17        22        25     9      180.000000        0.021417         2
        18        17        22        25     9        0.000000        0.188894         3
        18        17        22        25     9      180.000000       -0.011671         4
        19        15        16        38     9        0.000000        7.981292         1
        19        15        16        38     9      180.000000        7.024952         2
        19        15        16        38     9        0.000000       -0.163171         3
        19        15        16        38     9      180.000000        0.325120         4
        19        18        17        22     9        0.000000       -3.776014         1
        19        18        17        22     9      180.000000        5.458345         2
        19        18        17        22     9        0.000000       -0.154527         3
        19        18        17        22     9      180.000000        0.081931         4
        19        18        26        27     9        0.000000       -1.696700         1
        19        18        26        27     9      180.000000        6.696568         2
        19        18        26        27     9        0.000000        0.180424         3
        19        18        26        27     9      180.000000       -0.442659         4
        19        18        26        28     9        0.000000       -1.696700         1
        19        18        26        28     9      180.000000        6.696568         2
        19        18        26        28     9        0.000000        0.180424         3
        19        18        26        28     9      180.000000       -0.442659         4
        20        19        18        26     9        0.000000        0.829726         1
        20        19        18        26     9      180.000000        7.727449         2
        20        19        18        26     9        0.000000        0.246605         3
        20        19        18        26     9      180.000000       -0.383134         4
        21        29        31        32     9        0.000000       -0.056184         1
        21        29        31        32     9      180.000000       17.790717         2
        21        29        31        32     9        0.000000       -1.357332         3
        21        29        31        32     9      180.000000       -0.353402         4
        21        29        31        47     9        0.000000        0.331070         1
        21        29        31        47     9      180.000000       18.871613         2
        21        29        31        47     9        0.000000        0.321013         3
        21        29        31        47     9      180.000000       -0.674949         4
        21        36        34        32     9        0.000000        0.123036         1
        21        36        34        32     9      180.000000       17.593863         2
        21        36        34        32     9        0.000000       -1.076006         3
        21        36        34        32     9      180.000000       -0.397427         4
        21        36        34        35     9        0.000000        0.167550         1
        21        36        34        35     9      180.000000       12.891928         2
        21        36        34        35     9        0.000000       -0.472343         3
        21        36        34        35     9      180.000000        0.137507         4
        22        17        16        38     9        0.000000       -0.327768         1
        22        17        16        38     9      180.000000        9.752935         2
        22        17        16        38     9        0.000000       -0.183564         3
        22        17        16        38     9      180.000000        0.446364         4
        22        17        18        26     9        0.000000        1.331771         1
        22        17        18        26     9      180.000000        6.631611         2
        22        17        18        26     9        0.000000        0.055652         3
        22        17        18        26     9      180.000000       -0.063283         4
        29        21        36        34     9        0.000000       -0.088035         1
        29        21        36        34     9      180.000000       15.441302         2
        29        21        36        34     9        0.000000       -0.841198         3
        29        21        36        34     9      180.000000       -0.283996         4
        29        21        36        37     9        0.000000        0.616965         1
        29        21        36        37     9      180.000000       20.764647         2
        29        21        36        37     9        0.000000        0.513838         3
        29        21        36        37     9      180.000000       -0.583230         4
        29        31        32        33     9        0.000000        0.005914         1
        29        31        32        33     9      180.000000       13.361890         2
        29        31        32        33     9        0.000000       -0.619563         3
        29        31        32        33     9      180.000000        0.074528         4
        29        31        32        34     9        0.000000       -0.098082         1
        29        31        32        34     9      180.000000       17.720224         2
        29        31        32        34     9        0.000000       -1.329193         3
        29        31        32        34     9      180.000000       -0.395107         4
        30        29        21        36     9        0.000000        0.019971         1
        30        29        21        36     9      180.000000       13.816433         2
        30        29        21        36     9        0.000000       -0.572508         3
        30        29        21        36     9      180.000000        0.183755         4
        30        29        31        32     9        0.000000        0.029373         1
        30        29        31        32     9      180.000000       13.564390         2
        30        29        31        32     9        0.000000       -0.634924         3
        30        29        31        32     9      180.000000        0.119472         4
        30        29        31        47     9        0.000000        0.147674         1
        30        29        31        47     9      180.000000       13.616519         2
        30        29        31        47     9        0.000000       -0.129850         3
        30        29        31        47     9      180.000000        0.215298         4
        31        29        21        36     9        0.000000       -0.307435         1
        31        29        21        36     9      180.000000       18.078799         2
        31        29        21        36     9        0.000000       -1.508653         3
        31        29        21        36     9      180.000000       -0.301093         4
        31        32        34        35     9        0.000000        0.093181         1
        31        32        34        35     9      180.000000       14.071565         2
        31        32        34        35     9        0.000000       -0.502606         3
        31        32        34        35     9      180.000000        0.121064         4
        31        32        34        36     9        0.000000       -0.156103         1
        31        32        34        36     9      180.000000       18.888886         2
        31        32        34        36     9        0.000000       -1.483722         3
        31        32        34        36     9      180.000000       -0.475937         4
        32        34        36        37     9        0.000000        0.683742         1
        32        34        36        37     9      180.000000       23.111321         2
        32        34        36        37     9        0.000000        0.546584         3
        32        34        36        37     9      180.000000       -0.543497         4
        33        32        31        47     9        0.000000        0.219046         1
        33        32        31        47     9      180.000000       13.137358         2
        33        32        31        47     9        0.000000       -0.115000         3
        33        32        31        47     9      180.000000        0.228181         4
        33        32        34        35     9        0.000000       -0.106798         1
        33        32        34        35     9      180.000000       11.424460         2
        33        32        34        35     9        0.000000       -0.666668         3
        33        32        34        35     9      180.000000        0.234890         4
        33        32        34        36     9        0.000000        0.184595         1
        33        32        34        36     9      180.000000       14.551787         2
        33        32        34        36     9        0.000000       -0.615551         3
        33        32        34        36     9      180.000000        0.040025         4
        34        32        31        47     9        0.000000        0.361609         1
        34        32        31        47     9      180.000000       19.085564         2
        34        32        31        47     9        0.000000        0.260879         3
        34        32        31        47     9      180.000000       -0.607987         4
        35        34        36        37     9        0.000000        0.329396         1
        35        34        36        37     9      180.000000       17.002440         2
        35        34        36        37     9        0.000000        0.298017         3
        35        34        36        37     9      180.000000        0.102383         4
        39        11        43        44     9        0.000000       -0.082665         1
        39        11        43        44     9      180.000000        0.011908         2
        39        11        43        44     9        0.000000        0.531653         3
        39        11        43        44     9      180.000000        0.044561         4
        39        11        43        45     9        0.000000       -0.082665         1
        39        11        43        45     9      180.000000        0.011908         2
        39        11        43        45     9        0.000000        0.531653         3
        39        11        43        45     9      180.000000        0.044561         4
        39        11        43        46     9        0.000000       -0.082665         1
        39        11        43        46     9      180.000000        0.011908         2
        39        11        43        46     9        0.000000        0.531653         3
        39        11        43        46     9      180.000000        0.044561         4
        40        39        11        43     9        0.000000       -0.082665         1
        40        39        11        43     9      180.000000        0.011908         2
        40        39        11        43     9        0.000000        0.531653         3
        40        39        11        43     9      180.000000        0.044561         4
        41        39        11        43     9        0.000000       -0.082665         1
        41        39        11        43     9      180.000000        0.011908         2
        41        39        11        43     9        0.000000        0.531653         3
        41        39        11        43     9      180.000000        0.044561         4
        42        39        11        43     9        0.000000       -0.082665         1
        42        39        11        43     9      180.000000        0.011908         2
        42        39        11        43     9        0.000000        0.531653         3
        42        39        11        43     9      180.000000        0.044561         4

[ dihedrals ] ; impropers
;       ai        aj        ak        al funct           phase               k        pn
        16        15        17        38     4      180.000000       26.920058         2
        16        17        38        15     4      180.000000       26.920058         2
        16        38        15        17     4      180.000000       26.920058         2
        18        17        19        26     4      180.000000       10.189567         2
        18        19        26        17     4      180.000000       10.189567         2
        18        26        17        19     4      180.000000       10.189567         2

[ pairs ]
;       ai        aj funct
         1         5     1
         1         6     1
         1        15     1
         1        30     1
         1        31     1
         1        34     1
         1        37     1
         2         7     1
         2         9     1
         2        10     1
         2        29     1
         2        36     1
         3         5     1
         3         6     1
         3         8     1
         3        21     1
         4         8     1
         4        11     1
         4        15     1
         4        21     1
         5         7     1
         5        10     1
         6         9     1
         6        12     1
         6        16     1
         6        19     1
         6        39     1
         6        43     1
         7        11     1
         7        13     1
         7        14     1
         7        17     1
         7        18     1
         7        20     1
         7        21     1
         7        38     1
         8        10     1
         8        12     1
         8        16     1
         8        19     1
         8        29     1
         8        36     1
         9        15     1
         9        21     1
        10        13     1
        10        14     1
        10        15     1
        10        40     1
        10        41     1
        10        42     1
        10        44     1
        10        45     1
        10        46     1
        11        16     1
        11        19     1
        12        17     1
        12        18     1
        12        20     1
        12        38     1
        12        40     1
        12        41     1
        12        42     1
        12        44     1
        12        45     1
        12        46     1
        13        16     1
        13        19     1
        13        39     1
        13        43     1
        14        16     1
        14        19     1
        14        39     1
        14        43     1
        15        22     1
        15        26     1
        15        39     1
        15        43     1
        16        20     1
        16        23     1
        16        24     1
        16        25     1
        16        26     1
        17        20     1
        17        27     1
        17        28     1
        18        23     1
        18        24     1
        18        25     1
        18        38     1
        19        22     1
        19        27     1
        19        28     1
        19        38     1
        20        26     1
        21        32     1
        21        35     1
        21        47     1
        22        26     1
        22        38     1
        29        33     1
        29        34     1
        29        37     1
        30        32     1
        30        36     1
        30        47     1
        31        35     1
        31        36     1
        32        37     1
        33        35     1
        33        36     1
        33        47     1
        34        47     1
        35        37     1
        39        44     1
        39        45     1
        39        46     1
        40        43     1
        41        43     1
        42        43     1
