; ITP file created by ByteFF-ML, 2026-03-14 15:30:00.708083

[ atomtypes ]
;name           bonded.type        at.num        mass        charge   ptype           sigma         epsilon
 c0bf                                   6      0.0000       0.00000       A     3.31439e-01     4.11807e-01
 c1bf                                   6      0.0000       0.00000       A     3.31568e-01     4.13143e-01
 h2bf                                   1      0.0000       0.00000       A     2.62485e-01     6.75153e-02
 c3bf                                   6      0.0000       0.00000       A     3.31523e-01     4.12056e-01
 h4bf                                   1      0.0000       0.00000       A     2.62405e-01     6.67253e-02
 c5bf                                   6      0.0000       0.00000       A     3.31279e-01     4.11283e-01
 c6bf                                   6      0.0000       0.00000       A     3.31150e-01     4.13198e-01
 c7bf                                   6      0.0000       0.00000       A     3.31448e-01     4.13506e-01
 h8bf                                   1      0.0000       0.00000       A     2.62592e-01     6.73030e-02
 o9bf                                   8      0.0000       0.00000       A     3.15529e-01     3.02270e-01
 c10bf                                  6      0.0000       0.00000       A     3.39880e-01     4.53386e-01
 c11bf                                  6      0.0000       0.00000       A     3.39567e-01     4.51771e-01
 h12bf                                  1      0.0000       0.00000       A     2.59417e-01     8.63170e-02
 h13bf                                  1      0.0000       0.00000       A     2.59417e-01     8.63170e-02
 c14bf                                  6      0.0000       0.00000       A     3.39917e-01     4.52880e-01
 c15bf                                  6      0.0000       0.00000       A     3.31525e-01     4.13256e-01
 n16bf                                  7      0.0000       0.00000       A     3.18147e-01     7.08350e-01
 c17bf                                  6      0.0000       0.00000       A     3.31173e-01     4.11985e-01
 n18bf                                  7      0.0000       0.00000       A     3.26363e-01     6.55753e-01
 h19bf                                  1      0.0000       0.00000       A     1.10240e-01     4.07109e-02
 c20bf                                  6      0.0000       0.00000       A     3.31309e-01     4.12300e-01
 c21bf                                  6      0.0000       0.00000       A     3.39925e-01     4.53383e-01
 h22bf                                  1      0.0000       0.00000       A     2.42238e-01     8.60936e-02
 h23bf                                  1      0.0000       0.00000       A     2.42238e-01     8.60936e-02
 h24bf                                  1      0.0000       0.00000       A     2.42238e-01     8.60936e-02
 n25bf                                  7      0.0000       0.00000       A     3.36693e-01     4.77150e-01
 h26bf                                  1      0.0000       0.00000       A     1.10539e-01     3.88978e-02
 h27bf                                  1      0.0000       0.00000       A     1.10539e-01     3.88978e-02
 c28bf                                  6      0.0000       0.00000       A     3.31489e-01     4.12287e-01
 h29bf                                  1      0.0000       0.00000       A     2.62472e-01     6.74738e-02
 c30bf                                  6      0.0000       0.00000       A     3.31509e-01     4.13604e-01
 c31bf                                  6      0.0000       0.00000       A     3.31613e-01     4.11818e-01
 h32bf                                  1      0.0000       0.00000       A     2.62446e-01     6.69008e-02
 c33bf                                  6      0.0000       0.00000       A     3.31445e-01     4.12815e-01
 o34bf                                  8      0.0000       0.00000       A     3.15750e-01     3.01480e-01
 c35bf                                  6      0.0000       0.00000       A     3.39733e-01     4.52609e-01
 c36bf                                  6      0.0000       0.00000       A     3.39830e-01     4.51477e-01
 h37bf                                  1      0.0000       0.00000       A     2.59984e-01     8.79131e-02
 h38bf                                  1      0.0000       0.00000       A     2.59984e-01     8.79131e-02
 h39bf                                  1      0.0000       0.00000       A     2.59984e-01     8.79131e-02
 c40bf                                  6      0.0000       0.00000       A     3.39830e-01     4.51477e-01
 h41bf                                  1      0.0000       0.00000       A     2.59984e-01     8.79131e-02
 h42bf                                  1      0.0000       0.00000       A     2.59984e-01     8.79131e-02
 h43bf                                  1      0.0000       0.00000       A     2.59984e-01     8.79131e-02
 h44bf                                  1      0.0000       0.00000       A     2.42418e-01     8.76849e-02
 c45bf                                  6      0.0000       0.00000       A     3.31661e-01     4.12322e-01
 h46bf                                  1      0.0000       0.00000       A     2.62507e-01     6.73398e-02
 o47bf                                  8      0.0000       0.00000       A     3.04358e-01     6.10575e-01
 c48bf                                  6      0.0000       0.00000       A     3.39798e-01     4.50250e-01
 h49bf                                  1      0.0000       0.00000       A     2.59893e-01     8.82802e-02
 h50bf                                  1      0.0000       0.00000       A     2.59893e-01     8.82802e-02
 h51bf                                  1      0.0000       0.00000       A     2.59893e-01     8.82802e-02
 c52bf                                  6      0.0000       0.00000       A     3.39798e-01     4.50250e-01
 h53bf                                  1      0.0000       0.00000       A     2.59893e-01     8.82802e-02
 h54bf                                  1      0.0000       0.00000       A     2.59893e-01     8.82802e-02
 h55bf                                  1      0.0000       0.00000       A     2.59893e-01     8.82802e-02
 h56bf                                  1      0.0000       0.00000       A     2.62543e-01     6.73813e-02

[ moleculetype ]
;name             nrexcl
 22                    3

[ atoms ]
;       nr            type      resi   res      atom      cgnr      charge          mass ; qtot
         1            c0bf         1   UNL        c0         1    -0.05073       12.0110 ; qtot   -0.051
         2            c1bf         1   UNL        c1         2    -0.06568       12.0110 ; qtot   -0.116
         3            h2bf         1   UNL        h2         3     0.11821        1.0080 ; qtot    0.002
         4            c3bf         1   UNL        c3         4    -0.13502       12.0110 ; qtot   -0.133
         5            h4bf         1   UNL        h4         5     0.13342        1.0080 ; qtot    0.000
         6            c5bf         1   UNL        c5         6     0.17007       12.0110 ; qtot    0.170
         7            c6bf         1   UNL        c6         7    -0.18112       12.0110 ; qtot   -0.011
         8            c7bf         1   UNL        c7         8    -0.04382       12.0110 ; qtot   -0.055
         9            h8bf         1   UNL        h8         9     0.12822        1.0080 ; qtot    0.074
        10            o9bf         1   UNL        o9        10    -0.35834       15.9990 ; qtot   -0.285
        11           c10bf         1   UNL       c10        11     0.18141       12.0110 ; qtot   -0.103
        12           c11bf         1   UNL       c11        12    -0.08115       12.0110 ; qtot   -0.185
        13           h12bf         1   UNL       h12        13     0.08348        1.0080 ; qtot   -0.101
        14           h13bf         1   UNL       h13        14     0.08348        1.0080 ; qtot   -0.018
        15           c14bf         1   UNL       c14        15     0.10827       12.0110 ; qtot    0.091
        16           c15bf         1   UNL       c15        16     0.55024       12.0110 ; qtot    0.641
        17           n16bf         1   UNL       n16        17    -0.64651       14.0070 ; qtot   -0.006
        18           c17bf         1   UNL       c17        18     0.99722       12.0110 ; qtot    0.992
        19           n18bf         1   UNL       n18        19    -0.63159       14.0070 ; qtot    0.360
        20           h19bf         1   UNL       h19        20     0.41427        1.0080 ; qtot    0.774
        21           c20bf         1   UNL       c20        21    -0.00580       12.0110 ; qtot    0.769
        22           c21bf         1   UNL       c21        22     0.07086       12.0110 ; qtot    0.839
        23           h22bf         1   UNL       h22        23     0.09037        1.0080 ; qtot    0.930
        24           h23bf         1   UNL       h23        24     0.09037        1.0080 ; qtot    1.020
        25           h24bf         1   UNL       h24        25     0.09037        1.0080 ; qtot    1.111
        26           n25bf         1   UNL       n25        26    -0.57853       14.0070 ; qtot    0.532
        27           h26bf         1   UNL       h26        27     0.38249        1.0080 ; qtot    0.914
        28           h27bf         1   UNL       h27        28     0.38249        1.0080 ; qtot    1.297
        29           c28bf         1   UNL       c28        29    -0.12953       12.0110 ; qtot    1.167
        30           h29bf         1   UNL       h29        30     0.11820        1.0080 ; qtot    1.286
        31           c30bf         1   UNL       c30        31    -0.07687       12.0110 ; qtot    1.209
        32           c31bf         1   UNL       c31        32    -0.16140       12.0110 ; qtot    1.047
        33           h32bf         1   UNL       h32        33     0.12667        1.0080 ; qtot    1.174
        34           c33bf         1   UNL       c33        34     0.13578       12.0110 ; qtot    1.310
        35           o34bf         1   UNL       o34        35    -0.36501       15.9990 ; qtot    0.945
        36           c35bf         1   UNL       c35        36     0.17057       12.0110 ; qtot    1.115
        37           c36bf         1   UNL       c36        37    -0.10879       12.0110 ; qtot    1.007
        38           h37bf         1   UNL       h37        38     0.04593        1.0080 ; qtot    1.053
        39           h38bf         1   UNL       h38        39     0.04593        1.0080 ; qtot    1.098
        40           h39bf         1   UNL       h39        40     0.04593        1.0080 ; qtot    1.144
        41           c40bf         1   UNL       c40        41    -0.10879       12.0110 ; qtot    1.036
        42           h41bf         1   UNL       h41        42     0.04593        1.0080 ; qtot    1.082
        43           h42bf         1   UNL       h42        43     0.04593        1.0080 ; qtot    1.127
        44           h43bf         1   UNL       h43        44     0.04593        1.0080 ; qtot    1.173
        45           h44bf         1   UNL       h44        45     0.04348        1.0080 ; qtot    1.217
        46           c45bf         1   UNL       c45        46    -0.15326       12.0110 ; qtot    1.064
        47           h46bf         1   UNL       h46        47     0.12583        1.0080 ; qtot    1.189
        48           o47bf         1   UNL       o47        48    -0.39811       15.9990 ; qtot    0.791
        49           c48bf         1   UNL       c48        49    -0.10005       12.0110 ; qtot    0.691
        50           h49bf         1   UNL       h49        50     0.04877        1.0080 ; qtot    0.740
        51           h50bf         1   UNL       h50        51     0.04877        1.0080 ; qtot    0.789
        52           h51bf         1   UNL       h51        52     0.04877        1.0080 ; qtot    0.838
        53           c52bf         1   UNL       c52        53    -0.10005       12.0110 ; qtot    0.738
        54           h53bf         1   UNL       h53        54     0.04877        1.0080 ; qtot    0.786
        55           h54bf         1   UNL       h54        55     0.04877        1.0080 ; qtot    0.835
        56           h55bf         1   UNL       h55        56     0.04877        1.0080 ; qtot    0.884
        57           h56bf         1   UNL       h56        57     0.11618        1.0080 ; qtot    1.000

[ bonds ]
;       ai        aj funct               r               k
         1         2     1        0.140734   281626.230029
         1         8     1        0.140031   289403.403467
         1        21     1        0.148219   213638.822046
         2         3     1        0.108592   318492.009717
         2         4     1        0.139082   332814.318750
         4         5     1        0.108562   321104.966748
         4         6     1        0.140026   288678.966748
         6         7     1        0.140470   276536.760742
         6        10     1        0.136436   267339.417578
         7         8     1        0.140023   297895.615967
         7        15     1        0.151265   181133.452710
         8         9     1        0.108506   319358.177393
        10        11     1        0.145731   141482.468188
        11        12     1        0.154147   164699.186426
        11        49     1        0.152988   183033.962695
        11        53     1        0.152988   183033.962695
        12        13     1        0.109298   301656.951270
        12        14     1        0.109298   301656.951270
        12        15     1        0.154171   160537.276025
        15        16     1        0.154381   128485.484058
        15        19     1        0.148548   146191.332397
        16        17     1        0.141843   159362.683911
        16        48     1        0.120598   711921.900781
        17        18     1        0.135797   301738.465723
        17        22     1        0.146668   196952.070361
        18        19     1        0.133090   390989.564893
        18        26     1        0.133332   412686.097314
        19        20     1        0.101348   425202.319824
        21        29     1        0.140598   285344.050098
        21        46     1        0.140361   289406.493457
        22        23     1        0.109031   312124.791162
        22        24     1        0.109031   312124.791162
        22        25     1        0.109031   312124.816699
        26        27     1        0.101316   425666.584473
        26        28     1        0.101316   425666.584473
        29        30     1        0.108553   319443.011670
        29        31     1        0.139639   315089.700635
        31        32     1        0.139721   314695.458740
        31        57     1        0.108652   318420.684570
        32        33     1        0.108397   324287.809912
        32        34     1        0.140302   287418.608252
        34        35     1        0.137012   262690.667725
        34        46     1        0.140158   288983.598926
        35        36     1        0.144643   162151.515015
        36        37     1        0.152661   191675.899268
        36        41     1        0.152661   191675.899268
        36        45     1        0.109645   292594.163135
        37        38     1        0.109351   302512.240137
        37        39     1        0.109351   302512.240137
        37        40     1        0.109351   302512.240137
        41        42     1        0.109351   302512.240137
        41        43     1        0.109351   302512.240137
        41        44     1        0.109351   302512.240137
        46        47     1        0.108383   322995.785400
        49        50     1        0.109316   303222.120703
        49        51     1        0.109316   303222.120703
        49        52     1        0.109316   303222.120703
        53        54     1        0.109316   303222.120703
        53        55     1        0.109316   303222.120703
        53        56     1        0.109316   303222.120703

[ angles ]
;       ai        aj        ak funct           theta             cth
         1         2         3     1      119.636925      429.570251
         1         2         4     1      121.001816      697.610496
         1         8         7     1      121.865746      650.843494
         1         8         9     1      119.017601      421.915119
         1        21        29     1      120.846909      524.488494
         1        21        46     1      120.438110      441.558168
         2         1         8     1      117.598312      626.144002
         2         1        21     1      121.223831      567.570555
         2         4         5     1      121.209946      430.951681
         2         4         6     1      120.149979      734.422814
         3         2         4     1      119.145973      426.572450
         4         6         7     1      119.925880      589.802844
         4         6        10     1      116.437744      551.331380
         5         4         6     1      118.621658      435.820746
         6         7         8     1      118.894142      739.081357
         6         7        15     1      119.745766      586.516281
         6        10        11     1      117.993736      500.028604
         7         6        10     1      123.637672      514.558357
         7         8         9     1      119.072144      422.141729
         7        15        12     1      111.733620      557.947853
         7        15        16     1      112.067848      601.546658
         7        15        19     1      111.488197      598.667668
         8         1        21     1      121.109451      433.411032
         8         7        15     1      121.302391      442.309470
        10        11        12     1      109.078835      556.881551
        10        11        49     1      106.645714      604.086579
        10        11        53     1      106.645714      604.086579
        11        12        13     1      109.154335      466.471374
        11        12        14     1      109.154335      466.471374
        11        12        15     1      113.052734      640.250254
        11        49        50     1      110.474686      475.605615
        11        49        51     1      110.474686      475.605615
        11        49        52     1      110.474686      475.605615
        11        53        54     1      110.474686      475.605615
        11        53        55     1      110.474686      475.605615
        11        53        56     1      110.474686      475.605615
        12        11        49     1      111.385193      575.618575
        12        11        53     1      111.385193      575.618575
        12        15        16     1      110.797043      616.450307
        12        15        19     1      110.620262      611.566526
        13        12        14     1      107.420326      358.221546
        13        12        15     1      108.621048      474.551156
        14        12        15     1      108.621048      474.551156
        15        16        17     1      106.500320      167.360000
        15        16        48     1      127.583961      359.223303
        15        19        18     1      111.587624      619.880132
        15        19        20     1      121.368065      359.917625
        16        15        19     1      100.386848      329.498044
        16        17        18     1      109.401268      854.894893
        16        17        22     1      123.309692      531.050510
        17        16        48     1      124.771469      662.663728
        17        18        19     1      111.171402      582.762773
        17        18        26     1      123.442459      642.331720
        17        22        23     1      109.308334      484.616097
        17        22        24     1      109.308334      484.616097
        17        22        25     1      109.308334      484.616097
        18        17        22     1      126.712746      464.666028
        18        19        20     1      123.566017      425.702688
        18        26        27     1      120.916794      453.685646
        18        26        28     1      120.916794      453.685646
        19        18        26     1      125.735672      609.105387
        21        29        30     1      119.881287      433.059003
        21        29        31     1      120.121582      683.306331
        21        46        34     1      120.796341      725.725321
        21        46        47     1      120.069969      416.608763
        23        22        24     1      109.761864      350.063621
        23        22        25     1      109.761864      350.063621
        24        22        25     1      109.761864      350.063621
        27        26        28     1      117.283279      315.513795
        29        21        46     1      118.794228      617.392754
        29        31        32     1      120.962387      693.487913
        29        31        57     1      119.693260      439.661016
        30        29        31     1      119.967468      437.309463
        31        32        33     1      120.512230      425.303702
        31        32        34     1      119.300415      732.817743
        32        31        57     1      119.318665      434.142543
        32        34        35     1      120.833298      551.815244
        32        34        46     1      119.865074      616.670500
        33        32        34     1      120.130638      434.740749
        34        35        36     1      119.887405      499.711529
        34        46        47     1      119.256729      435.471909
        35        34        46     1      118.817062      503.488435
        35        36        37     1      108.451820      622.178280
        35        36        41     1      108.451820      622.178280
        35        36        45     1      107.879959      443.965519
        36        37        38     1      110.502342      487.300206
        36        37        39     1      110.502342      487.300206
        36        37        40     1      110.502342      487.300206
        36        41        42     1      110.502342      487.300206
        36        41        43     1      110.502342      487.300206
        36        41        44     1      110.502342      487.300143
        37        36        41     1      112.861954      623.105150
        37        36        45     1      109.355423      492.801506
        38        37        39     1      108.424294      361.320060
        38        37        40     1      108.424294      361.320123
        39        37        40     1      108.424294      361.320123
        41        36        45     1      109.355423      492.801506
        42        41        43     1      108.424294      361.320060
        42        41        44     1      108.424294      361.320060
        43        41        44     1      108.424294      361.320060
        49        11        53     1      111.043091      610.311568
        50        49        51     1      108.427734      360.868117
        50        49        52     1      108.427734      360.868117
        51        49        52     1      108.427734      360.868117
        54        53        55     1      108.427734      360.868117
        54        53        56     1      108.427734      360.868117
        55        53        56     1      108.427734      360.868149

[ dihedrals ] ; propers for gromacs 4.5 or higher, use funct 9
;       ai        aj        ak        al funct           phase               k        pn
         1         2         4         5     9        0.000000       -0.037270         1
         1         2         4         5     9      180.000000       14.439544         2
         1         2         4         5     9        0.000000       -0.484512         3
         1         2         4         5     9      180.000000        0.156170         4
         1         2         4         6     9        0.000000        0.038766         1
         1         2         4         6     9      180.000000       18.931956         2
         1         2         4         6     9        0.000000       -1.442098         3
         1         2         4         6     9      180.000000       -0.466384         4
         1         8         7         6     9        0.000000        0.019398         1
         1         8         7         6     9      180.000000       18.995711         2
         1         8         7         6     9        0.000000       -1.307817         3
         1         8         7         6     9      180.000000       -0.494766         4
         1         8         7        15     9        0.000000        0.237366         1
         1         8         7        15     9      180.000000       16.401967         2
         1         8         7        15     9        0.000000       -0.087081         3
         1         8         7        15     9      180.000000       -0.359483         4
         1        21        29        30     9        0.000000       -0.059255         1
         1        21        29        30     9      180.000000       13.288930         2
         1        21        29        30     9        0.000000       -0.233252         3
         1        21        29        30     9      180.000000        0.175165         4
         1        21        29        31     9        0.000000        0.279739         1
         1        21        29        31     9      180.000000       16.339105         2
         1        21        29        31     9        0.000000       -0.111104         3
         1        21        29        31     9      180.000000       -0.318726         4
         1        21        46        34     9        0.000000        0.204915         1
         1        21        46        34     9      180.000000       16.514220         2
         1        21        46        34     9        0.000000       -0.119817         3
         1        21        46        34     9      180.000000       -0.454398         4
         1        21        46        47     9        0.000000       -0.065145         1
         1        21        46        47     9      180.000000       13.129161         2
         1        21        46        47     9        0.000000       -0.213883         3
         1        21        46        47     9      180.000000        0.204139         4
         2         1         8         7     9        0.000000       -0.108655         1
         2         1         8         7     9      180.000000       18.435479         2
         2         1         8         7     9        0.000000       -1.774375         3
         2         1         8         7     9      180.000000       -0.438956         4
         2         1         8         9     9        0.000000       -0.071440         1
         2         1         8         9     9      180.000000       14.341622         2
         2         1         8         9     9        0.000000       -0.568750         3
         2         1         8         9     9      180.000000        0.080587         4
         2         1        21        29     9        0.000000        0.059237         1
         2         1        21        29     9      180.000000        3.497044         2
         2         1        21        29     9        0.000000        0.049265         3
         2         1        21        29     9      180.000000        0.025704         4
         2         1        21        46     9        0.000000        0.042787         1
         2         1        21        46     9      180.000000        3.544475         2
         2         1        21        46     9        0.000000       -0.002418         3
         2         1        21        46     9      180.000000        0.027475         4
         2         4         6         7     9        0.000000        0.003421         1
         2         4         6         7     9      180.000000       18.393486         2
         2         4         6         7     9        0.000000       -0.952192         3
         2         4         6         7     9      180.000000       -0.528169         4
         2         4         6        10     9        0.000000        0.453909         1
         2         4         6        10     9      180.000000       20.115699         2
         2         4         6        10     9        0.000000        0.712090         3
         2         4         6        10     9      180.000000       -0.566591         4
         3         2         1         8     9        0.000000       -0.140028         1
         3         2         1         8     9      180.000000       13.884212         2
         3         2         1         8     9        0.000000       -0.756916         3
         3         2         1         8     9      180.000000        0.072352         4
         3         2         1        21     9        0.000000       -0.089855         1
         3         2         1        21     9      180.000000       13.198775         2
         3         2         1        21     9        0.000000       -0.262759         3
         3         2         1        21     9      180.000000        0.147663         4
         3         2         4         5     9        0.000000       -0.101728         1
         3         2         4         5     9      180.000000       12.219593         2
         3         2         4         5     9        0.000000       -0.707685         3
         3         2         4         5     9      180.000000        0.368380         4
         3         2         4         6     9        0.000000        0.136480         1
         3         2         4         6     9      180.000000       14.623831         2
         3         2         4         6     9        0.000000       -0.535734         3
         3         2         4         6     9      180.000000        0.133918         4
         4         2         1         8     9        0.000000       -0.174014         1
         4         2         1         8     9      180.000000       18.015357         2
         4         2         1         8     9        0.000000       -1.571562         3
         4         2         1         8     9      180.000000       -0.309252         4
         4         2         1        21     9        0.000000        0.160385         1
         4         2         1        21     9      180.000000       16.171438         2
         4         2         1        21     9        0.000000       -0.274284         3
         4         2         1        21     9      180.000000       -0.299044         4
         4         6         7         8     9        0.000000       -0.099981         1
         4         6         7         8     9      180.000000       15.402617         2
         4         6         7         8     9        0.000000       -0.818311         3
         4         6         7         8     9      180.000000       -0.311874         4
         4         6         7        15     9        0.000000        0.317601         1
         4         6         7        15     9      180.000000       12.594617         2
         4         6         7        15     9        0.000000        0.140950         3
         4         6         7        15     9      180.000000       -0.263644         4
         4         6        10        11     9        0.000000       -0.524440         1
         4         6        10        11     9      180.000000        0.965350         2
         4         6        10        11     9        0.000000        0.127626         3
         4         6        10        11     9      180.000000        0.274670         4
         5         4         6         7     9        0.000000        0.029945         1
         5         4         6         7     9      180.000000       13.435392         2
         5         4         6         7     9        0.000000       -0.361852         3
         5         4         6         7     9      180.000000       -0.014588         4
         5         4         6        10     9        0.000000        0.018714         1
         5         4         6        10     9      180.000000       16.055862         2
         5         4         6        10     9        0.000000        0.173212         3
         5         4         6        10     9      180.000000        0.104013         4
         6         7         8         9     9        0.000000        0.268573         1
         6         7         8         9     9      180.000000       14.612480         2
         6         7         8         9     9        0.000000       -0.273898         3
         6         7         8         9     9      180.000000        0.027503         4
         6         7        15        12     9        0.000000        0.442429         1
         6         7        15        12     9      180.000000       -0.582160         2
         6         7        15        12     9        0.000000        0.566510         3
         6         7        15        12     9      180.000000        0.177976         4
         6         7        15        16     9        0.000000        0.102814         1
         6         7        15        16     9      180.000000       -0.121196         2
         6         7        15        16     9        0.000000       -0.091766         3
         6         7        15        16     9      180.000000        0.098350         4
         6         7        15        19     9        0.000000       -1.211495         1
         6         7        15        19     9      180.000000        1.208789         2
         6         7        15        19     9        0.000000        0.479329         3
         6         7        15        19     9      180.000000       -0.237524         4
         6        10        11        12     9        0.000000        6.552491         1
         6        10        11        12     9      180.000000       -3.144803         2
         6        10        11        12     9        0.000000       -0.417738         3
         6        10        11        12     9      180.000000        0.734854         4
         6        10        11        49     9        0.000000       -0.601019         1
         6        10        11        49     9      180.000000        0.475001         2
         6        10        11        49     9        0.000000        0.451956         3
         6        10        11        49     9      180.000000        0.038632         4
         6        10        11        53     9        0.000000       -0.601019         1
         6        10        11        53     9      180.000000        0.475001         2
         6        10        11        53     9        0.000000        0.451956         3
         6        10        11        53     9      180.000000        0.038632         4
         7         6        10        11     9        0.000000        1.640771         1
         7         6        10        11     9      180.000000        0.065588         2
         7         6        10        11     9        0.000000       -0.117565         3
         7         6        10        11     9      180.000000        0.605195         4
         7         8         1        21     9        0.000000       -0.015549         1
         7         8         1        21     9      180.000000       17.082421         2
         7         8         1        21     9        0.000000       -0.302814         3
         7         8         1        21     9      180.000000       -0.493105         4
         7        15        12        11     9        0.000000        1.224939         1
         7        15        12        11     9      180.000000       -1.112698         2
         7        15        12        11     9        0.000000        0.379613         3
         7        15        12        11     9      180.000000        0.212213         4
         7        15        12        13     9        0.000000        0.060303         1
         7        15        12        13     9      180.000000        0.038717         2
         7        15        12        13     9        0.000000        0.531071         3
         7        15        12        13     9      180.000000        0.004443         4
         7        15        12        14     9        0.000000        0.060303         1
         7        15        12        14     9      180.000000        0.038717         2
         7        15        12        14     9        0.000000        0.531071         3
         7        15        12        14     9      180.000000        0.004443         4
         7        15        16        17     9        0.000000        0.204138         1
         7        15        16        17     9      180.000000        2.054007         2
         7        15        16        17     9        0.000000        0.314617         3
         7        15        16        17     9      180.000000        0.636535         4
         7        15        16        48     9        0.000000       -1.028429         1
         7        15        16        48     9      180.000000        1.994955         2
         7        15        16        48     9        0.000000       -0.383167         3
         7        15        16        48     9      180.000000        0.534449         4
         7        15        19        18     9        0.000000        1.475577         1
         7        15        19        18     9      180.000000        0.330887         2
         7        15        19        18     9        0.000000        0.426833         3
         7        15        19        18     9      180.000000        0.176206         4
         7        15        19        20     9        0.000000        1.133225         1
         7        15        19        20     9      180.000000       -0.176846         2
         7        15        19        20     9        0.000000        0.307694         3
         7        15        19        20     9      180.000000        0.155610         4
         8         1        21        29     9        0.000000       -0.047883         1
         8         1        21        29     9      180.000000        3.600835         2
         8         1        21        29     9        0.000000        0.068155         3
         8         1        21        29     9      180.000000       -0.004358         4
         8         1        21        46     9        0.000000        0.005520         1
         8         1        21        46     9      180.000000        3.632377         2
         8         1        21        46     9        0.000000        0.012660         3
         8         1        21        46     9      180.000000        0.016867         4
         8         7         6        10     9        0.000000        0.065874         1
         8         7         6        10     9      180.000000       16.858075         2
         8         7         6        10     9        0.000000        0.609920         3
         8         7         6        10     9      180.000000       -0.441368         4
         8         7        15        12     9        0.000000       -0.413872         1
         8         7        15        12     9      180.000000        0.649232         2
         8         7        15        12     9        0.000000       -0.252932         3
         8         7        15        12     9      180.000000        0.237556         4
         8         7        15        16     9        0.000000       -0.864112         1
         8         7        15        16     9      180.000000       -0.269346         2
         8         7        15        16     9        0.000000       -0.294400         3
         8         7        15        16     9      180.000000        0.217114         4
         8         7        15        19     9        0.000000       -0.231744         1
         8         7        15        19     9      180.000000        1.872503         2
         8         7        15        19     9        0.000000       -0.163923         3
         8         7        15        19     9      180.000000       -0.004626         4
         9         8         1        21     9        0.000000       -0.054655         1
         9         8         1        21     9      180.000000       13.194376         2
         9         8         1        21     9        0.000000       -0.177234         3
         9         8         1        21     9      180.000000        0.162801         4
         9         8         7        15     9        0.000000       -0.093180         1
         9         8         7        15     9      180.000000       13.464457         2
         9         8         7        15     9        0.000000       -0.230321         3
         9         8         7        15     9      180.000000        0.078223         4
        10         6         7        15     9        0.000000        0.652877         1
        10         6         7        15     9      180.000000       13.735837         2
        10         6         7        15     9        0.000000        0.969375         3
        10         6         7        15     9      180.000000       -0.661470         4
        10        11        12        13     9        0.000000        0.010187         1
        10        11        12        13     9      180.000000        0.032223         2
        10        11        12        13     9        0.000000        0.118020         3
        10        11        12        13     9      180.000000        0.005280         4
        10        11        12        14     9        0.000000        0.010187         1
        10        11        12        14     9      180.000000        0.032223         2
        10        11        12        14     9        0.000000        0.118020         3
        10        11        12        14     9      180.000000        0.005280         4
        10        11        12        15     9        0.000000        6.398275         1
        10        11        12        15     9      180.000000       -3.171040         2
        10        11        12        15     9        0.000000       -0.812227         3
        10        11        12        15     9      180.000000        0.264324         4
        10        11        49        50     9        0.000000        0.022757         1
        10        11        49        50     9      180.000000       -0.106326         2
        10        11        49        50     9        0.000000        0.371208         3
        10        11        49        50     9      180.000000        0.017378         4
        10        11        49        51     9        0.000000        0.022757         1
        10        11        49        51     9      180.000000       -0.106326         2
        10        11        49        51     9        0.000000        0.371208         3
        10        11        49        51     9      180.000000        0.017378         4
        10        11        49        52     9        0.000000        0.022757         1
        10        11        49        52     9      180.000000       -0.106326         2
        10        11        49        52     9        0.000000        0.371208         3
        10        11        49        52     9      180.000000        0.017378         4
        10        11        53        54     9        0.000000        0.022757         1
        10        11        53        54     9      180.000000       -0.106326         2
        10        11        53        54     9        0.000000        0.371208         3
        10        11        53        54     9      180.000000        0.017378         4
        10        11        53        55     9        0.000000        0.022757         1
        10        11        53        55     9      180.000000       -0.106326         2
        10        11        53        55     9        0.000000        0.371208         3
        10        11        53        55     9      180.000000        0.017378         4
        10        11        53        56     9        0.000000        0.022757         1
        10        11        53        56     9      180.000000       -0.106326         2
        10        11        53        56     9        0.000000        0.371208         3
        10        11        53        56     9      180.000000        0.017378         4
        11        12        15        16     9        0.000000       -0.158489         1
        11        12        15        16     9      180.000000        0.109710         2
        11        12        15        16     9        0.000000        0.008060         3
        11        12        15        16     9      180.000000        0.059205         4
        11        12        15        19     9        0.000000       -1.376753         1
        11        12        15        19     9      180.000000       -0.656378         2
        11        12        15        19     9        0.000000        0.372563         3
        11        12        15        19     9      180.000000        0.291438         4
        12        11        49        50     9        0.000000       -0.089919         1
        12        11        49        50     9      180.000000        0.000423         2
        12        11        49        50     9        0.000000        0.433042         3
        12        11        49        50     9      180.000000        0.019250         4
        12        11        49        51     9        0.000000       -0.089919         1
        12        11        49        51     9      180.000000        0.000423         2
        12        11        49        51     9        0.000000        0.433042         3
        12        11        49        51     9      180.000000        0.019250         4
        12        11        49        52     9        0.000000       -0.089919         1
        12        11        49        52     9      180.000000        0.000423         2
        12        11        49        52     9        0.000000        0.433042         3
        12        11        49        52     9      180.000000        0.019250         4
        12        11        53        54     9        0.000000       -0.089919         1
        12        11        53        54     9      180.000000        0.000423         2
        12        11        53        54     9        0.000000        0.433042         3
        12        11        53        54     9      180.000000        0.019250         4
        12        11        53        55     9        0.000000       -0.089919         1
        12        11        53        55     9      180.000000        0.000423         2
        12        11        53        55     9        0.000000        0.433042         3
        12        11        53        55     9      180.000000        0.019250         4
        12        11        53        56     9        0.000000       -0.089919         1
        12        11        53        56     9      180.000000        0.000423         2
        12        11        53        56     9        0.000000        0.433042         3
        12        11        53        56     9      180.000000        0.019250         4
        12        15        16        17     9        0.000000       -0.141660         1
        12        15        16        17     9      180.000000        3.066579         2
        12        15        16        17     9        0.000000        0.134318         3
        12        15        16        17     9      180.000000        0.386088         4
        12        15        16        48     9        0.000000        1.080604         1
        12        15        16        48     9      180.000000        2.732702         2
        12        15        16        48     9        0.000000       -0.579963         3
        12        15        16        48     9      180.000000        0.528779         4
        12        15        19        18     9        0.000000       -0.582310         1
        12        15        19        18     9      180.000000        0.755302         2
        12        15        19        18     9        0.000000        0.351235         3
        12        15        19        18     9      180.000000        0.157736         4
        12        15        19        20     9        0.000000        0.171427         1
        12        15        19        20     9      180.000000       -0.174988         2
        12        15        19        20     9        0.000000        0.231541         3
        12        15        19        20     9      180.000000       -0.054083         4
        13        12        11        49     9        0.000000       -0.021980         1
        13        12        11        49     9      180.000000       -0.009422         2
        13        12        11        49     9        0.000000        0.356718         3
        13        12        11        49     9      180.000000       -0.000954         4
        13        12        11        53     9        0.000000       -0.021980         1
        13        12        11        53     9      180.000000       -0.009422         2
        13        12        11        53     9        0.000000        0.356718         3
        13        12        11        53     9      180.000000       -0.000954         4
        13        12        15        16     9        0.000000       -0.120531         1
        13        12        15        16     9      180.000000        0.006259         2
        13        12        15        16     9        0.000000        0.249160         3
        13        12        15        16     9      180.000000        0.015556         4
        13        12        15        19     9        0.000000        0.048077         1
        13        12        15        19     9      180.000000        0.031139         2
        13        12        15        19     9        0.000000        0.441342         3
        13        12        15        19     9      180.000000       -0.090829         4
        14        12        11        49     9        0.000000       -0.021980         1
        14        12        11        49     9      180.000000       -0.009422         2
        14        12        11        49     9        0.000000        0.356718         3
        14        12        11        49     9      180.000000       -0.000954         4
        14        12        11        53     9        0.000000       -0.021980         1
        14        12        11        53     9      180.000000       -0.009422         2
        14        12        11        53     9        0.000000        0.356718         3
        14        12        11        53     9      180.000000       -0.000954         4
        14        12        15        16     9        0.000000       -0.120531         1
        14        12        15        16     9      180.000000        0.006259         2
        14        12        15        16     9        0.000000        0.249160         3
        14        12        15        16     9      180.000000        0.015556         4
        14        12        15        19     9        0.000000        0.048077         1
        14        12        15        19     9      180.000000        0.031139         2
        14        12        15        19     9        0.000000        0.441342         3
        14        12        15        19     9      180.000000       -0.090829         4
        15        12        11        49     9        0.000000       -0.491719         1
        15        12        11        49     9      180.000000        0.610387         2
        15        12        11        49     9        0.000000        0.252005         3
        15        12        11        49     9      180.000000       -0.014027         4
        15        12        11        53     9        0.000000       -0.491719         1
        15        12        11        53     9      180.000000        0.610387         2
        15        12        11        53     9        0.000000        0.252005         3
        15        12        11        53     9      180.000000       -0.014027         4
        15        16        17        18     9        0.000000       -2.621426         1
        15        16        17        18     9      180.000000       12.608727         2
        15        16        17        18     9        0.000000       -1.689385         3
        15        16        17        18     9      180.000000       -0.516965         4
        15        16        17        22     9        0.000000       -1.161959         1
        15        16        17        22     9      180.000000        6.523790         2
        15        16        17        22     9        0.000000        0.171203         3
        15        16        17        22     9      180.000000       -0.171941         4
        15        19        18        17     9        0.000000       -1.486140         1
        15        19        18        17     9      180.000000       26.058799         2
        15        19        18        17     9        0.000000       -2.115652         3
        15        19        18        17     9      180.000000       -2.999679         4
        15        19        18        26     9        0.000000        1.704035         1
        15        19        18        26     9      180.000000       19.771991         2
        15        19        18        26     9        0.000000        0.715132         3
        15        19        18        26     9      180.000000       -2.025611         4
        16        15        19        18     9        0.000000       -3.202930         1
        16        15        19        18     9      180.000000        3.675471         2
        16        15        19        18     9        0.000000       -0.128940         3
        16        15        19        18     9      180.000000       -0.635128         4
        16        15        19        20     9        0.000000       -0.882341         1
        16        15        19        20     9      180.000000       -0.826404         2
        16        15        19        20     9        0.000000        0.165262         3
        16        15        19        20     9      180.000000        0.141885         4
        16        17        18        19     9        0.000000       -2.490328         1
        16        17        18        19     9      180.000000       13.834040         2
        16        17        18        19     9        0.000000       -2.378247         3
        16        17        18        19     9      180.000000       -1.280421         4
        16        17        18        26     9        0.000000        1.935113         1
        16        17        18        26     9      180.000000       11.081020         2
        16        17        18        26     9        0.000000       -0.210528         3
        16        17        18        26     9      180.000000       -0.637296         4
        16        17        22        23     9        0.000000       -0.046462         1
        16        17        22        23     9      180.000000       -0.089247         2
        16        17        22        23     9        0.000000       -0.283225         3
        16        17        22        23     9      180.000000        0.030104         4
        16        17        22        24     9        0.000000       -0.046462         1
        16        17        22        24     9      180.000000       -0.089247         2
        16        17        22        24     9        0.000000       -0.283225         3
        16        17        22        24     9      180.000000        0.030104         4
        16        17        22        25     9        0.000000       -0.046462         1
        16        17        22        25     9      180.000000       -0.089247         2
        16        17        22        25     9        0.000000       -0.283225         3
        16        17        22        25     9      180.000000        0.030104         4
        17        16        15        19     9        0.000000        0.490408         1
        17        16        15        19     9      180.000000        7.821340         2
        17        16        15        19     9        0.000000       -0.339097         3
        17        16        15        19     9      180.000000       -0.046198         4
        17        18        19        20     9        0.000000        0.456219         1
        17        18        19        20     9      180.000000       11.615587         2
        17        18        19        20     9        0.000000        0.224486         3
        17        18        19        20     9      180.000000       -0.965494         4
        17        18        26        27     9        0.000000       -0.170244         1
        17        18        26        27     9      180.000000        6.404528         2
        17        18        26        27     9        0.000000        0.524424         3
        17        18        26        27     9      180.000000       -0.541232         4
        17        18        26        28     9        0.000000       -0.170244         1
        17        18        26        28     9      180.000000        6.404528         2
        17        18        26        28     9        0.000000        0.524424         3
        17        18        26        28     9      180.000000       -0.541232         4
        18        17        16        48     9        0.000000        1.168478         1
        18        17        16        48     9      180.000000       20.631698         2
        18        17        16        48     9        0.000000       -0.713105         3
        18        17        16        48     9      180.000000       -0.822735         4
        18        17        22        23     9        0.000000        0.029063         1
        18        17        22        23     9      180.000000        0.021416         2
        18        17        22        23     9        0.000000        0.188894         3
        18        17        22        23     9      180.000000       -0.011671         4
        18        17        22        24     9        0.000000        0.029063         1
        18        17        22        24     9      180.000000        0.021416         2
        18        17        22        24     9        0.000000        0.188894         3
        18        17        22        24     9      180.000000       -0.011671         4
        18        17        22        25     9        0.000000        0.029063         1
        18        17        22        25     9      180.000000        0.021416         2
        18        17        22        25     9        0.000000        0.188894         3
        18        17        22        25     9      180.000000       -0.011671         4
        19        15        16        48     9        0.000000        7.981292         1
        19        15        16        48     9      180.000000        7.024952         2
        19        15        16        48     9        0.000000       -0.163171         3
        19        15        16        48     9      180.000000        0.325120         4
        19        18        17        22     9        0.000000       -3.776014         1
        19        18        17        22     9      180.000000        5.458345         2
        19        18        17        22     9        0.000000       -0.154527         3
        19        18        17        22     9      180.000000        0.081931         4
        19        18        26        27     9        0.000000       -1.696699         1
        19        18        26        27     9      180.000000        6.696567         2
        19        18        26        27     9        0.000000        0.180424         3
        19        18        26        27     9      180.000000       -0.442659         4
        19        18        26        28     9        0.000000       -1.696699         1
        19        18        26        28     9      180.000000        6.696567         2
        19        18        26        28     9        0.000000        0.180424         3
        19        18        26        28     9      180.000000       -0.442659         4
        20        19        18        26     9        0.000000        0.829726         1
        20        19        18        26     9      180.000000        7.727450         2
        20        19        18        26     9        0.000000        0.246606         3
        20        19        18        26     9      180.000000       -0.383134         4
        21        29        31        32     9        0.000000       -0.037665         1
        21        29        31        32     9      180.000000       18.728703         2
        21        29        31        32     9        0.000000       -1.485386         3
        21        29        31        32     9      180.000000       -0.324359         4
        21        29        31        57     9        0.000000       -0.052070         1
        21        29        31        57     9      180.000000       14.582828         2
        21        29        31        57     9        0.000000       -0.623133         3
        21        29        31        57     9      180.000000        0.109912         4
        21        46        34        32     9        0.000000       -0.126790         1
        21        46        34        32     9      180.000000       15.846721         2
        21        46        34        32     9        0.000000       -0.854719         3
        21        46        34        32     9      180.000000       -0.205865         4
        21        46        34        35     9        0.000000        0.282079         1
        21        46        34        35     9      180.000000       16.910640         2
        21        46        34        35     9        0.000000        0.345244         3
        21        46        34        35     9      180.000000       -0.286128         4
        22        17        16        48     9        0.000000       -0.327768         1
        22        17        16        48     9      180.000000        9.752935         2
        22        17        16        48     9        0.000000       -0.183564         3
        22        17        16        48     9      180.000000        0.446364         4
        22        17        18        26     9        0.000000        1.331771         1
        22        17        18        26     9      180.000000        6.631611         2
        22        17        18        26     9        0.000000        0.055652         3
        22        17        18        26     9      180.000000       -0.063283         4
        29        21        46        34     9        0.000000       -0.184127         1
        29        21        46        34     9      180.000000       18.251041         2
        29        21        46        34     9        0.000000       -1.598862         3
        29        21        46        34     9      180.000000       -0.395616         4
        29        21        46        47     9        0.000000       -0.045005         1
        29        21        46        47     9      180.000000       14.001840         2
        29        21        46        47     9        0.000000       -0.580663         3
        29        21        46        47     9      180.000000        0.083602         4
        29        31        32        33     9        0.000000        0.058160         1
        29        31        32        33     9      180.000000       13.736603         2
        29        31        32        33     9        0.000000       -0.645120         3
        29        31        32        33     9      180.000000        0.180404         4
        29        31        32        34     9        0.000000       -0.019825         1
        29        31        32        34     9      180.000000       18.483157         2
        29        31        32        34     9        0.000000       -1.546201         3
        29        31        32        34     9      180.000000       -0.489649         4
        30        29        21        46     9        0.000000       -0.122558         1
        30        29        21        46     9      180.000000       14.344732         2
        30        29        21        46     9        0.000000       -0.667718         3
        30        29        21        46     9      180.000000        0.044997         4
        30        29        31        32     9        0.000000        0.045497         1
        30        29        31        32     9      180.000000       14.694976         2
        30        29        31        32     9        0.000000       -0.736337         3
        30        29        31        32     9      180.000000        0.161642         4
        30        29        31        57     9        0.000000       -0.203114         1
        30        29        31        57     9      180.000000       11.798885         2
        30        29        31        57     9        0.000000       -0.725751         3
        30        29        31        57     9      180.000000        0.320673         4
        31        29        21        46     9        0.000000       -0.137650         1
        31        29        21        46     9      180.000000       18.303975         2
        31        29        21        46     9        0.000000       -1.472113         3
        31        29        21        46     9      180.000000       -0.291293         4
        31        32        34        35     9        0.000000        0.529844         1
        31        32        34        35     9      180.000000       17.374954         2
        31        32        34        35     9        0.000000        0.477583         3
        31        32        34        35     9      180.000000       -0.247058         4
        31        32        34        46     9        0.000000       -0.078383         1
        31        32        34        46     9      180.000000       15.776751         2
        31        32        34        46     9        0.000000       -0.861517         3
        31        32        34        46     9      180.000000       -0.170067         4
        32        34        35        36     9        0.000000        0.346085         1
        32        34        35        36     9      180.000000        4.702317         2
        32        34        35        36     9        0.000000        0.296177         3
        32        34        35        36     9      180.000000        0.278845         4
        32        34        46        47     9        0.000000        0.131756         1
        32        34        46        47     9      180.000000       12.298610         2
        32        34        46        47     9        0.000000       -0.469958         3
        32        34        46        47     9      180.000000        0.263563         4
        33        32        31        57     9        0.000000       -0.182608         1
        33        32        31        57     9      180.000000       11.577050         2
        33        32        31        57     9        0.000000       -0.597260         3
        33        32        31        57     9      180.000000        0.251079         4
        33        32        34        35     9        0.000000        0.067644         1
        33        32        34        35     9      180.000000       12.955189         2
        33        32        34        35     9        0.000000       -0.093223         3
        33        32        34        35     9      180.000000        0.248304         4
        33        32        34        46     9        0.000000        0.026984         1
        33        32        34        46     9      180.000000       12.519104         2
        33        32        34        46     9        0.000000       -0.468130         3
        33        32        34        46     9      180.000000        0.156319         4
        34        32        31        57     9        0.000000        0.063153         1
        34        32        31        57     9      180.000000       14.434931         2
        34        32        31        57     9        0.000000       -0.479318         3
        34        32        31        57     9      180.000000        0.083602         4
        34        35        36        37     9        0.000000        0.587497         1
        34        35        36        37     9      180.000000        0.190564         2
        34        35        36        37     9        0.000000        0.845334         3
        34        35        36        37     9      180.000000        0.048766         4
        34        35        36        41     9        0.000000        0.587497         1
        34        35        36        41     9      180.000000        0.190564         2
        34        35        36        41     9        0.000000        0.845334         3
        34        35        36        41     9      180.000000        0.048766         4
        34        35        36        45     9        0.000000       -0.732757         1
        34        35        36        45     9      180.000000       -0.070360         2
        34        35        36        45     9        0.000000        0.846773         3
        34        35        36        45     9      180.000000       -0.120625         4
        35        34        46        47     9        0.000000        0.123185         1
        35        34        46        47     9      180.000000       12.963571         2
        35        34        46        47     9        0.000000       -0.061716         3
        35        34        46        47     9      180.000000        0.301136         4
        35        36        37        38     9        0.000000        0.126982         1
        35        36        37        38     9      180.000000        0.056043         2
        35        36        37        38     9        0.000000        0.457177         3
        35        36        37        38     9      180.000000        0.044202         4
        35        36        37        39     9        0.000000        0.126982         1
        35        36        37        39     9      180.000000        0.056043         2
        35        36        37        39     9        0.000000        0.457177         3
        35        36        37        39     9      180.000000        0.044202         4
        35        36        37        40     9        0.000000        0.126982         1
        35        36        37        40     9      180.000000        0.056043         2
        35        36        37        40     9        0.000000        0.457177         3
        35        36        37        40     9      180.000000        0.044202         4
        35        36        41        42     9        0.000000        0.126982         1
        35        36        41        42     9      180.000000        0.056043         2
        35        36        41        42     9        0.000000        0.457177         3
        35        36        41        42     9      180.000000        0.044202         4
        35        36        41        43     9        0.000000        0.126982         1
        35        36        41        43     9      180.000000        0.056043         2
        35        36        41        43     9        0.000000        0.457177         3
        35        36        41        43     9      180.000000        0.044202         4
        35        36        41        44     9        0.000000        0.126982         1
        35        36        41        44     9      180.000000        0.056042         2
        35        36        41        44     9        0.000000        0.457177         3
        35        36        41        44     9      180.000000        0.044202         4
        36        35        34        46     9        0.000000       -0.299709         1
        36        35        34        46     9      180.000000        4.690404         2
        36        35        34        46     9        0.000000        0.213057         3
        36        35        34        46     9      180.000000        0.311678         4
        37        36        41        42     9        0.000000       -0.071970         1
        37        36        41        42     9      180.000000        0.033808         2
        37        36        41        42     9        0.000000        0.543697         3
        37        36        41        42     9      180.000000        0.044630         4
        37        36        41        43     9        0.000000       -0.071970         1
        37        36        41        43     9      180.000000        0.033808         2
        37        36        41        43     9        0.000000        0.543697         3
        37        36        41        43     9      180.000000        0.044630         4
        37        36        41        44     9        0.000000       -0.071970         1
        37        36        41        44     9      180.000000        0.033807         2
        37        36        41        44     9        0.000000        0.543697         3
        37        36        41        44     9      180.000000        0.044630         4
        38        37        36        41     9        0.000000       -0.071970         1
        38        37        36        41     9      180.000000        0.033808         2
        38        37        36        41     9        0.000000        0.543697         3
        38        37        36        41     9      180.000000        0.044630         4
        38        37        36        45     9        0.000000       -0.010938         1
        38        37        36        45     9      180.000000        0.056921         2
        38        37        36        45     9        0.000000        0.609288         3
        38        37        36        45     9      180.000000       -0.024693         4
        39        37        36        41     9        0.000000       -0.071970         1
        39        37        36        41     9      180.000000        0.033808         2
        39        37        36        41     9        0.000000        0.543697         3
        39        37        36        41     9      180.000000        0.044630         4
        39        37        36        45     9        0.000000       -0.010938         1
        39        37        36        45     9      180.000000        0.056921         2
        39        37        36        45     9        0.000000        0.609288         3
        39        37        36        45     9      180.000000       -0.024693         4
        40        37        36        41     9        0.000000       -0.071970         1
        40        37        36        41     9      180.000000        0.033808         2
        40        37        36        41     9        0.000000        0.543697         3
        40        37        36        41     9      180.000000        0.044630         4
        40        37        36        45     9        0.000000       -0.010938         1
        40        37        36        45     9      180.000000        0.056921         2
        40        37        36        45     9        0.000000        0.609288         3
        40        37        36        45     9      180.000000       -0.024693         4
        42        41        36        45     9        0.000000       -0.010938         1
        42        41        36        45     9      180.000000        0.056921         2
        42        41        36        45     9        0.000000        0.609288         3
        42        41        36        45     9      180.000000       -0.024693         4
        43        41        36        45     9        0.000000       -0.010938         1
        43        41        36        45     9      180.000000        0.056921         2
        43        41        36        45     9        0.000000        0.609288         3
        43        41        36        45     9      180.000000       -0.024693         4
        44        41        36        45     9        0.000000       -0.010937         1
        44        41        36        45     9      180.000000        0.056922         2
        44        41        36        45     9        0.000000        0.609289         3
        44        41        36        45     9      180.000000       -0.024693         4
        49        11        53        54     9        0.000000       -0.082665         1
        49        11        53        54     9      180.000000        0.011908         2
        49        11        53        54     9        0.000000        0.531653         3
        49        11        53        54     9      180.000000        0.044561         4
        49        11        53        55     9        0.000000       -0.082665         1
        49        11        53        55     9      180.000000        0.011908         2
        49        11        53        55     9        0.000000        0.531653         3
        49        11        53        55     9      180.000000        0.044561         4
        49        11        53        56     9        0.000000       -0.082665         1
        49        11        53        56     9      180.000000        0.011908         2
        49        11        53        56     9        0.000000        0.531653         3
        49        11        53        56     9      180.000000        0.044561         4
        50        49        11        53     9        0.000000       -0.082665         1
        50        49        11        53     9      180.000000        0.011908         2
        50        49        11        53     9        0.000000        0.531653         3
        50        49        11        53     9      180.000000        0.044561         4
        51        49        11        53     9        0.000000       -0.082665         1
        51        49        11        53     9      180.000000        0.011908         2
        51        49        11        53     9        0.000000        0.531653         3
        51        49        11        53     9      180.000000        0.044561         4
        52        49        11        53     9        0.000000       -0.082665         1
        52        49        11        53     9      180.000000        0.011908         2
        52        49        11        53     9        0.000000        0.531653         3
        52        49        11        53     9      180.000000        0.044561         4

[ dihedrals ] ; impropers
;       ai        aj        ak        al funct           phase               k        pn
        16        15        17        48     4      180.000000       26.920058         2
        16        17        48        15     4      180.000000       26.920058         2
        16        48        15        17     4      180.000000       26.920058         2
        18        17        19        26     4      180.000000       10.189567         2
        18        19        26        17     4      180.000000       10.189567         2
        18        26        17        19     4      180.000000       10.189567         2

[ pairs ]
;       ai        aj funct
         1         5     1
         1         6     1
         1        15     1
         1        30     1
         1        31     1
         1        34     1
         1        47     1
         2         7     1
         2         9     1
         2        10     1
         2        29     1
         2        46     1
         3         5     1
         3         6     1
         3         8     1
         3        21     1
         4         8     1
         4        11     1
         4        15     1
         4        21     1
         5         7     1
         5        10     1
         6         9     1
         6        12     1
         6        16     1
         6        19     1
         6        49     1
         6        53     1
         7        11     1
         7        13     1
         7        14     1
         7        17     1
         7        18     1
         7        20     1
         7        21     1
         7        48     1
         8        10     1
         8        12     1
         8        16     1
         8        19     1
         8        29     1
         8        46     1
         9        15     1
         9        21     1
        10        13     1
        10        14     1
        10        15     1
        10        50     1
        10        51     1
        10        52     1
        10        54     1
        10        55     1
        10        56     1
        11        16     1
        11        19     1
        12        17     1
        12        18     1
        12        20     1
        12        48     1
        12        50     1
        12        51     1
        12        52     1
        12        54     1
        12        55     1
        12        56     1
        13        16     1
        13        19     1
        13        49     1
        13        53     1
        14        16     1
        14        19     1
        14        49     1
        14        53     1
        15        22     1
        15        26     1
        15        49     1
        15        53     1
        16        20     1
        16        23     1
        16        24     1
        16        25     1
        16        26     1
        17        20     1
        17        27     1
        17        28     1
        18        23     1
        18        24     1
        18        25     1
        18        48     1
        19        22     1
        19        27     1
        19        28     1
        19        48     1
        20        26     1
        21        32     1
        21        35     1
        21        57     1
        22        26     1
        22        48     1
        29        33     1
        29        34     1
        29        47     1
        30        32     1
        30        46     1
        30        57     1
        31        35     1
        31        46     1
        32        36     1
        32        47     1
        33        35     1
        33        46     1
        33        57     1
        34        37     1
        34        41     1
        34        45     1
        34        57     1
        35        38     1
        35        39     1
        35        40     1
        35        42     1
        35        43     1
        35        44     1
        35        47     1
        36        46     1
        37        42     1
        37        43     1
        37        44     1
        38        41     1
        38        45     1
        39        41     1
        39        45     1
        40        41     1
        40        45     1
        42        45     1
        43        45     1
        44        45     1
        49        54     1
        49        55     1
        49        56     1
        50        53     1
        51        53     1
        52        53     1
