; ITP file created by ByteFF-ML, 2026-03-14 15:25:18.500024

[ atomtypes ]
;name           bonded.type        at.num        mass        charge   ptype           sigma         epsilon
 c0bf                                   6      0.0000       0.00000       A     3.31436e-01     4.11756e-01
 c1bf                                   6      0.0000       0.00000       A     3.31568e-01     4.13143e-01
 h2bf                                   1      0.0000       0.00000       A     2.62485e-01     6.75153e-02
 c3bf                                   6      0.0000       0.00000       A     3.31523e-01     4.12056e-01
 h4bf                                   1      0.0000       0.00000       A     2.62405e-01     6.67253e-02
 c5bf                                   6      0.0000       0.00000       A     3.31279e-01     4.11283e-01
 c6bf                                   6      0.0000       0.00000       A     3.31150e-01     4.13198e-01
 c7bf                                   6      0.0000       0.00000       A     3.31448e-01     4.13506e-01
 h8bf                                   1      0.0000       0.00000       A     2.62592e-01     6.73030e-02
 o9bf                                   8      0.0000       0.00000       A     3.15529e-01     3.02270e-01
 c10bf                                  6      0.0000       0.00000       A     3.39880e-01     4.53386e-01
 c11bf                                  6      0.0000       0.00000       A     3.39567e-01     4.51771e-01
 h12bf                                  1      0.0000       0.00000       A     2.59417e-01     8.63170e-02
 h13bf                                  1      0.0000       0.00000       A     2.59417e-01     8.63170e-02
 c14bf                                  6      0.0000       0.00000       A     3.39917e-01     4.52880e-01
 c15bf                                  6      0.0000       0.00000       A     3.31525e-01     4.13256e-01
 n16bf                                  7      0.0000       0.00000       A     3.18147e-01     7.08350e-01
 c17bf                                  6      0.0000       0.00000       A     3.31173e-01     4.11985e-01
 n18bf                                  7      0.0000       0.00000       A     3.26363e-01     6.55753e-01
 h19bf                                  1      0.0000       0.00000       A     1.10240e-01     4.07109e-02
 c20bf                                  6      0.0000       0.00000       A     3.31342e-01     4.12017e-01
 c21bf                                  6      0.0000       0.00000       A     3.39925e-01     4.53383e-01
 h22bf                                  1      0.0000       0.00000       A     2.42238e-01     8.60936e-02
 h23bf                                  1      0.0000       0.00000       A     2.42238e-01     8.60936e-02
 h24bf                                  1      0.0000       0.00000       A     2.42238e-01     8.60936e-02
 n25bf                                  7      0.0000       0.00000       A     3.36693e-01     4.77150e-01
 h26bf                                  1      0.0000       0.00000       A     1.10539e-01     3.88978e-02
 h27bf                                  1      0.0000       0.00000       A     1.10539e-01     3.88978e-02
 c28bf                                  6      0.0000       0.00000       A     3.31465e-01     4.13901e-01
 h29bf                                  1      0.0000       0.00000       A     2.62604e-01     6.74483e-02
 c30bf                                  6      0.0000       0.00000       A     3.31581e-01     4.14028e-01
 c31bf                                  6      0.0000       0.00000       A     3.31498e-01     4.12969e-01
 h32bf                                  1      0.0000       0.00000       A     2.62655e-01     6.75361e-02
 c33bf                                  6      0.0000       0.00000       A     3.31515e-01     4.13467e-01
 h34bf                                  1      0.0000       0.00000       A     2.62500e-01     6.73765e-02
 c35bf                                  6      0.0000       0.00000       A     3.31503e-01     4.12455e-01
 h36bf                                  1      0.0000       0.00000       A     2.62472e-01     6.74738e-02
 o37bf                                  8      0.0000       0.00000       A     3.04358e-01     6.10575e-01
 c38bf                                  6      0.0000       0.00000       A     3.39798e-01     4.50250e-01
 h39bf                                  1      0.0000       0.00000       A     2.59893e-01     8.82802e-02
 h40bf                                  1      0.0000       0.00000       A     2.59893e-01     8.82802e-02
 h41bf                                  1      0.0000       0.00000       A     2.59893e-01     8.82802e-02
 c42bf                                  6      0.0000       0.00000       A     3.39798e-01     4.50250e-01
 h43bf                                  1      0.0000       0.00000       A     2.59893e-01     8.82802e-02
 h44bf                                  1      0.0000       0.00000       A     2.59893e-01     8.82802e-02
 h45bf                                  1      0.0000       0.00000       A     2.59893e-01     8.82802e-02
 c46bf                                  6      0.0000       0.00000       A     3.39861e-01     4.48456e-01
 f47bf                                  9      0.0000       0.00000       A     3.03451e-01     3.47961e-01
 f48bf                                  9      0.0000       0.00000       A     3.03451e-01     3.47961e-01
 f49bf                                  9      0.0000       0.00000       A     3.03451e-01     3.47961e-01

[ moleculetype ]
;name             nrexcl
 24                    3

[ atoms ]
;       nr            type      resi   res      atom      cgnr      charge          mass ; qtot
         1            c0bf         1   UNL        c0         1    -0.05300       12.0110 ; qtot   -0.053
         2            c1bf         1   UNL        c1         2    -0.06658       12.0110 ; qtot   -0.120
         3            h2bf         1   UNL        h2         3     0.11821        1.0080 ; qtot   -0.001
         4            c3bf         1   UNL        c3         4    -0.13502       12.0110 ; qtot   -0.136
         5            h4bf         1   UNL        h4         5     0.13342        1.0080 ; qtot   -0.003
         6            c5bf         1   UNL        c5         6     0.17007       12.0110 ; qtot    0.167
         7            c6bf         1   UNL        c6         7    -0.18112       12.0110 ; qtot   -0.014
         8            c7bf         1   UNL        c7         8    -0.04483       12.0110 ; qtot   -0.059
         9            h8bf         1   UNL        h8         9     0.12822        1.0080 ; qtot    0.069
        10            o9bf         1   UNL        o9        10    -0.35834       15.9990 ; qtot   -0.289
        11           c10bf         1   UNL       c10        11     0.18141       12.0110 ; qtot   -0.108
        12           c11bf         1   UNL       c11        12    -0.08115       12.0110 ; qtot   -0.189
        13           h12bf         1   UNL       h12        13     0.08348        1.0080 ; qtot   -0.105
        14           h13bf         1   UNL       h13        14     0.08348        1.0080 ; qtot   -0.022
        15           c14bf         1   UNL       c14        15     0.10827       12.0110 ; qtot    0.087
        16           c15bf         1   UNL       c15        16     0.55024       12.0110 ; qtot    0.637
        17           n16bf         1   UNL       n16        17    -0.64651       14.0070 ; qtot   -0.010
        18           c17bf         1   UNL       c17        18     0.99722       12.0110 ; qtot    0.987
        19           n18bf         1   UNL       n18        19    -0.63159       14.0070 ; qtot    0.356
        20           h19bf         1   UNL       h19        20     0.41427        1.0080 ; qtot    0.770
        21           c20bf         1   UNL       c20        21    -0.03235       12.0110 ; qtot    0.738
        22           c21bf         1   UNL       c21        22     0.07086       12.0110 ; qtot    0.809
        23           h22bf         1   UNL       h22        23     0.09037        1.0080 ; qtot    0.899
        24           h23bf         1   UNL       h23        24     0.09037        1.0080 ; qtot    0.989
        25           h24bf         1   UNL       h24        25     0.09037        1.0080 ; qtot    1.080
        26           n25bf         1   UNL       n25        26    -0.57853       14.0070 ; qtot    0.501
        27           h26bf         1   UNL       h26        27     0.38249        1.0080 ; qtot    0.884
        28           h27bf         1   UNL       h27        28     0.38249        1.0080 ; qtot    1.266
        29           c28bf         1   UNL       c28        29    -0.04712       12.0110 ; qtot    1.219
        30           h29bf         1   UNL       h29        30     0.13318        1.0080 ; qtot    1.352
        31           c30bf         1   UNL       c30        31    -0.18729       12.0110 ; qtot    1.165
        32           c31bf         1   UNL       c31        32    -0.05326       12.0110 ; qtot    1.112
        33           h32bf         1   UNL       h32        33     0.13304        1.0080 ; qtot    1.245
        34           c33bf         1   UNL       c33        34    -0.11489       12.0110 ; qtot    1.130
        35           h34bf         1   UNL       h34        35     0.12305        1.0080 ; qtot    1.253
        36           c35bf         1   UNL       c35        36    -0.09054       12.0110 ; qtot    1.162
        37           h36bf         1   UNL       h36        37     0.11611        1.0080 ; qtot    1.279
        38           o37bf         1   UNL       o37        38    -0.39811       15.9990 ; qtot    0.880
        39           c38bf         1   UNL       c38        39    -0.10005       12.0110 ; qtot    0.780
        40           h39bf         1   UNL       h39        40     0.04877        1.0080 ; qtot    0.829
        41           h40bf         1   UNL       h40        41     0.04877        1.0080 ; qtot    0.878
        42           h41bf         1   UNL       h41        42     0.04877        1.0080 ; qtot    0.927
        43           c42bf         1   UNL       c42        43    -0.10005       12.0110 ; qtot    0.827
        44           h43bf         1   UNL       h43        44     0.04877        1.0080 ; qtot    0.875
        45           h44bf         1   UNL       h44        45     0.04877        1.0080 ; qtot    0.924
        46           h45bf         1   UNL       h45        46     0.04877        1.0080 ; qtot    0.973
        47           c46bf         1   UNL       c46        47     0.33892       12.0110 ; qtot    1.312
        48           f47bf         1   UNL       f47        48    -0.10395       18.9980 ; qtot    1.208
        49           f48bf         1   UNL       f48        49    -0.10395       18.9980 ; qtot    1.104
        50           f49bf         1   UNL       f49        50    -0.10393       18.9980 ; qtot    1.000

[ bonds ]
;       ai        aj funct               r               k
         1         2     1        0.140744   281323.538672
         1         8     1        0.140040   289140.805371
         1        21     1        0.148171   214375.452734
         2         3     1        0.108592   318492.009717
         2         4     1        0.139082   332814.318750
         4         5     1        0.108562   321104.966748
         4         6     1        0.140026   288678.966748
         6         7     1        0.140470   276536.760742
         6        10     1        0.136436   267339.417578
         7         8     1        0.140023   297895.615967
         7        15     1        0.151265   181133.452710
         8         9     1        0.108506   319358.177393
        10        11     1        0.145731   141482.468188
        11        12     1        0.154147   164699.186426
        11        39     1        0.152988   183033.962695
        11        43     1        0.152988   183033.962695
        12        13     1        0.109298   301656.951270
        12        14     1        0.109298   301656.951270
        12        15     1        0.154171   160537.276025
        15        16     1        0.154381   128485.484058
        15        19     1        0.148548   146191.332397
        16        17     1        0.141843   159362.683911
        16        38     1        0.120598   711921.798633
        17        18     1        0.135797   301738.465723
        17        22     1        0.146668   196952.070361
        18        19     1        0.133090   390989.564893
        18        26     1        0.133332   412686.097314
        19        20     1        0.101348   425202.319824
        21        29     1        0.140534   283999.674512
        21        36     1        0.140639   283493.120410
        22        23     1        0.109031   312124.791162
        22        24     1        0.109031   312124.791162
        22        25     1        0.109031   312124.816699
        26        27     1        0.101316   425666.584473
        26        28     1        0.101316   425666.584473
        29        30     1        0.108481   322090.086279
        29        31     1        0.139690   305562.750000
        31        32     1        0.139926   297978.892480
        31        47     1        0.150543   194347.540576
        32        33     1        0.108501   323915.121338
        32        34     1        0.139743   312101.629004
        34        35     1        0.108591   320946.253613
        34        36     1        0.139645   316074.386035
        36        37     1        0.108592   318362.843018
        39        40     1        0.109316   303222.120703
        39        41     1        0.109316   303222.120703
        39        42     1        0.109316   303222.120703
        43        44     1        0.109316   303222.120703
        43        45     1        0.109316   303222.120703
        43        46     1        0.109316   303222.120703
        47        48     1        0.135836   222124.816260
        47        49     1        0.135836   222124.816260
        47        50     1        0.135836   222124.867334

[ angles ]
;       ai        aj        ak funct           theta             cth
         1         2         3     1      119.620850      429.457058
         1         2         4     1      121.016739      698.420789
         1         8         7     1      121.875290      651.144513
         1         8         9     1      119.003098      421.981037
         1        21        29     1      120.938698      448.408051
         1        21        36     1      120.972641      512.443023
         2         1         8     1      117.574097      625.563032
         2         1        21     1      121.204178      564.722338
         2         4         5     1      121.209946      430.951681
         2         4         6     1      120.149979      734.422814
         3         2         4     1      119.145973      426.572450
         4         6         7     1      119.925880      589.802844
         4         6        10     1      116.437744      551.331380
         5         4         6     1      118.621658      435.820746
         6         7         8     1      118.894142      739.081357
         6         7        15     1      119.745766      586.516281
         6        10        11     1      117.993736      500.028604
         7         6        10     1      123.637672      514.558357
         7         8         9     1      119.072144      422.141729
         7        15        12     1      111.733620      557.947853
         7        15        16     1      112.067848      601.546658
         7        15        19     1      111.488197      598.667668
         8         1        21     1      121.114136      431.758366
         8         7        15     1      121.302391      442.309470
        10        11        12     1      109.078835      556.881551
        10        11        39     1      106.645714      604.086579
        10        11        43     1      106.645714      604.086579
        11        12        13     1      109.154335      466.471374
        11        12        14     1      109.154335      466.471374
        11        12        15     1      113.052734      640.250254
        11        39        40     1      110.474686      475.605615
        11        39        41     1      110.474686      475.605615
        11        39        42     1      110.474686      475.605615
        11        43        44     1      110.474686      475.605615
        11        43        45     1      110.474686      475.605615
        11        43        46     1      110.474686      475.605615
        12        11        39     1      111.385193      575.618575
        12        11        43     1      111.385193      575.618575
        12        15        16     1      110.797043      616.450307
        12        15        19     1      110.620262      611.566526
        13        12        14     1      107.420326      358.221546
        13        12        15     1      108.621048      474.551156
        14        12        15     1      108.621048      474.551156
        15        16        17     1      106.500320      167.360000
        15        16        38     1      127.583961      359.223303
        15        19        18     1      111.587624      619.880132
        15        19        20     1      121.368065      359.917625
        16        15        19     1      100.386848      329.498044
        16        17        18     1      109.401268      854.894893
        16        17        22     1      123.309692      531.050510
        17        16        38     1      124.771469      662.663664
        17        18        19     1      111.171402      582.762773
        17        18        26     1      123.442459      642.331720
        17        22        23     1      109.308334      484.616097
        17        22        24     1      109.308334      484.616097
        17        22        25     1      109.308334      484.616097
        18        17        22     1      126.712746      464.666028
        18        19        20     1      123.566017      425.702688
        18        26        27     1      120.916794      453.685646
        18        26        28     1      120.916794      453.685646
        19        18        26     1      125.735672      609.105387
        21        29        30     1      119.847755      420.323583
        21        29        31     1      120.558998      682.320216
        21        36        34     1      120.869370      707.386293
        21        36        37     1      119.633583      428.499512
        23        22        24     1      109.761864      350.063653
        23        22        25     1      109.761864      350.063653
        24        22        25     1      109.761864      350.063621
        27        26        28     1      117.283279      315.513859
        29        21        36     1      118.239151      639.179675
        29        31        32     1      120.639084      668.336414
        29        31        47     1      119.589211      489.738745
        30        29        31     1      119.484375      418.574003
        31        32        33     1      120.164536      418.243202
        31        32        34     1      119.027893      677.210495
        31        47        48     1      111.981201      592.135084
        31        47        49     1      111.981201      592.135084
        31        47        50     1      111.981201      592.135084
        32        31        47     1      119.599625      530.778348
        32        34        35     1      119.898804      441.405616
        32        34        36     1      120.379250      718.377465
        33        32        34     1      120.638527      421.765855
        34        36        37     1      119.580788      432.458274
        35        34        36     1      119.769455      440.444335
        39        11        43     1      111.043091      610.311568
        40        39        41     1      108.427734      360.868117
        40        39        42     1      108.427734      360.868117
        41        39        42     1      108.427734      360.868117
        44        43        45     1      108.427734      360.868117
        44        43        46     1      108.427734      360.868117
        45        43        46     1      108.427734      360.868117
        48        47        49     1      106.695824      701.579665
        48        47        50     1      106.695824      701.579665
        49        47        50     1      106.695824      701.579665

[ dihedrals ] ; propers for gromacs 4.5 or higher, use funct 9
;       ai        aj        ak        al funct           phase               k        pn
         1         2         4         5     9        0.000000       -0.039152         1
         1         2         4         5     9      180.000000       14.422180         2
         1         2         4         5     9        0.000000       -0.483032         3
         1         2         4         5     9      180.000000        0.156619         4
         1         2         4         6     9        0.000000        0.035135         1
         1         2         4         6     9      180.000000       18.907690         2
         1         2         4         6     9        0.000000       -1.451298         3
         1         2         4         6     9      180.000000       -0.459686         4
         1         8         7         6     9        0.000000        0.012953         1
         1         8         7         6     9      180.000000       18.970142         2
         1         8         7         6     9        0.000000       -1.315149         3
         1         8         7         6     9      180.000000       -0.488691         4
         1         8         7        15     9        0.000000        0.232654         1
         1         8         7        15     9      180.000000       16.402671         2
         1         8         7        15     9        0.000000       -0.080532         3
         1         8         7        15     9      180.000000       -0.360552         4
         1        21        29        30     9        0.000000       -0.093677         1
         1        21        29        30     9      180.000000       13.159668         2
         1        21        29        30     9        0.000000       -0.235763         3
         1        21        29        30     9      180.000000        0.159918         4
         1        21        29        31     9        0.000000        0.340332         1
         1        21        29        31     9      180.000000       17.180597         2
         1        21        29        31     9        0.000000       -0.107018         3
         1        21        29        31     9      180.000000       -0.491023         4
         1        21        36        34     9        0.000000        0.298385         1
         1        21        36        34     9      180.000000       16.273893         2
         1        21        36        34     9        0.000000       -0.113929         3
         1        21        36        34     9      180.000000       -0.296096         4
         1        21        36        37     9        0.000000       -0.065873         1
         1        21        36        37     9      180.000000       13.386108         2
         1        21        36        37     9        0.000000       -0.243772         3
         1        21        36        37     9      180.000000        0.171559         4
         2         1         8         7     9        0.000000       -0.114836         1
         2         1         8         7     9      180.000000       18.439249         2
         2         1         8         7     9        0.000000       -1.767548         3
         2         1         8         7     9      180.000000       -0.439273         4
         2         1         8         9     9        0.000000       -0.074227         1
         2         1         8         9     9      180.000000       14.351428         2
         2         1         8         9     9        0.000000       -0.577825         3
         2         1         8         9     9      180.000000        0.080563         4
         2         1        21        29     9        0.000000        0.042909         1
         2         1        21        29     9      180.000000        3.552861         2
         2         1        21        29     9        0.000000        0.077761         3
         2         1        21        29     9      180.000000        0.005668         4
         2         1        21        36     9        0.000000        0.063126         1
         2         1        21        36     9      180.000000        3.519999         2
         2         1        21        36     9        0.000000        0.073068         3
         2         1        21        36     9      180.000000        0.022906         4
         2         4         6         7     9        0.000000        0.003421         1
         2         4         6         7     9      180.000000       18.393486         2
         2         4         6         7     9        0.000000       -0.952192         3
         2         4         6         7     9      180.000000       -0.528169         4
         2         4         6        10     9        0.000000        0.453909         1
         2         4         6        10     9      180.000000       20.115699         2
         2         4         6        10     9        0.000000        0.712090         3
         2         4         6        10     9      180.000000       -0.566591         4
         3         2         1         8     9        0.000000       -0.139183         1
         3         2         1         8     9      180.000000       13.891475         2
         3         2         1         8     9        0.000000       -0.758885         3
         3         2         1         8     9      180.000000        0.069845         4
         3         2         1        21     9        0.000000       -0.110089         1
         3         2         1        21     9      180.000000       13.149366         2
         3         2         1        21     9        0.000000       -0.271037         3
         3         2         1        21     9      180.000000        0.158979         4
         3         2         4         5     9        0.000000       -0.101728         1
         3         2         4         5     9      180.000000       12.219593         2
         3         2         4         5     9        0.000000       -0.707685         3
         3         2         4         5     9      180.000000        0.368380         4
         3         2         4         6     9        0.000000        0.136480         1
         3         2         4         6     9      180.000000       14.623831         2
         3         2         4         6     9        0.000000       -0.535734         3
         3         2         4         6     9      180.000000        0.133918         4
         4         2         1         8     9        0.000000       -0.186163         1
         4         2         1         8     9      180.000000       18.008762         2
         4         2         1         8     9        0.000000       -1.569495         3
         4         2         1         8     9      180.000000       -0.310406         4
         4         2         1        21     9        0.000000        0.176495         1
         4         2         1        21     9      180.000000       16.147441         2
         4         2         1        21     9        0.000000       -0.260984         3
         4         2         1        21     9      180.000000       -0.311730         4
         4         6         7         8     9        0.000000       -0.099981         1
         4         6         7         8     9      180.000000       15.402617         2
         4         6         7         8     9        0.000000       -0.818311         3
         4         6         7         8     9      180.000000       -0.311874         4
         4         6         7        15     9        0.000000        0.317601         1
         4         6         7        15     9      180.000000       12.594617         2
         4         6         7        15     9        0.000000        0.140950         3
         4         6         7        15     9      180.000000       -0.263644         4
         4         6        10        11     9        0.000000       -0.524440         1
         4         6        10        11     9      180.000000        0.965350         2
         4         6        10        11     9        0.000000        0.127626         3
         4         6        10        11     9      180.000000        0.274670         4
         5         4         6         7     9        0.000000        0.029945         1
         5         4         6         7     9      180.000000       13.435392         2
         5         4         6         7     9        0.000000       -0.361852         3
         5         4         6         7     9      180.000000       -0.014588         4
         5         4         6        10     9        0.000000        0.018714         1
         5         4         6        10     9      180.000000       16.055862         2
         5         4         6        10     9        0.000000        0.173212         3
         5         4         6        10     9      180.000000        0.104013         4
         6         7         8         9     9        0.000000        0.268573         1
         6         7         8         9     9      180.000000       14.612480         2
         6         7         8         9     9        0.000000       -0.273898         3
         6         7         8         9     9      180.000000        0.027503         4
         6         7        15        12     9        0.000000        0.442429         1
         6         7        15        12     9      180.000000       -0.582160         2
         6         7        15        12     9        0.000000        0.566510         3
         6         7        15        12     9      180.000000        0.177976         4
         6         7        15        16     9        0.000000        0.102814         1
         6         7        15        16     9      180.000000       -0.121196         2
         6         7        15        16     9        0.000000       -0.091766         3
         6         7        15        16     9      180.000000        0.098350         4
         6         7        15        19     9        0.000000       -1.211495         1
         6         7        15        19     9      180.000000        1.208789         2
         6         7        15        19     9        0.000000        0.479329         3
         6         7        15        19     9      180.000000       -0.237524         4
         6        10        11        12     9        0.000000        6.552491         1
         6        10        11        12     9      180.000000       -3.144803         2
         6        10        11        12     9        0.000000       -0.417738         3
         6        10        11        12     9      180.000000        0.734854         4
         6        10        11        39     9        0.000000       -0.601019         1
         6        10        11        39     9      180.000000        0.475001         2
         6        10        11        39     9        0.000000        0.451956         3
         6        10        11        39     9      180.000000        0.038632         4
         6        10        11        43     9        0.000000       -0.601019         1
         6        10        11        43     9      180.000000        0.475001         2
         6        10        11        43     9        0.000000        0.451956         3
         6        10        11        43     9      180.000000        0.038632         4
         7         6        10        11     9        0.000000        1.640771         1
         7         6        10        11     9      180.000000        0.065588         2
         7         6        10        11     9        0.000000       -0.117565         3
         7         6        10        11     9      180.000000        0.605195         4
         7         8         1        21     9        0.000000        0.015350         1
         7         8         1        21     9      180.000000       17.037916         2
         7         8         1        21     9        0.000000       -0.283365         3
         7         8         1        21     9      180.000000       -0.488243         4
         7        15        12        11     9        0.000000        1.224939         1
         7        15        12        11     9      180.000000       -1.112698         2
         7        15        12        11     9        0.000000        0.379613         3
         7        15        12        11     9      180.000000        0.212213         4
         7        15        12        13     9        0.000000        0.060303         1
         7        15        12        13     9      180.000000        0.038717         2
         7        15        12        13     9        0.000000        0.531071         3
         7        15        12        13     9      180.000000        0.004443         4
         7        15        12        14     9        0.000000        0.060303         1
         7        15        12        14     9      180.000000        0.038717         2
         7        15        12        14     9        0.000000        0.531071         3
         7        15        12        14     9      180.000000        0.004443         4
         7        15        16        17     9        0.000000        0.204138         1
         7        15        16        17     9      180.000000        2.054007         2
         7        15        16        17     9        0.000000        0.314617         3
         7        15        16        17     9      180.000000        0.636535         4
         7        15        16        38     9        0.000000       -1.028428         1
         7        15        16        38     9      180.000000        1.994956         2
         7        15        16        38     9        0.000000       -0.383168         3
         7        15        16        38     9      180.000000        0.534449         4
         7        15        19        18     9        0.000000        1.475577         1
         7        15        19        18     9      180.000000        0.330887         2
         7        15        19        18     9        0.000000        0.426833         3
         7        15        19        18     9      180.000000        0.176206         4
         7        15        19        20     9        0.000000        1.133225         1
         7        15        19        20     9      180.000000       -0.176846         2
         7        15        19        20     9        0.000000        0.307694         3
         7        15        19        20     9      180.000000        0.155610         4
         8         1        21        29     9        0.000000       -0.074673         1
         8         1        21        29     9      180.000000        3.657925         2
         8         1        21        29     9        0.000000        0.085866         3
         8         1        21        29     9      180.000000       -0.004565         4
         8         1        21        36     9        0.000000       -0.028472         1
         8         1        21        36     9      180.000000        3.631912         2
         8         1        21        36     9        0.000000        0.086767         3
         8         1        21        36     9      180.000000       -0.001712         4
         8         7         6        10     9        0.000000        0.065874         1
         8         7         6        10     9      180.000000       16.858075         2
         8         7         6        10     9        0.000000        0.609920         3
         8         7         6        10     9      180.000000       -0.441368         4
         8         7        15        12     9        0.000000       -0.413872         1
         8         7        15        12     9      180.000000        0.649232         2
         8         7        15        12     9        0.000000       -0.252932         3
         8         7        15        12     9      180.000000        0.237556         4
         8         7        15        16     9        0.000000       -0.864112         1
         8         7        15        16     9      180.000000       -0.269346         2
         8         7        15        16     9        0.000000       -0.294400         3
         8         7        15        16     9      180.000000        0.217114         4
         8         7        15        19     9        0.000000       -0.231744         1
         8         7        15        19     9      180.000000        1.872503         2
         8         7        15        19     9        0.000000       -0.163923         3
         8         7        15        19     9      180.000000       -0.004626         4
         9         8         1        21     9        0.000000       -0.064038         1
         9         8         1        21     9      180.000000       13.158077         2
         9         8         1        21     9        0.000000       -0.185338         3
         9         8         1        21     9      180.000000        0.175172         4
         9         8         7        15     9        0.000000       -0.093180         1
         9         8         7        15     9      180.000000       13.464457         2
         9         8         7        15     9        0.000000       -0.230321         3
         9         8         7        15     9      180.000000        0.078223         4
        10         6         7        15     9        0.000000        0.652877         1
        10         6         7        15     9      180.000000       13.735837         2
        10         6         7        15     9        0.000000        0.969375         3
        10         6         7        15     9      180.000000       -0.661470         4
        10        11        12        13     9        0.000000        0.010187         1
        10        11        12        13     9      180.000000        0.032223         2
        10        11        12        13     9        0.000000        0.118020         3
        10        11        12        13     9      180.000000        0.005280         4
        10        11        12        14     9        0.000000        0.010187         1
        10        11        12        14     9      180.000000        0.032223         2
        10        11        12        14     9        0.000000        0.118020         3
        10        11        12        14     9      180.000000        0.005280         4
        10        11        12        15     9        0.000000        6.398275         1
        10        11        12        15     9      180.000000       -3.171040         2
        10        11        12        15     9        0.000000       -0.812227         3
        10        11        12        15     9      180.000000        0.264324         4
        10        11        39        40     9        0.000000        0.022757         1
        10        11        39        40     9      180.000000       -0.106326         2
        10        11        39        40     9        0.000000        0.371208         3
        10        11        39        40     9      180.000000        0.017378         4
        10        11        39        41     9        0.000000        0.022757         1
        10        11        39        41     9      180.000000       -0.106326         2
        10        11        39        41     9        0.000000        0.371208         3
        10        11        39        41     9      180.000000        0.017378         4
        10        11        39        42     9        0.000000        0.022757         1
        10        11        39        42     9      180.000000       -0.106326         2
        10        11        39        42     9        0.000000        0.371208         3
        10        11        39        42     9      180.000000        0.017378         4
        10        11        43        44     9        0.000000        0.022757         1
        10        11        43        44     9      180.000000       -0.106326         2
        10        11        43        44     9        0.000000        0.371208         3
        10        11        43        44     9      180.000000        0.017378         4
        10        11        43        45     9        0.000000        0.022757         1
        10        11        43        45     9      180.000000       -0.106326         2
        10        11        43        45     9        0.000000        0.371208         3
        10        11        43        45     9      180.000000        0.017378         4
        10        11        43        46     9        0.000000        0.022757         1
        10        11        43        46     9      180.000000       -0.106326         2
        10        11        43        46     9        0.000000        0.371208         3
        10        11        43        46     9      180.000000        0.017378         4
        11        12        15        16     9        0.000000       -0.158489         1
        11        12        15        16     9      180.000000        0.109710         2
        11        12        15        16     9        0.000000        0.008060         3
        11        12        15        16     9      180.000000        0.059205         4
        11        12        15        19     9        0.000000       -1.376753         1
        11        12        15        19     9      180.000000       -0.656378         2
        11        12        15        19     9        0.000000        0.372563         3
        11        12        15        19     9      180.000000        0.291438         4
        12        11        39        40     9        0.000000       -0.089919         1
        12        11        39        40     9      180.000000        0.000423         2
        12        11        39        40     9        0.000000        0.433042         3
        12        11        39        40     9      180.000000        0.019250         4
        12        11        39        41     9        0.000000       -0.089919         1
        12        11        39        41     9      180.000000        0.000423         2
        12        11        39        41     9        0.000000        0.433042         3
        12        11        39        41     9      180.000000        0.019250         4
        12        11        39        42     9        0.000000       -0.089919         1
        12        11        39        42     9      180.000000        0.000423         2
        12        11        39        42     9        0.000000        0.433042         3
        12        11        39        42     9      180.000000        0.019250         4
        12        11        43        44     9        0.000000       -0.089919         1
        12        11        43        44     9      180.000000        0.000423         2
        12        11        43        44     9        0.000000        0.433042         3
        12        11        43        44     9      180.000000        0.019250         4
        12        11        43        45     9        0.000000       -0.089919         1
        12        11        43        45     9      180.000000        0.000423         2
        12        11        43        45     9        0.000000        0.433042         3
        12        11        43        45     9      180.000000        0.019250         4
        12        11        43        46     9        0.000000       -0.089919         1
        12        11        43        46     9      180.000000        0.000423         2
        12        11        43        46     9        0.000000        0.433042         3
        12        11        43        46     9      180.000000        0.019250         4
        12        15        16        17     9        0.000000       -0.141660         1
        12        15        16        17     9      180.000000        3.066579         2
        12        15        16        17     9        0.000000        0.134318         3
        12        15        16        17     9      180.000000        0.386088         4
        12        15        16        38     9        0.000000        1.080605         1
        12        15        16        38     9      180.000000        2.732703         2
        12        15        16        38     9        0.000000       -0.579963         3
        12        15        16        38     9      180.000000        0.528780         4
        12        15        19        18     9        0.000000       -0.582310         1
        12        15        19        18     9      180.000000        0.755302         2
        12        15        19        18     9        0.000000        0.351235         3
        12        15        19        18     9      180.000000        0.157736         4
        12        15        19        20     9        0.000000        0.171427         1
        12        15        19        20     9      180.000000       -0.174988         2
        12        15        19        20     9        0.000000        0.231541         3
        12        15        19        20     9      180.000000       -0.054083         4
        13        12        11        39     9        0.000000       -0.021980         1
        13        12        11        39     9      180.000000       -0.009422         2
        13        12        11        39     9        0.000000        0.356718         3
        13        12        11        39     9      180.000000       -0.000954         4
        13        12        11        43     9        0.000000       -0.021980         1
        13        12        11        43     9      180.000000       -0.009422         2
        13        12        11        43     9        0.000000        0.356718         3
        13        12        11        43     9      180.000000       -0.000954         4
        13        12        15        16     9        0.000000       -0.120531         1
        13        12        15        16     9      180.000000        0.006259         2
        13        12        15        16     9        0.000000        0.249160         3
        13        12        15        16     9      180.000000        0.015556         4
        13        12        15        19     9        0.000000        0.048077         1
        13        12        15        19     9      180.000000        0.031139         2
        13        12        15        19     9        0.000000        0.441342         3
        13        12        15        19     9      180.000000       -0.090829         4
        14        12        11        39     9        0.000000       -0.021980         1
        14        12        11        39     9      180.000000       -0.009422         2
        14        12        11        39     9        0.000000        0.356718         3
        14        12        11        39     9      180.000000       -0.000954         4
        14        12        11        43     9        0.000000       -0.021980         1
        14        12        11        43     9      180.000000       -0.009422         2
        14        12        11        43     9        0.000000        0.356718         3
        14        12        11        43     9      180.000000       -0.000954         4
        14        12        15        16     9        0.000000       -0.120531         1
        14        12        15        16     9      180.000000        0.006259         2
        14        12        15        16     9        0.000000        0.249160         3
        14        12        15        16     9      180.000000        0.015556         4
        14        12        15        19     9        0.000000        0.048077         1
        14        12        15        19     9      180.000000        0.031139         2
        14        12        15        19     9        0.000000        0.441342         3
        14        12        15        19     9      180.000000       -0.090829         4
        15        12        11        39     9        0.000000       -0.491719         1
        15        12        11        39     9      180.000000        0.610387         2
        15        12        11        39     9        0.000000        0.252005         3
        15        12        11        39     9      180.000000       -0.014027         4
        15        12        11        43     9        0.000000       -0.491719         1
        15        12        11        43     9      180.000000        0.610387         2
        15        12        11        43     9        0.000000        0.252005         3
        15        12        11        43     9      180.000000       -0.014027         4
        15        16        17        18     9        0.000000       -2.621426         1
        15        16        17        18     9      180.000000       12.608727         2
        15        16        17        18     9        0.000000       -1.689385         3
        15        16        17        18     9      180.000000       -0.516965         4
        15        16        17        22     9        0.000000       -1.161959         1
        15        16        17        22     9      180.000000        6.523790         2
        15        16        17        22     9        0.000000        0.171203         3
        15        16        17        22     9      180.000000       -0.171941         4
        15        19        18        17     9        0.000000       -1.486140         1
        15        19        18        17     9      180.000000       26.058799         2
        15        19        18        17     9        0.000000       -2.115652         3
        15        19        18        17     9      180.000000       -2.999679         4
        15        19        18        26     9        0.000000        1.704035         1
        15        19        18        26     9      180.000000       19.771991         2
        15        19        18        26     9        0.000000        0.715132         3
        15        19        18        26     9      180.000000       -2.025611         4
        16        15        19        18     9        0.000000       -3.202930         1
        16        15        19        18     9      180.000000        3.675471         2
        16        15        19        18     9        0.000000       -0.128940         3
        16        15        19        18     9      180.000000       -0.635128         4
        16        15        19        20     9        0.000000       -0.882341         1
        16        15        19        20     9      180.000000       -0.826404         2
        16        15        19        20     9        0.000000        0.165262         3
        16        15        19        20     9      180.000000        0.141885         4
        16        17        18        19     9        0.000000       -2.490328         1
        16        17        18        19     9      180.000000       13.834040         2
        16        17        18        19     9        0.000000       -2.378247         3
        16        17        18        19     9      180.000000       -1.280421         4
        16        17        18        26     9        0.000000        1.935113         1
        16        17        18        26     9      180.000000       11.081020         2
        16        17        18        26     9        0.000000       -0.210528         3
        16        17        18        26     9      180.000000       -0.637296         4
        16        17        22        23     9        0.000000       -0.046462         1
        16        17        22        23     9      180.000000       -0.089247         2
        16        17        22        23     9        0.000000       -0.283225         3
        16        17        22        23     9      180.000000        0.030104         4
        16        17        22        24     9        0.000000       -0.046462         1
        16        17        22        24     9      180.000000       -0.089247         2
        16        17        22        24     9        0.000000       -0.283225         3
        16        17        22        24     9      180.000000        0.030104         4
        16        17        22        25     9        0.000000       -0.046462         1
        16        17        22        25     9      180.000000       -0.089247         2
        16        17        22        25     9        0.000000       -0.283225         3
        16        17        22        25     9      180.000000        0.030104         4
        17        16        15        19     9        0.000000        0.490408         1
        17        16        15        19     9      180.000000        7.821340         2
        17        16        15        19     9        0.000000       -0.339097         3
        17        16        15        19     9      180.000000       -0.046198         4
        17        18        19        20     9        0.000000        0.456219         1
        17        18        19        20     9      180.000000       11.615587         2
        17        18        19        20     9        0.000000        0.224486         3
        17        18        19        20     9      180.000000       -0.965494         4
        17        18        26        27     9        0.000000       -0.170243         1
        17        18        26        27     9      180.000000        6.404526         2
        17        18        26        27     9        0.000000        0.524424         3
        17        18        26        27     9      180.000000       -0.541232         4
        17        18        26        28     9        0.000000       -0.170243         1
        17        18        26        28     9      180.000000        6.404526         2
        17        18        26        28     9        0.000000        0.524424         3
        17        18        26        28     9      180.000000       -0.541232         4
        18        17        16        38     9        0.000000        1.168480         1
        18        17        16        38     9      180.000000       20.631698         2
        18        17        16        38     9        0.000000       -0.713106         3
        18        17        16        38     9      180.000000       -0.822735         4
        18        17        22        23     9        0.000000        0.029063         1
        18        17        22        23     9      180.000000        0.021416         2
        18        17        22        23     9        0.000000        0.188894         3
        18        17        22        23     9      180.000000       -0.011671         4
        18        17        22        24     9        0.000000        0.029063         1
        18        17        22        24     9      180.000000        0.021416         2
        18        17        22        24     9        0.000000        0.188894         3
        18        17        22        24     9      180.000000       -0.011671         4
        18        17        22        25     9        0.000000        0.029063         1
        18        17        22        25     9      180.000000        0.021416         2
        18        17        22        25     9        0.000000        0.188894         3
        18        17        22        25     9      180.000000       -0.011671         4
        19        15        16        38     9        0.000000        7.981295         1
        19        15        16        38     9      180.000000        7.024952         2
        19        15        16        38     9        0.000000       -0.163171         3
        19        15        16        38     9      180.000000        0.325120         4
        19        18        17        22     9        0.000000       -3.776014         1
        19        18        17        22     9      180.000000        5.458345         2
        19        18        17        22     9        0.000000       -0.154527         3
        19        18        17        22     9      180.000000        0.081931         4
        19        18        26        27     9        0.000000       -1.696699         1
        19        18        26        27     9      180.000000        6.696569         2
        19        18        26        27     9        0.000000        0.180424         3
        19        18        26        27     9      180.000000       -0.442659         4
        19        18        26        28     9        0.000000       -1.696699         1
        19        18        26        28     9      180.000000        6.696569         2
        19        18        26        28     9        0.000000        0.180424         3
        19        18        26        28     9      180.000000       -0.442659         4
        20        19        18        26     9        0.000000        0.829726         1
        20        19        18        26     9      180.000000        7.727450         2
        20        19        18        26     9        0.000000        0.246606         3
        20        19        18        26     9      180.000000       -0.383134         4
        21        29        31        32     9        0.000000       -0.099585         1
        21        29        31        32     9      180.000000       18.749320         2
        21        29        31        32     9        0.000000       -1.462077         3
        21        29        31        32     9      180.000000       -0.369749         4
        21        29        31        47     9        0.000000        0.173112         1
        21        29        31        47     9      180.000000       15.179723         2
        21        29        31        47     9        0.000000        0.086106         3
        21        29        31        47     9      180.000000       -0.284445         4
        21        36        34        32     9        0.000000       -0.006770         1
        21        36        34        32     9      180.000000       18.750413         2
        21        36        34        32     9        0.000000       -1.454510         3
        21        36        34        32     9      180.000000       -0.323235         4
        21        36        34        35     9        0.000000       -0.059832         1
        21        36        34        35     9      180.000000       14.804188         2
        21        36        34        35     9        0.000000       -0.627959         3
        21        36        34        35     9      180.000000        0.116117         4
        22        17        16        38     9        0.000000       -0.327769         1
        22        17        16        38     9      180.000000        9.752935         2
        22        17        16        38     9        0.000000       -0.183563         3
        22        17        16        38     9      180.000000        0.446364         4
        22        17        18        26     9        0.000000        1.331771         1
        22        17        18        26     9      180.000000        6.631611         2
        22        17        18        26     9        0.000000        0.055652         3
        22        17        18        26     9      180.000000       -0.063283         4
        29        21        36        34     9        0.000000       -0.168958         1
        29        21        36        34     9      180.000000       18.316639         2
        29        21        36        34     9        0.000000       -1.383418         3
        29        21        36        34     9      180.000000       -0.318725         4
        29        21        36        37     9        0.000000       -0.181162         1
        29        21        36        37     9      180.000000       14.618928         2
        29        21        36        37     9        0.000000       -0.629683         3
        29        21        36        37     9      180.000000        0.008040         4
        29        31        32        33     9        0.000000        0.018775         1
        29        31        32        33     9      180.000000       14.187008         2
        29        31        32        33     9        0.000000       -0.606183         3
        29        31        32        33     9      180.000000        0.024661         4
        29        31        32        34     9        0.000000       -0.087578         1
        29        31        32        34     9      180.000000       18.720932         2
        29        31        32        34     9        0.000000       -1.413718         3
        29        31        32        34     9      180.000000       -0.422140         4
        29        31        47        48     9        0.000000       -0.051581         1
        29        31        47        48     9      180.000000        0.133591         2
        29        31        47        48     9        0.000000        0.086088         3
        29        31        47        48     9      180.000000        0.019432         4
        29        31        47        49     9        0.000000       -0.051581         1
        29        31        47        49     9      180.000000        0.133591         2
        29        31        47        49     9        0.000000        0.086088         3
        29        31        47        49     9      180.000000        0.019432         4
        29        31        47        50     9        0.000000       -0.051581         1
        29        31        47        50     9      180.000000        0.133591         2
        29        31        47        50     9        0.000000        0.086088         3
        29        31        47        50     9      180.000000        0.019432         4
        30        29        21        36     9        0.000000       -0.134712         1
        30        29        21        36     9      180.000000       14.148870         2
        30        29        21        36     9        0.000000       -0.650530         3
        30        29        21        36     9      180.000000        0.005293         4
        30        29        31        32     9        0.000000        0.043660         1
        30        29        31        32     9      180.000000       14.322256         2
        30        29        31        32     9        0.000000       -0.674794         3
        30        29        31        32     9      180.000000        0.064623         4
        30        29        31        47     9        0.000000       -0.033557         1
        30        29        31        47     9      180.000000       12.276325         2
        30        29        31        47     9        0.000000       -0.297881         3
        30        29        31        47     9      180.000000        0.134488         4
        31        29        21        36     9        0.000000       -0.011071         1
        31        29        21        36     9      180.000000       18.616198         2
        31        29        21        36     9        0.000000       -1.474839         3
        31        29        21        36     9      180.000000       -0.360992         4
        31        32        34        35     9        0.000000        0.044537         1
        31        32        34        35     9      180.000000       14.936602         2
        31        32        34        35     9        0.000000       -0.660707         3
        31        32        34        35     9      180.000000        0.076676         4
        31        32        34        36     9        0.000000        0.141995         1
        31        32        34        36     9      180.000000       18.714555         2
        31        32        34        36     9        0.000000       -1.546079         3
        31        32        34        36     9      180.000000       -0.421484         4
        32        31        47        48     9        0.000000       -0.021113         1
        32        31        47        48     9      180.000000        0.071250         2
        32        31        47        48     9        0.000000        0.124485         3
        32        31        47        48     9      180.000000        0.015191         4
        32        31        47        49     9        0.000000       -0.021113         1
        32        31        47        49     9      180.000000        0.071250         2
        32        31        47        49     9        0.000000        0.124485         3
        32        31        47        49     9      180.000000        0.015191         4
        32        31        47        50     9        0.000000       -0.021113         1
        32        31        47        50     9      180.000000        0.071250         2
        32        31        47        50     9        0.000000        0.124485         3
        32        31        47        50     9      180.000000        0.015191         4
        32        34        36        37     9        0.000000        0.057477         1
        32        34        36        37     9      180.000000       14.768096         2
        32        34        36        37     9        0.000000       -0.700530         3
        32        34        36        37     9      180.000000        0.161642         4
        33        32        31        47     9        0.000000        0.006426         1
        33        32        31        47     9      180.000000       12.046615         2
        33        32        31        47     9        0.000000       -0.321497         3
        33        32        31        47     9      180.000000        0.129656         4
        33        32        34        35     9        0.000000       -0.140417         1
        33        32        34        35     9      180.000000       11.787873         2
        33        32        34        35     9        0.000000       -0.735197         3
        33        32        34        35     9      180.000000        0.299979         4
        33        32        34        36     9        0.000000        0.047514         1
        33        32        34        36     9      180.000000       14.262088         2
        33        32        34        36     9        0.000000       -0.671199         3
        33        32        34        36     9      180.000000        0.138133         4
        34        32        31        47     9        0.000000        0.011506         1
        34        32        31        47     9      180.000000       15.237886         2
        34        32        31        47     9        0.000000       -0.031557         3
        34        32        31        47     9      180.000000       -0.292666         4
        35        34        36        37     9        0.000000       -0.173805         1
        35        34        36        37     9      180.000000       12.032580         2
        35        34        36        37     9        0.000000       -0.705739         3
        35        34        36        37     9      180.000000        0.330294         4
        39        11        43        44     9        0.000000       -0.082665         1
        39        11        43        44     9      180.000000        0.011908         2
        39        11        43        44     9        0.000000        0.531653         3
        39        11        43        44     9      180.000000        0.044561         4
        39        11        43        45     9        0.000000       -0.082665         1
        39        11        43        45     9      180.000000        0.011908         2
        39        11        43        45     9        0.000000        0.531653         3
        39        11        43        45     9      180.000000        0.044561         4
        39        11        43        46     9        0.000000       -0.082665         1
        39        11        43        46     9      180.000000        0.011908         2
        39        11        43        46     9        0.000000        0.531653         3
        39        11        43        46     9      180.000000        0.044561         4
        40        39        11        43     9        0.000000       -0.082665         1
        40        39        11        43     9      180.000000        0.011908         2
        40        39        11        43     9        0.000000        0.531653         3
        40        39        11        43     9      180.000000        0.044561         4
        41        39        11        43     9        0.000000       -0.082665         1
        41        39        11        43     9      180.000000        0.011908         2
        41        39        11        43     9        0.000000        0.531653         3
        41        39        11        43     9      180.000000        0.044561         4
        42        39        11        43     9        0.000000       -0.082665         1
        42        39        11        43     9      180.000000        0.011908         2
        42        39        11        43     9        0.000000        0.531653         3
        42        39        11        43     9      180.000000        0.044561         4

[ dihedrals ] ; impropers
;       ai        aj        ak        al funct           phase               k        pn
        16        15        17        38     4      180.000000       26.920056         2
        16        17        38        15     4      180.000000       26.920056         2
        16        38        15        17     4      180.000000       26.920056         2
        18        17        19        26     4      180.000000       10.189567         2
        18        19        26        17     4      180.000000       10.189567         2
        18        26        17        19     4      180.000000       10.189567         2

[ pairs ]
;       ai        aj funct
         1         5     1
         1         6     1
         1        15     1
         1        30     1
         1        31     1
         1        34     1
         1        37     1
         2         7     1
         2         9     1
         2        10     1
         2        29     1
         2        36     1
         3         5     1
         3         6     1
         3         8     1
         3        21     1
         4         8     1
         4        11     1
         4        15     1
         4        21     1
         5         7     1
         5        10     1
         6         9     1
         6        12     1
         6        16     1
         6        19     1
         6        39     1
         6        43     1
         7        11     1
         7        13     1
         7        14     1
         7        17     1
         7        18     1
         7        20     1
         7        21     1
         7        38     1
         8        10     1
         8        12     1
         8        16     1
         8        19     1
         8        29     1
         8        36     1
         9        15     1
         9        21     1
        10        13     1
        10        14     1
        10        15     1
        10        40     1
        10        41     1
        10        42     1
        10        44     1
        10        45     1
        10        46     1
        11        16     1
        11        19     1
        12        17     1
        12        18     1
        12        20     1
        12        38     1
        12        40     1
        12        41     1
        12        42     1
        12        44     1
        12        45     1
        12        46     1
        13        16     1
        13        19     1
        13        39     1
        13        43     1
        14        16     1
        14        19     1
        14        39     1
        14        43     1
        15        22     1
        15        26     1
        15        39     1
        15        43     1
        16        20     1
        16        23     1
        16        24     1
        16        25     1
        16        26     1
        17        20     1
        17        27     1
        17        28     1
        18        23     1
        18        24     1
        18        25     1
        18        38     1
        19        22     1
        19        27     1
        19        28     1
        19        38     1
        20        26     1
        21        32     1
        21        35     1
        21        47     1
        22        26     1
        22        38     1
        29        33     1
        29        34     1
        29        37     1
        29        48     1
        29        49     1
        29        50     1
        30        32     1
        30        36     1
        30        47     1
        31        35     1
        31        36     1
        32        37     1
        32        48     1
        32        49     1
        32        50     1
        33        35     1
        33        36     1
        33        47     1
        34        47     1
        35        37     1
        39        44     1
        39        45     1
        39        46     1
        40        43     1
        41        43     1
        42        43     1
