; ITP file created by ByteFF-ML, 2026-03-14 15:31:15.505523

[ atomtypes ]
;name           bonded.type        at.num        mass        charge   ptype           sigma         epsilon
 c0bf                                   6      0.0000       0.00000       A     3.31391e-01     4.11124e-01
 c1bf                                   6      0.0000       0.00000       A     3.31512e-01     4.13146e-01
 h2bf                                   1      0.0000       0.00000       A     2.62490e-01     6.75441e-02
 c3bf                                   6      0.0000       0.00000       A     3.31537e-01     4.11942e-01
 h4bf                                   1      0.0000       0.00000       A     2.62405e-01     6.67253e-02
 c5bf                                   6      0.0000       0.00000       A     3.31279e-01     4.11283e-01
 c6bf                                   6      0.0000       0.00000       A     3.31202e-01     4.12913e-01
 c7bf                                   6      0.0000       0.00000       A     3.31320e-01     4.13166e-01
 h8bf                                   1      0.0000       0.00000       A     2.62558e-01     6.74531e-02
 o9bf                                   8      0.0000       0.00000       A     3.15529e-01     3.02270e-01
 c10bf                                  6      0.0000       0.00000       A     3.39880e-01     4.53386e-01
 c11bf                                  6      0.0000       0.00000       A     3.39567e-01     4.51771e-01
 h12bf                                  1      0.0000       0.00000       A     2.59417e-01     8.63170e-02
 h13bf                                  1      0.0000       0.00000       A     2.59417e-01     8.63170e-02
 c14bf                                  6      0.0000       0.00000       A     3.39917e-01     4.52880e-01
 c15bf                                  6      0.0000       0.00000       A     3.31525e-01     4.13256e-01
 n16bf                                  7      0.0000       0.00000       A     3.18147e-01     7.08350e-01
 c17bf                                  6      0.0000       0.00000       A     3.31173e-01     4.11985e-01
 n18bf                                  7      0.0000       0.00000       A     3.26363e-01     6.55753e-01
 h19bf                                  1      0.0000       0.00000       A     1.10240e-01     4.07109e-02
 c20bf                                  6      0.0000       0.00000       A     3.31432e-01     4.11076e-01
 c21bf                                  6      0.0000       0.00000       A     3.39925e-01     4.53383e-01
 h22bf                                  1      0.0000       0.00000       A     2.42238e-01     8.60936e-02
 h23bf                                  1      0.0000       0.00000       A     2.42238e-01     8.60936e-02
 h24bf                                  1      0.0000       0.00000       A     2.42238e-01     8.60936e-02
 n25bf                                  7      0.0000       0.00000       A     3.36693e-01     4.77150e-01
 h26bf                                  1      0.0000       0.00000       A     1.10539e-01     3.88978e-02
 h27bf                                  1      0.0000       0.00000       A     1.10539e-01     3.88978e-02
 c28bf                                  6      0.0000       0.00000       A     3.31417e-01     4.13494e-01
 h29bf                                  1      0.0000       0.00000       A     2.62469e-01     6.76909e-02
 c30bf                                  6      0.0000       0.00000       A     3.31489e-01     4.13045e-01
 h31bf                                  1      0.0000       0.00000       A     2.62537e-01     6.75903e-02
 c32bf                                  6      0.0000       0.00000       A     3.31480e-01     4.13273e-01
 h33bf                                  1      0.0000       0.00000       A     2.62506e-01     6.74196e-02
 c34bf                                  6      0.0000       0.00000       A     3.31547e-01     4.12726e-01
 h35bf                                  1      0.0000       0.00000       A     2.53625e-01     6.72568e-02
 n36bf                                  7      0.0000       0.00000       A     3.38438e-01     3.92839e-01
 o37bf                                  8      0.0000       0.00000       A     3.04358e-01     6.10575e-01
 c38bf                                  6      0.0000       0.00000       A     3.39798e-01     4.50250e-01
 h39bf                                  1      0.0000       0.00000       A     2.59893e-01     8.82802e-02
 h40bf                                  1      0.0000       0.00000       A     2.59893e-01     8.82802e-02
 h41bf                                  1      0.0000       0.00000       A     2.59893e-01     8.82802e-02
 c42bf                                  6      0.0000       0.00000       A     3.39798e-01     4.50250e-01
 h43bf                                  1      0.0000       0.00000       A     2.59893e-01     8.82802e-02
 h44bf                                  1      0.0000       0.00000       A     2.59893e-01     8.82802e-02
 h45bf                                  1      0.0000       0.00000       A     2.59893e-01     8.82802e-02

[ moleculetype ]
;name             nrexcl
 32                    3

[ atoms ]
;       nr            type      resi   res      atom      cgnr      charge          mass ; qtot
         1            c0bf         1   UNL        c0         1    -0.17094       12.0110 ; qtot   -0.171
         2            c1bf         1   UNL        c1         2    -0.04593       12.0110 ; qtot   -0.217
         3            h2bf         1   UNL        h2         3     0.12585        1.0080 ; qtot   -0.091
         4            c3bf         1   UNL        c3         4    -0.14331       12.0110 ; qtot   -0.234
         5            h4bf         1   UNL        h4         5     0.13444        1.0080 ; qtot   -0.100
         6            c5bf         1   UNL        c5         6     0.17755       12.0110 ; qtot    0.078
         7            c6bf         1   UNL        c6         7    -0.18819       12.0110 ; qtot   -0.111
         8            c7bf         1   UNL        c7         8    -0.01863       12.0110 ; qtot   -0.129
         9            h8bf         1   UNL        h8         9     0.13821        1.0080 ; qtot    0.009
        10            o9bf         1   UNL        o9        10    -0.35834       15.9990 ; qtot   -0.349
        11           c10bf         1   UNL       c10        11     0.18141       12.0110 ; qtot   -0.168
        12           c11bf         1   UNL       c11        12    -0.08115       12.0110 ; qtot   -0.249
        13           h12bf         1   UNL       h12        13     0.08348        1.0080 ; qtot   -0.166
        14           h13bf         1   UNL       h13        14     0.08348        1.0080 ; qtot   -0.082
        15           c14bf         1   UNL       c14        15     0.10875       12.0110 ; qtot    0.027
        16           c15bf         1   UNL       c15        16     0.55024       12.0110 ; qtot    0.577
        17           n16bf         1   UNL       n16        17    -0.64651       14.0070 ; qtot   -0.070
        18           c17bf         1   UNL       c17        18     0.99722       12.0110 ; qtot    0.928
        19           n18bf         1   UNL       n18        19    -0.63159       14.0070 ; qtot    0.296
        20           h19bf         1   UNL       h19        20     0.41427        1.0080 ; qtot    0.710
        21           c20bf         1   UNL       c20        21     0.40516       12.0110 ; qtot    1.115
        22           c21bf         1   UNL       c21        22     0.07086       12.0110 ; qtot    1.186
        23           h22bf         1   UNL       h22        23     0.09037        1.0080 ; qtot    1.277
        24           h23bf         1   UNL       h23        24     0.09037        1.0080 ; qtot    1.367
        25           h24bf         1   UNL       h24        25     0.09037        1.0080 ; qtot    1.457
        26           n25bf         1   UNL       n25        26    -0.57853       14.0070 ; qtot    0.879
        27           h26bf         1   UNL       h26        27     0.38249        1.0080 ; qtot    1.261
        28           h27bf         1   UNL       h27        28     0.38249        1.0080 ; qtot    1.644
        29           c28bf         1   UNL       c28        29    -0.15776       12.0110 ; qtot    1.486
        30           h29bf         1   UNL       h29        30     0.12611        1.0080 ; qtot    1.612
        31           c30bf         1   UNL       c30        31    -0.07441       12.0110 ; qtot    1.538
        32           h31bf         1   UNL       h31        32     0.12176        1.0080 ; qtot    1.660
        33           c32bf         1   UNL       c32        33    -0.16402       12.0110 ; qtot    1.496
        34           h33bf         1   UNL       h33        34     0.12732        1.0080 ; qtot    1.623
        35           c34bf         1   UNL       c34        35     0.33509       12.0110 ; qtot    1.958
        36           h35bf         1   UNL       h35        36     0.02144        1.0080 ; qtot    1.979
        37           n36bf         1   UNL       n36        37    -0.67386       14.0070 ; qtot    1.306
        38           o37bf         1   UNL       o37        38    -0.39811       15.9990 ; qtot    0.907
        39           c38bf         1   UNL       c38        39    -0.10005       12.0110 ; qtot    0.807
        40           h39bf         1   UNL       h39        40     0.04877        1.0080 ; qtot    0.856
        41           h40bf         1   UNL       h40        41     0.04877        1.0080 ; qtot    0.905
        42           h41bf         1   UNL       h41        42     0.04877        1.0080 ; qtot    0.954
        43           c42bf         1   UNL       c42        43    -0.10005       12.0110 ; qtot    0.854
        44           h43bf         1   UNL       h43        44     0.04877        1.0080 ; qtot    0.902
        45           h44bf         1   UNL       h44        45     0.04877        1.0080 ; qtot    0.951
        46           h45bf         1   UNL       h45        46     0.04880        1.0080 ; qtot    1.000

[ bonds ]
;       ai        aj funct               r               k
         1         2     1        0.140790   283401.237891
         1         8     1        0.139997   291940.770654
         1        21     1        0.148416   202889.856885
         2         3     1        0.108495   321547.192871
         2         4     1        0.138949   336626.983643
         4         5     1        0.108550   321478.421436
         4         6     1        0.140073   288048.685352
         6         7     1        0.140534   275582.975244
         6        10     1        0.136436   267339.417578
         7         8     1        0.139832   301834.204346
         7        15     1        0.151258   181288.220361
         8         9     1        0.108422   322205.335254
        10        11     1        0.145731   141482.468188
        11        12     1        0.154147   164699.186426
        11        39     1        0.152988   183033.962695
        11        43     1        0.152988   183033.962695
        12        13     1        0.109298   301656.951270
        12        14     1        0.109298   301656.951270
        12        15     1        0.154171   160537.276025
        15        16     1        0.154381   128485.484058
        15        19     1        0.148548   146191.332397
        16        17     1        0.141843   159362.683911
        16        38     1        0.120598   711921.900781
        17        18     1        0.135797   301738.465723
        17        22     1        0.146668   196952.070361
        18        19     1        0.133090   390989.539355
        18        26     1        0.133332   412686.071777
        19        20     1        0.101348   425202.319824
        21        29     1        0.140821   266674.839844
        21        37     1        0.134847   281885.610449
        22        23     1        0.109031   312124.791162
        22        24     1        0.109031   312124.791162
        22        25     1        0.109031   312124.816699
        26        27     1        0.101316   425666.584473
        26        28     1        0.101316   425666.584473
        29        30     1        0.108401   324013.362598
        29        31     1        0.139417   324646.172168
        31        32     1        0.108642   320438.626953
        31        33     1        0.139789   310993.267383
        33        34     1        0.108539   323578.823145
        33        35     1        0.139821   294307.958545
        35        36     1        0.108854   313673.693457
        35        37     1        0.133638   325951.450439
        39        40     1        0.109316   303222.120703
        39        41     1        0.109316   303222.120703
        39        42     1        0.109316   303222.120703
        43        44     1        0.109316   303222.120703
        43        45     1        0.109316   303222.120703
        43        46     1        0.109316   303222.120703

[ angles ]
;       ai        aj        ak funct           theta             cth
         1         2         3     1      119.507797      423.577649
         1         2         4     1      120.846886      682.433984
         1         8         7     1      121.704979      635.631612
         1         8         9     1      118.743149      417.416662
         1        21        29     1      122.094704      531.267448
         1        21        37     1      116.573532      534.045566
         2         1         8     1      117.929161      623.437068
         2         1        21     1      121.165245      577.483742
         2         4         5     1      121.253113      432.219343
         2         4         6     1      120.101669      735.943229
         3         2         4     1      119.513527      412.971641
         4         6         7     1      120.060448      585.215740
         4         6        10     1      116.346214      552.391808
         5         4         6     1      118.597900      438.359039
         6         7         8     1      118.828629      741.818169
         6         7        15     1      119.746399      586.690572
         6        10        11     1      117.993736      500.028604
         7         6        10     1      123.618919      519.036896
         7         8         9     1      119.387978      415.260468
         7        15        12     1      111.752441      557.148542
         7        15        16     1      112.072830      599.708752
         7        15        19     1      111.485573      599.040446
         8         1        21     1      120.806923      466.264140
         8         7        15     1      121.348839      438.802554
        10        11        12     1      109.078835      556.881551
        10        11        39     1      106.645714      604.086579
        10        11        43     1      106.645714      604.086579
        11        12        13     1      109.154335      466.471374
        11        12        14     1      109.154335      466.471374
        11        12        15     1      113.052734      640.250254
        11        39        40     1      110.474686      475.605615
        11        39        41     1      110.474686      475.605615
        11        39        42     1      110.474686      475.605615
        11        43        44     1      110.474686      475.605615
        11        43        45     1      110.474686      475.605615
        11        43        46     1      110.474686      475.605615
        12        11        39     1      111.385193      575.618575
        12        11        43     1      111.385193      575.618575
        12        15        16     1      110.797043      616.450307
        12        15        19     1      110.620262      611.566526
        13        12        14     1      107.420326      358.221546
        13        12        15     1      108.621048      474.551156
        14        12        15     1      108.621048      474.551156
        15        16        17     1      106.500320      167.360000
        15        16        38     1      127.583961      359.223303
        15        19        18     1      111.587624      619.880132
        15        19        20     1      121.368065      359.917625
        16        15        19     1      100.386848      329.498044
        16        17        18     1      109.401268      854.894893
        16        17        22     1      123.309692      531.050510
        17        16        38     1      124.771469      662.663728
        17        18        19     1      111.171402      582.762773
        17        18        26     1      123.442459      642.331720
        17        22        23     1      109.308334      484.616097
        17        22        24     1      109.308334      484.616097
        17        22        25     1      109.308334      484.616097
        18        17        22     1      126.712746      464.666028
        18        19        20     1      123.566017      425.702688
        18        26        27     1      120.916794      453.685646
        18        26        28     1      120.916794      453.685646
        19        18        26     1      125.735672      609.105451
        21        29        30     1      120.620201      401.291829
        21        29        31     1      119.392311      747.865484
        21        37        35     1      118.565475      751.276540
        23        22        24     1      109.761864      350.063653
        23        22        25     1      109.761864      350.063653
        24        22        25     1      109.761864      350.063653
        27        26        28     1      117.283279      315.513827
        29        21        37     1      121.401649      623.972901
        29        31        32     1      120.192123      437.364017
        29        31        33     1      119.056870      767.158962
        30        29        31     1      120.194809      435.676684
        31        33        34     1      121.644791      434.489209
        31        33        35     1      117.858658      705.665730
        32        31        33     1      120.792480      442.148937
        33        35        36     1      120.420166      422.836722
        33        35        37     1      123.842651      711.027374
        34        33        35     1      120.513306      444.094865
        36        35        37     1      115.906532      392.872084
        39        11        43     1      111.043091      610.311568
        40        39        41     1      108.427734      360.868117
        40        39        42     1      108.427734      360.868117
        41        39        42     1      108.427734      360.868117
        44        43        45     1      108.427734      360.868117
        44        43        46     1      108.427734      360.868117
        45        43        46     1      108.427734      360.868117

[ dihedrals ] ; propers for gromacs 4.5 or higher, use funct 9
;       ai        aj        ak        al funct           phase               k        pn
         1         2         4         5     9        0.000000       -0.002641         1
         1         2         4         5     9      180.000000       14.517450         2
         1         2         4         5     9        0.000000       -0.467982         3
         1         2         4         5     9      180.000000        0.148906         4
         1         2         4         6     9        0.000000       -0.007534         1
         1         2         4         6     9      180.000000       19.309075         2
         1         2         4         6     9        0.000000       -1.507070         3
         1         2         4         6     9      180.000000       -0.568476         4
         1         8         7         6     9        0.000000        0.002954         1
         1         8         7         6     9      180.000000       18.905152         2
         1         8         7         6     9        0.000000       -1.438474         3
         1         8         7         6     9      180.000000       -0.476980         4
         1         8         7        15     9        0.000000        0.299687         1
         1         8         7        15     9      180.000000       16.655651         2
         1         8         7        15     9        0.000000       -0.162679         3
         1         8         7        15     9      180.000000       -0.422695         4
         1        21        29        30     9        0.000000       -0.043873         1
         1        21        29        30     9      180.000000       12.598287         2
         1        21        29        30     9        0.000000       -0.173126         3
         1        21        29        30     9      180.000000        0.035865         4
         1        21        29        31     9        0.000000        0.325159         1
         1        21        29        31     9      180.000000       15.145751         2
         1        21        29        31     9        0.000000        0.046348         3
         1        21        29        31     9      180.000000       -0.424788         4
         1        21        37        35     9        0.000000        0.735128         1
         1        21        37        35     9      180.000000       22.705990         2
         1        21        37        35     9        0.000000        0.969214         3
         1        21        37        35     9      180.000000       -0.949330         4
         2         1         8         7     9        0.000000       -0.102717         1
         2         1         8         7     9      180.000000       18.031541         2
         2         1         8         7     9        0.000000       -1.689220         3
         2         1         8         7     9      180.000000       -0.394073         4
         2         1         8         9     9        0.000000        0.020615         1
         2         1         8         9     9      180.000000       14.415539         2
         2         1         8         9     9        0.000000       -0.538002         3
         2         1         8         9     9      180.000000        0.082385         4
         2         1        21        29     9        0.000000       -0.110712         1
         2         1        21        29     9      180.000000        3.962104         2
         2         1        21        29     9        0.000000        0.165588         3
         2         1        21        29     9      180.000000       -0.100620         4
         2         1        21        37     9        0.000000        0.109788         1
         2         1        21        37     9      180.000000        4.086702         2
         2         1        21        37     9        0.000000        0.114443         3
         2         1        21        37     9      180.000000        0.018973         4
         2         4         6         7     9        0.000000       -0.004771         1
         2         4         6         7     9      180.000000       18.199639         2
         2         4         6         7     9        0.000000       -0.925989         3
         2         4         6         7     9      180.000000       -0.530354         4
         2         4         6        10     9        0.000000        0.468219         1
         2         4         6        10     9      180.000000       19.981533         2
         2         4         6        10     9        0.000000        0.719737         3
         2         4         6        10     9      180.000000       -0.553854         4
         3         2         1         8     9        0.000000       -0.062234         1
         3         2         1         8     9      180.000000       13.680576         2
         3         2         1         8     9        0.000000       -0.748966         3
         3         2         1         8     9      180.000000        0.127112         4
         3         2         1        21     9        0.000000       -0.100253         1
         3         2         1        21     9      180.000000       12.404057         2
         3         2         1        21     9        0.000000       -0.312740         3
         3         2         1        21     9      180.000000        0.137898         4
         3         2         4         5     9        0.000000       -0.099565         1
         3         2         4         5     9      180.000000       12.263695         2
         3         2         4         5     9        0.000000       -0.748233         3
         3         2         4         5     9      180.000000        0.385526         4
         3         2         4         6     9        0.000000        0.133094         1
         3         2         4         6     9      180.000000       14.636939         2
         3         2         4         6     9        0.000000       -0.499828         3
         3         2         4         6     9      180.000000        0.153147         4
         4         2         1         8     9        0.000000       -0.137566         1
         4         2         1         8     9      180.000000       17.934181         2
         4         2         1         8     9        0.000000       -1.494291         3
         4         2         1         8     9      180.000000       -0.324182         4
         4         2         1        21     9        0.000000        0.013340         1
         4         2         1        21     9      180.000000       15.017001         2
         4         2         1        21     9        0.000000       -0.357758         3
         4         2         1        21     9      180.000000       -0.192360         4
         4         6         7         8     9        0.000000       -0.085045         1
         4         6         7         8     9      180.000000       15.223686         2
         4         6         7         8     9        0.000000       -0.701398         3
         4         6         7         8     9      180.000000       -0.310059         4
         4         6         7        15     9        0.000000        0.310574         1
         4         6         7        15     9      180.000000       12.521153         2
         4         6         7        15     9        0.000000        0.129841         3
         4         6         7        15     9      180.000000       -0.255905         4
         4         6        10        11     9        0.000000       -0.514576         1
         4         6        10        11     9      180.000000        1.148284         2
         4         6        10        11     9        0.000000        0.141397         3
         4         6        10        11     9      180.000000        0.264700         4
         5         4         6         7     9        0.000000        0.007470         1
         5         4         6         7     9      180.000000       13.324846         2
         5         4         6         7     9        0.000000       -0.383278         3
         5         4         6         7     9      180.000000       -0.008571         4
         5         4         6        10     9        0.000000        0.001278         1
         5         4         6        10     9      180.000000       15.982454         2
         5         4         6        10     9        0.000000        0.147987         3
         5         4         6        10     9      180.000000        0.107080         4
         6         7         8         9     9        0.000000        0.249692         1
         6         7         8         9     9      180.000000       14.647004         2
         6         7         8         9     9        0.000000       -0.320416         3
         6         7         8         9     9      180.000000        0.021936         4
         6         7        15        12     9        0.000000        0.490572         1
         6         7        15        12     9      180.000000       -0.602133         2
         6         7        15        12     9        0.000000        0.568854         3
         6         7        15        12     9      180.000000        0.183582         4
         6         7        15        16     9        0.000000        0.159418         1
         6         7        15        16     9      180.000000       -0.133295         2
         6         7        15        16     9        0.000000       -0.098507         3
         6         7        15        16     9      180.000000        0.094704         4
         6         7        15        19     9        0.000000       -1.167058         1
         6         7        15        19     9      180.000000        1.108102         2
         6         7        15        19     9        0.000000        0.479134         3
         6         7        15        19     9      180.000000       -0.213987         4
         6        10        11        12     9        0.000000        6.552491         1
         6        10        11        12     9      180.000000       -3.144803         2
         6        10        11        12     9        0.000000       -0.417738         3
         6        10        11        12     9      180.000000        0.734854         4
         6        10        11        39     9        0.000000       -0.601019         1
         6        10        11        39     9      180.000000        0.475001         2
         6        10        11        39     9        0.000000        0.451956         3
         6        10        11        39     9      180.000000        0.038632         4
         6        10        11        43     9        0.000000       -0.601019         1
         6        10        11        43     9      180.000000        0.475001         2
         6        10        11        43     9        0.000000        0.451956         3
         6        10        11        43     9      180.000000        0.038632         4
         7         6        10        11     9        0.000000        1.648198         1
         7         6        10        11     9      180.000000        0.115713         2
         7         6        10        11     9        0.000000       -0.115567         3
         7         6        10        11     9      180.000000        0.596552         4
         7         8         1        21     9        0.000000       -0.143178         1
         7         8         1        21     9      180.000000       15.970658         2
         7         8         1        21     9        0.000000       -0.471967         3
         7         8         1        21     9      180.000000       -0.354095         4
         7        15        12        11     9        0.000000        1.298953         1
         7        15        12        11     9      180.000000       -1.120179         2
         7        15        12        11     9        0.000000        0.364350         3
         7        15        12        11     9      180.000000        0.207568         4
         7        15        12        13     9        0.000000        0.062263         1
         7        15        12        13     9      180.000000        0.039284         2
         7        15        12        13     9        0.000000        0.531384         3
         7        15        12        13     9      180.000000        0.005595         4
         7        15        12        14     9        0.000000        0.062263         1
         7        15        12        14     9      180.000000        0.039284         2
         7        15        12        14     9        0.000000        0.531384         3
         7        15        12        14     9      180.000000        0.005595         4
         7        15        16        17     9        0.000000        0.224304         1
         7        15        16        17     9      180.000000        2.002644         2
         7        15        16        17     9        0.000000        0.305958         3
         7        15        16        17     9      180.000000        0.644990         4
         7        15        16        38     9        0.000000       -1.099923         1
         7        15        16        38     9      180.000000        1.961436         2
         7        15        16        38     9        0.000000       -0.385364         3
         7        15        16        38     9      180.000000        0.543802         4
         7        15        19        18     9        0.000000        1.501384         1
         7        15        19        18     9      180.000000        0.313742         2
         7        15        19        18     9        0.000000        0.424837         3
         7        15        19        18     9      180.000000        0.170146         4
         7        15        19        20     9        0.000000        1.074932         1
         7        15        19        20     9      180.000000       -0.180142         2
         7        15        19        20     9        0.000000        0.296998         3
         7        15        19        20     9      180.000000        0.163805         4
         8         1        21        29     9        0.000000       -0.379490         1
         8         1        21        29     9      180.000000        4.066096         2
         8         1        21        29     9        0.000000        0.131774         3
         8         1        21        29     9      180.000000       -0.125166         4
         8         1        21        37     9        0.000000        0.455297         1
         8         1        21        37     9      180.000000        4.106279         2
         8         1        21        37     9        0.000000        0.067756         3
         8         1        21        37     9      180.000000        0.051428         4
         8         7         6        10     9        0.000000        0.091104         1
         8         7         6        10     9      180.000000       16.944177         2
         8         7         6        10     9        0.000000        0.610713         3
         8         7         6        10     9      180.000000       -0.444769         4
         8         7        15        12     9        0.000000       -0.479133         1
         8         7        15        12     9      180.000000        0.657830         2
         8         7        15        12     9        0.000000       -0.241725         3
         8         7        15        12     9      180.000000        0.235249         4
         8         7        15        16     9        0.000000       -0.780585         1
         8         7        15        16     9      180.000000       -0.338213         2
         8         7        15        16     9        0.000000       -0.295404         3
         8         7        15        16     9      180.000000        0.225379         4
         8         7        15        19     9        0.000000       -0.363236         1
         8         7        15        19     9      180.000000        1.940221         2
         8         7        15        19     9        0.000000       -0.202540         3
         8         7        15        19     9      180.000000       -0.012630         4
         9         8         1        21     9        0.000000       -0.035826         1
         9         8         1        21     9      180.000000       12.661099         2
         9         8         1        21     9        0.000000       -0.171712         3
         9         8         1        21     9      180.000000        0.129167         4
         9         8         7        15     9        0.000000       -0.083778         1
         9         8         7        15     9      180.000000       13.418626         2
         9         8         7        15     9        0.000000       -0.268027         3
         9         8         7        15     9      180.000000        0.091183         4
        10         6         7        15     9        0.000000        0.647070         1
        10         6         7        15     9      180.000000       13.566491         2
        10         6         7        15     9        0.000000        0.963837         3
        10         6         7        15     9      180.000000       -0.649228         4
        10        11        12        13     9        0.000000        0.010187         1
        10        11        12        13     9      180.000000        0.032223         2
        10        11        12        13     9        0.000000        0.118020         3
        10        11        12        13     9      180.000000        0.005280         4
        10        11        12        14     9        0.000000        0.010187         1
        10        11        12        14     9      180.000000        0.032223         2
        10        11        12        14     9        0.000000        0.118020         3
        10        11        12        14     9      180.000000        0.005280         4
        10        11        12        15     9        0.000000        6.398275         1
        10        11        12        15     9      180.000000       -3.171040         2
        10        11        12        15     9        0.000000       -0.812227         3
        10        11        12        15     9      180.000000        0.264324         4
        10        11        39        40     9        0.000000        0.022757         1
        10        11        39        40     9      180.000000       -0.106326         2
        10        11        39        40     9        0.000000        0.371208         3
        10        11        39        40     9      180.000000        0.017378         4
        10        11        39        41     9        0.000000        0.022757         1
        10        11        39        41     9      180.000000       -0.106326         2
        10        11        39        41     9        0.000000        0.371208         3
        10        11        39        41     9      180.000000        0.017378         4
        10        11        39        42     9        0.000000        0.022757         1
        10        11        39        42     9      180.000000       -0.106326         2
        10        11        39        42     9        0.000000        0.371208         3
        10        11        39        42     9      180.000000        0.017378         4
        10        11        43        44     9        0.000000        0.022757         1
        10        11        43        44     9      180.000000       -0.106326         2
        10        11        43        44     9        0.000000        0.371208         3
        10        11        43        44     9      180.000000        0.017378         4
        10        11        43        45     9        0.000000        0.022757         1
        10        11        43        45     9      180.000000       -0.106326         2
        10        11        43        45     9        0.000000        0.371208         3
        10        11        43        45     9      180.000000        0.017378         4
        10        11        43        46     9        0.000000        0.022757         1
        10        11        43        46     9      180.000000       -0.106326         2
        10        11        43        46     9        0.000000        0.371208         3
        10        11        43        46     9      180.000000        0.017378         4
        11        12        15        16     9        0.000000       -0.158489         1
        11        12        15        16     9      180.000000        0.109710         2
        11        12        15        16     9        0.000000        0.008060         3
        11        12        15        16     9      180.000000        0.059205         4
        11        12        15        19     9        0.000000       -1.376753         1
        11        12        15        19     9      180.000000       -0.656378         2
        11        12        15        19     9        0.000000        0.372563         3
        11        12        15        19     9      180.000000        0.291438         4
        12        11        39        40     9        0.000000       -0.089919         1
        12        11        39        40     9      180.000000        0.000423         2
        12        11        39        40     9        0.000000        0.433042         3
        12        11        39        40     9      180.000000        0.019250         4
        12        11        39        41     9        0.000000       -0.089919         1
        12        11        39        41     9      180.000000        0.000423         2
        12        11        39        41     9        0.000000        0.433042         3
        12        11        39        41     9      180.000000        0.019250         4
        12        11        39        42     9        0.000000       -0.089919         1
        12        11        39        42     9      180.000000        0.000423         2
        12        11        39        42     9        0.000000        0.433042         3
        12        11        39        42     9      180.000000        0.019250         4
        12        11        43        44     9        0.000000       -0.089919         1
        12        11        43        44     9      180.000000        0.000423         2
        12        11        43        44     9        0.000000        0.433042         3
        12        11        43        44     9      180.000000        0.019250         4
        12        11        43        45     9        0.000000       -0.089919         1
        12        11        43        45     9      180.000000        0.000423         2
        12        11        43        45     9        0.000000        0.433042         3
        12        11        43        45     9      180.000000        0.019250         4
        12        11        43        46     9        0.000000       -0.089919         1
        12        11        43        46     9      180.000000        0.000423         2
        12        11        43        46     9        0.000000        0.433042         3
        12        11        43        46     9      180.000000        0.019250         4
        12        15        16        17     9        0.000000       -0.141660         1
        12        15        16        17     9      180.000000        3.066579         2
        12        15        16        17     9        0.000000        0.134318         3
        12        15        16        17     9      180.000000        0.386088         4
        12        15        16        38     9        0.000000        1.080604         1
        12        15        16        38     9      180.000000        2.732702         2
        12        15        16        38     9        0.000000       -0.579963         3
        12        15        16        38     9      180.000000        0.528779         4
        12        15        19        18     9        0.000000       -0.582310         1
        12        15        19        18     9      180.000000        0.755302         2
        12        15        19        18     9        0.000000        0.351235         3
        12        15        19        18     9      180.000000        0.157736         4
        12        15        19        20     9        0.000000        0.171427         1
        12        15        19        20     9      180.000000       -0.174988         2
        12        15        19        20     9        0.000000        0.231541         3
        12        15        19        20     9      180.000000       -0.054083         4
        13        12        11        39     9        0.000000       -0.021980         1
        13        12        11        39     9      180.000000       -0.009422         2
        13        12        11        39     9        0.000000        0.356718         3
        13        12        11        39     9      180.000000       -0.000954         4
        13        12        11        43     9        0.000000       -0.021980         1
        13        12        11        43     9      180.000000       -0.009422         2
        13        12        11        43     9        0.000000        0.356718         3
        13        12        11        43     9      180.000000       -0.000954         4
        13        12        15        16     9        0.000000       -0.120531         1
        13        12        15        16     9      180.000000        0.006259         2
        13        12        15        16     9        0.000000        0.249160         3
        13        12        15        16     9      180.000000        0.015556         4
        13        12        15        19     9        0.000000        0.048077         1
        13        12        15        19     9      180.000000        0.031139         2
        13        12        15        19     9        0.000000        0.441342         3
        13        12        15        19     9      180.000000       -0.090829         4
        14        12        11        39     9        0.000000       -0.021980         1
        14        12        11        39     9      180.000000       -0.009422         2
        14        12        11        39     9        0.000000        0.356718         3
        14        12        11        39     9      180.000000       -0.000954         4
        14        12        11        43     9        0.000000       -0.021980         1
        14        12        11        43     9      180.000000       -0.009422         2
        14        12        11        43     9        0.000000        0.356718         3
        14        12        11        43     9      180.000000       -0.000954         4
        14        12        15        16     9        0.000000       -0.120531         1
        14        12        15        16     9      180.000000        0.006259         2
        14        12        15        16     9        0.000000        0.249160         3
        14        12        15        16     9      180.000000        0.015556         4
        14        12        15        19     9        0.000000        0.048077         1
        14        12        15        19     9      180.000000        0.031139         2
        14        12        15        19     9        0.000000        0.441342         3
        14        12        15        19     9      180.000000       -0.090829         4
        15        12        11        39     9        0.000000       -0.491719         1
        15        12        11        39     9      180.000000        0.610387         2
        15        12        11        39     9        0.000000        0.252005         3
        15        12        11        39     9      180.000000       -0.014027         4
        15        12        11        43     9        0.000000       -0.491719         1
        15        12        11        43     9      180.000000        0.610387         2
        15        12        11        43     9        0.000000        0.252005         3
        15        12        11        43     9      180.000000       -0.014027         4
        15        16        17        18     9        0.000000       -2.621426         1
        15        16        17        18     9      180.000000       12.608727         2
        15        16        17        18     9        0.000000       -1.689385         3
        15        16        17        18     9      180.000000       -0.516965         4
        15        16        17        22     9        0.000000       -1.161959         1
        15        16        17        22     9      180.000000        6.523790         2
        15        16        17        22     9        0.000000        0.171203         3
        15        16        17        22     9      180.000000       -0.171941         4
        15        19        18        17     9        0.000000       -1.486140         1
        15        19        18        17     9      180.000000       26.058799         2
        15        19        18        17     9        0.000000       -2.115652         3
        15        19        18        17     9      180.000000       -2.999679         4
        15        19        18        26     9        0.000000        1.704033         1
        15        19        18        26     9      180.000000       19.771991         2
        15        19        18        26     9        0.000000        0.715132         3
        15        19        18        26     9      180.000000       -2.025611         4
        16        15        19        18     9        0.000000       -3.202930         1
        16        15        19        18     9      180.000000        3.675471         2
        16        15        19        18     9        0.000000       -0.128940         3
        16        15        19        18     9      180.000000       -0.635128         4
        16        15        19        20     9        0.000000       -0.882341         1
        16        15        19        20     9      180.000000       -0.826404         2
        16        15        19        20     9        0.000000        0.165262         3
        16        15        19        20     9      180.000000        0.141885         4
        16        17        18        19     9        0.000000       -2.490328         1
        16        17        18        19     9      180.000000       13.834040         2
        16        17        18        19     9        0.000000       -2.378247         3
        16        17        18        19     9      180.000000       -1.280421         4
        16        17        18        26     9        0.000000        1.935113         1
        16        17        18        26     9      180.000000       11.081021         2
        16        17        18        26     9        0.000000       -0.210529         3
        16        17        18        26     9      180.000000       -0.637296         4
        16        17        22        23     9        0.000000       -0.046462         1
        16        17        22        23     9      180.000000       -0.089247         2
        16        17        22        23     9        0.000000       -0.283225         3
        16        17        22        23     9      180.000000        0.030104         4
        16        17        22        24     9        0.000000       -0.046462         1
        16        17        22        24     9      180.000000       -0.089247         2
        16        17        22        24     9        0.000000       -0.283225         3
        16        17        22        24     9      180.000000        0.030104         4
        16        17        22        25     9        0.000000       -0.046462         1
        16        17        22        25     9      180.000000       -0.089247         2
        16        17        22        25     9        0.000000       -0.283225         3
        16        17        22        25     9      180.000000        0.030104         4
        17        16        15        19     9        0.000000        0.490408         1
        17        16        15        19     9      180.000000        7.821340         2
        17        16        15        19     9        0.000000       -0.339097         3
        17        16        15        19     9      180.000000       -0.046198         4
        17        18        19        20     9        0.000000        0.456219         1
        17        18        19        20     9      180.000000       11.615587         2
        17        18        19        20     9        0.000000        0.224486         3
        17        18        19        20     9      180.000000       -0.965494         4
        17        18        26        27     9        0.000000       -0.170244         1
        17        18        26        27     9      180.000000        6.404527         2
        17        18        26        27     9        0.000000        0.524424         3
        17        18        26        27     9      180.000000       -0.541232         4
        17        18        26        28     9        0.000000       -0.170244         1
        17        18        26        28     9      180.000000        6.404527         2
        17        18        26        28     9        0.000000        0.524424         3
        17        18        26        28     9      180.000000       -0.541232         4
        18        17        16        38     9        0.000000        1.168478         1
        18        17        16        38     9      180.000000       20.631698         2
        18        17        16        38     9        0.000000       -0.713105         3
        18        17        16        38     9      180.000000       -0.822735         4
        18        17        22        23     9        0.000000        0.029063         1
        18        17        22        23     9      180.000000        0.021416         2
        18        17        22        23     9        0.000000        0.188894         3
        18        17        22        23     9      180.000000       -0.011671         4
        18        17        22        24     9        0.000000        0.029063         1
        18        17        22        24     9      180.000000        0.021416         2
        18        17        22        24     9        0.000000        0.188894         3
        18        17        22        24     9      180.000000       -0.011671         4
        18        17        22        25     9        0.000000        0.029063         1
        18        17        22        25     9      180.000000        0.021417         2
        18        17        22        25     9        0.000000        0.188894         3
        18        17        22        25     9      180.000000       -0.011671         4
        19        15        16        38     9        0.000000        7.981292         1
        19        15        16        38     9      180.000000        7.024952         2
        19        15        16        38     9        0.000000       -0.163171         3
        19        15        16        38     9      180.000000        0.325120         4
        19        18        17        22     9        0.000000       -3.776014         1
        19        18        17        22     9      180.000000        5.458345         2
        19        18        17        22     9        0.000000       -0.154527         3
        19        18        17        22     9      180.000000        0.081931         4
        19        18        26        27     9        0.000000       -1.696700         1
        19        18        26        27     9      180.000000        6.696568         2
        19        18        26        27     9        0.000000        0.180424         3
        19        18        26        27     9      180.000000       -0.442659         4
        19        18        26        28     9        0.000000       -1.696700         1
        19        18        26        28     9      180.000000        6.696568         2
        19        18        26        28     9        0.000000        0.180424         3
        19        18        26        28     9      180.000000       -0.442659         4
        20        19        18        26     9        0.000000        0.829726         1
        20        19        18        26     9      180.000000        7.727449         2
        20        19        18        26     9        0.000000        0.246605         3
        20        19        18        26     9      180.000000       -0.383134         4
        21        29        31        32     9        0.000000        0.019815         1
        21        29        31        32     9      180.000000       14.294554         2
        21        29        31        32     9        0.000000       -0.511612         3
        21        29        31        32     9      180.000000        0.099685         4
        21        29        31        33     9        0.000000        0.007391         1
        21        29        31        33     9      180.000000       18.779763         2
        21        29        31        33     9        0.000000       -1.615147         3
        21        29        31        33     9      180.000000       -0.392757         4
        21        37        35        33     9        0.000000       -0.051988         1
        21        37        35        33     9      180.000000       22.509948         2
        21        37        35        33     9        0.000000       -0.715392         3
        21        37        35        33     9      180.000000       -0.263057         4
        21        37        35        36     9        0.000000        0.816236         1
        21        37        35        36     9      180.000000       20.569908         2
        21        37        35        36     9        0.000000        0.249467         3
        21        37        35        36     9      180.000000       -0.420299         4
        22        17        16        38     9        0.000000       -0.327768         1
        22        17        16        38     9      180.000000        9.752935         2
        22        17        16        38     9        0.000000       -0.183564         3
        22        17        16        38     9      180.000000        0.446364         4
        22        17        18        26     9        0.000000        1.331771         1
        22        17        18        26     9      180.000000        6.631611         2
        22        17        18        26     9        0.000000        0.055652         3
        22        17        18        26     9      180.000000       -0.063283         4
        29        21        37        35     9        0.000000        0.062027         1
        29        21        37        35     9      180.000000       20.777609         2
        29        21        37        35     9        0.000000       -0.174079         3
        29        21        37        35     9      180.000000       -0.085116         4
        29        31        33        34     9        0.000000        0.009563         1
        29        31        33        34     9      180.000000       14.013119         2
        29        31        33        34     9        0.000000       -0.686249         3
        29        31        33        34     9      180.000000        0.137835         4
        29        31        33        35     9        0.000000        0.080523         1
        29        31        33        35     9      180.000000       18.077536         2
        29        31        33        35     9        0.000000       -1.641020         3
        29        31        33        35     9      180.000000       -0.411753         4
        30        29        21        37     9        0.000000       -0.106324         1
        30        29        21        37     9      180.000000       12.013044         2
        30        29        21        37     9        0.000000       -0.354888         3
        30        29        21        37     9      180.000000       -0.111682         4
        30        29        31        32     9        0.000000       -0.191388         1
        30        29        31        32     9      180.000000       11.762255         2
        30        29        31        32     9        0.000000       -0.701568         3
        30        29        31        32     9      180.000000        0.364403         4
        30        29        31        33     9        0.000000        0.029901         1
        30        29        31        33     9      180.000000       14.903513         2
        30        29        31        33     9        0.000000       -0.589898         3
        30        29        31        33     9      180.000000        0.147520         4
        31        29        21        37     9        0.000000       -0.055243         1
        31        29        21        37     9      180.000000       14.970760         2
        31        29        21        37     9        0.000000       -0.591170         3
        31        29        21        37     9      180.000000       -0.341723         4
        31        33        35        36     9        0.000000        0.080608         1
        31        33        35        36     9      180.000000       14.344968         2
        31        33        35        36     9        0.000000       -0.589252         3
        31        33        35        36     9      180.000000        0.095873         4
        31        33        35        37     9        0.000000       -0.096331         1
        31        33        35        37     9      180.000000       18.474826         2
        31        33        35        37     9        0.000000       -0.934750         3
        31        33        35        37     9      180.000000       -0.544862         4
        32        31        33        34     9        0.000000       -0.198564         1
        32        31        33        34     9      180.000000       10.806038         2
        32        31        33        34     9        0.000000       -0.448766         3
        32        31        33        34     9      180.000000        0.246458         4
        32        31        33        35     9        0.000000        0.090326         1
        32        31        33        35     9      180.000000       13.941182         2
        32        31        33        35     9        0.000000       -0.721488         3
        32        31        33        35     9      180.000000        0.181149         4
        34        33        35        36     9        0.000000       -0.084639         1
        34        33        35        36     9      180.000000       11.104602         2
        34        33        35        36     9        0.000000       -0.716685         3
        34        33        35        36     9      180.000000        0.318036         4
        34        33        35        37     9        0.000000       -0.108594         1
        34        33        35        37     9      180.000000       13.176640         2
        34        33        35        37     9        0.000000       -0.403048         3
        34        33        35        37     9      180.000000       -0.084524         4
        39        11        43        44     9        0.000000       -0.082665         1
        39        11        43        44     9      180.000000        0.011908         2
        39        11        43        44     9        0.000000        0.531653         3
        39        11        43        44     9      180.000000        0.044561         4
        39        11        43        45     9        0.000000       -0.082665         1
        39        11        43        45     9      180.000000        0.011908         2
        39        11        43        45     9        0.000000        0.531653         3
        39        11        43        45     9      180.000000        0.044561         4
        39        11        43        46     9        0.000000       -0.082665         1
        39        11        43        46     9      180.000000        0.011908         2
        39        11        43        46     9        0.000000        0.531653         3
        39        11        43        46     9      180.000000        0.044561         4
        40        39        11        43     9        0.000000       -0.082665         1
        40        39        11        43     9      180.000000        0.011908         2
        40        39        11        43     9        0.000000        0.531653         3
        40        39        11        43     9      180.000000        0.044561         4
        41        39        11        43     9        0.000000       -0.082665         1
        41        39        11        43     9      180.000000        0.011908         2
        41        39        11        43     9        0.000000        0.531653         3
        41        39        11        43     9      180.000000        0.044561         4
        42        39        11        43     9        0.000000       -0.082665         1
        42        39        11        43     9      180.000000        0.011908         2
        42        39        11        43     9        0.000000        0.531653         3
        42        39        11        43     9      180.000000        0.044561         4

[ dihedrals ] ; impropers
;       ai        aj        ak        al funct           phase               k        pn
        16        15        17        38     4      180.000000       26.920058         2
        16        17        38        15     4      180.000000       26.920058         2
        16        38        15        17     4      180.000000       26.920058         2
        18        17        19        26     4      180.000000       10.189569         2
        18        19        26        17     4      180.000000       10.189569         2
        18        26        17        19     4      180.000000       10.189569         2
        21         1        29        37     4      180.000000        3.787459         2
        21        29        37         1     4      180.000000        3.787459         2
        21        37         1        29     4      180.000000        3.787459         2
        31        29        32        33     4      180.000000        0.540168         2
        31        32        33        29     4      180.000000        0.540168         2
        31        33        29        32     4      180.000000        0.540168         2
        35        33        36        37     4      180.000000        4.872930         2
        35        36        37        33     4      180.000000        4.872930         2
        35        37        33        36     4      180.000000        4.872930         2

[ pairs ]
;       ai        aj funct
         1         5     1
         1         6     1
         1        15     1
         1        30     1
         1        31     1
         1        35     1
         2         7     1
         2         9     1
         2        10     1
         2        29     1
         2        37     1
         3         5     1
         3         6     1
         3         8     1
         3        21     1
         4         8     1
         4        11     1
         4        15     1
         4        21     1
         5         7     1
         5        10     1
         6         9     1
         6        12     1
         6        16     1
         6        19     1
         6        39     1
         6        43     1
         7        11     1
         7        13     1
         7        14     1
         7        17     1
         7        18     1
         7        20     1
         7        21     1
         7        38     1
         8        10     1
         8        12     1
         8        16     1
         8        19     1
         8        29     1
         8        37     1
         9        15     1
         9        21     1
        10        13     1
        10        14     1
        10        15     1
        10        40     1
        10        41     1
        10        42     1
        10        44     1
        10        45     1
        10        46     1
        11        16     1
        11        19     1
        12        17     1
        12        18     1
        12        20     1
        12        38     1
        12        40     1
        12        41     1
        12        42     1
        12        44     1
        12        45     1
        12        46     1
        13        16     1
        13        19     1
        13        39     1
        13        43     1
        14        16     1
        14        19     1
        14        39     1
        14        43     1
        15        22     1
        15        26     1
        15        39     1
        15        43     1
        16        20     1
        16        23     1
        16        24     1
        16        25     1
        16        26     1
        17        20     1
        17        27     1
        17        28     1
        18        23     1
        18        24     1
        18        25     1
        18        38     1
        19        22     1
        19        27     1
        19        28     1
        19        38     1
        20        26     1
        21        32     1
        21        33     1
        21        36     1
        22        26     1
        22        38     1
        29        34     1
        29        35     1
        30        32     1
        30        33     1
        30        37     1
        31        36     1
        31        37     1
        32        34     1
        32        35     1
        34        36     1
        34        37     1
        39        44     1
        39        45     1
        39        46     1
        40        43     1
        41        43     1
        42        43     1
