; ITP file created by ByteFF-ML, 2026-03-14 15:31:59.597038

[ atomtypes ]
;name           bonded.type        at.num        mass        charge   ptype           sigma         epsilon
 c0bf                                   6      0.0000       0.00000       A     3.31439e-01     4.10522e-01
 c1bf                                   6      0.0000       0.00000       A     3.31568e-01     4.13143e-01
 h2bf                                   1      0.0000       0.00000       A     2.62485e-01     6.75153e-02
 c3bf                                   6      0.0000       0.00000       A     3.31523e-01     4.12056e-01
 h4bf                                   1      0.0000       0.00000       A     2.62405e-01     6.67253e-02
 c5bf                                   6      0.0000       0.00000       A     3.31279e-01     4.11283e-01
 c6bf                                   6      0.0000       0.00000       A     3.31150e-01     4.13198e-01
 c7bf                                   6      0.0000       0.00000       A     3.31448e-01     4.13506e-01
 h8bf                                   1      0.0000       0.00000       A     2.62592e-01     6.73030e-02
 o9bf                                   8      0.0000       0.00000       A     3.15529e-01     3.02270e-01
 c10bf                                  6      0.0000       0.00000       A     3.39880e-01     4.53386e-01
 c11bf                                  6      0.0000       0.00000       A     3.39567e-01     4.51771e-01
 h12bf                                  1      0.0000       0.00000       A     2.59417e-01     8.63170e-02
 h13bf                                  1      0.0000       0.00000       A     2.59417e-01     8.63170e-02
 c14bf                                  6      0.0000       0.00000       A     3.39917e-01     4.52880e-01
 c15bf                                  6      0.0000       0.00000       A     3.31525e-01     4.13256e-01
 n16bf                                  7      0.0000       0.00000       A     3.18147e-01     7.08350e-01
 c17bf                                  6      0.0000       0.00000       A     3.31173e-01     4.11985e-01
 n18bf                                  7      0.0000       0.00000       A     3.26363e-01     6.55753e-01
 h19bf                                  1      0.0000       0.00000       A     1.10240e-01     4.07109e-02
 c20bf                                  6      0.0000       0.00000       A     3.31326e-01     4.13532e-01
 c21bf                                  6      0.0000       0.00000       A     3.39925e-01     4.53383e-01
 h22bf                                  1      0.0000       0.00000       A     2.42238e-01     8.60936e-02
 h23bf                                  1      0.0000       0.00000       A     2.42238e-01     8.60936e-02
 h24bf                                  1      0.0000       0.00000       A     2.42238e-01     8.60936e-02
 n25bf                                  7      0.0000       0.00000       A     3.36693e-01     4.77150e-01
 h26bf                                  1      0.0000       0.00000       A     1.10539e-01     3.88978e-02
 h27bf                                  1      0.0000       0.00000       A     1.10539e-01     3.88978e-02
 c28bf                                  6      0.0000       0.00000       A     3.31473e-01     4.13347e-01
 h29bf                                  1      0.0000       0.00000       A     2.62571e-01     6.76590e-02
 c30bf                                  6      0.0000       0.00000       A     3.31459e-01     4.12905e-01
 h31bf                                  1      0.0000       0.00000       A     2.53698e-01     6.71259e-02
 n32bf                                  7      0.0000       0.00000       A     3.38336e-01     3.92922e-01
 c33bf                                  6      0.0000       0.00000       A     3.31459e-01     4.12905e-01
 h34bf                                  1      0.0000       0.00000       A     2.53698e-01     6.71259e-02
 c35bf                                  6      0.0000       0.00000       A     3.31473e-01     4.13347e-01
 h36bf                                  1      0.0000       0.00000       A     2.62571e-01     6.76590e-02
 o37bf                                  8      0.0000       0.00000       A     3.04358e-01     6.10575e-01
 c38bf                                  6      0.0000       0.00000       A     3.39798e-01     4.50250e-01
 h39bf                                  1      0.0000       0.00000       A     2.59893e-01     8.82802e-02
 h40bf                                  1      0.0000       0.00000       A     2.59893e-01     8.82802e-02
 h41bf                                  1      0.0000       0.00000       A     2.59893e-01     8.82802e-02
 c42bf                                  6      0.0000       0.00000       A     3.39798e-01     4.50250e-01
 h43bf                                  1      0.0000       0.00000       A     2.59893e-01     8.82802e-02
 h44bf                                  1      0.0000       0.00000       A     2.59893e-01     8.82802e-02
 h45bf                                  1      0.0000       0.00000       A     2.59893e-01     8.82802e-02

[ moleculetype ]
;name             nrexcl
 33                    3

[ atoms ]
;       nr            type      resi   res      atom      cgnr      charge          mass ; qtot
         1            c0bf         1   UNL        c0         1    -0.06306       12.0110 ; qtot   -0.063
         2            c1bf         1   UNL        c1         2    -0.05918       12.0110 ; qtot   -0.122
         3            h2bf         1   UNL        h2         3     0.11821        1.0080 ; qtot   -0.004
         4            c3bf         1   UNL        c3         4    -0.13502       12.0110 ; qtot   -0.139
         5            h4bf         1   UNL        h4         5     0.13342        1.0080 ; qtot   -0.006
         6            c5bf         1   UNL        c5         6     0.17007       12.0110 ; qtot    0.164
         7            c6bf         1   UNL        c6         7    -0.18112       12.0110 ; qtot   -0.017
         8            c7bf         1   UNL        c7         8    -0.03618       12.0110 ; qtot   -0.053
         9            h8bf         1   UNL        h8         9     0.12822        1.0080 ; qtot    0.075
        10            o9bf         1   UNL        o9        10    -0.35834       15.9990 ; qtot   -0.283
        11           c10bf         1   UNL       c10        11     0.18141       12.0110 ; qtot   -0.102
        12           c11bf         1   UNL       c11        12    -0.08115       12.0110 ; qtot   -0.183
        13           h12bf         1   UNL       h12        13     0.08348        1.0080 ; qtot   -0.099
        14           h13bf         1   UNL       h13        14     0.08348        1.0080 ; qtot   -0.016
        15           c14bf         1   UNL       c14        15     0.10827       12.0110 ; qtot    0.093
        16           c15bf         1   UNL       c15        16     0.55024       12.0110 ; qtot    0.643
        17           n16bf         1   UNL       n16        17    -0.64651       14.0070 ; qtot   -0.004
        18           c17bf         1   UNL       c17        18     0.99722       12.0110 ; qtot    0.993
        19           n18bf         1   UNL       n18        19    -0.63159       14.0070 ; qtot    0.362
        20           h19bf         1   UNL       h19        20     0.41427        1.0080 ; qtot    0.776
        21           c20bf         1   UNL       c20        21     0.00778       12.0110 ; qtot    0.784
        22           c21bf         1   UNL       c21        22     0.07086       12.0110 ; qtot    0.855
        23           h22bf         1   UNL       h22        23     0.09037        1.0080 ; qtot    0.945
        24           h23bf         1   UNL       h23        24     0.09037        1.0080 ; qtot    1.036
        25           h24bf         1   UNL       h24        25     0.09037        1.0080 ; qtot    1.126
        26           n25bf         1   UNL       n25        26    -0.57853       14.0070 ; qtot    0.547
        27           h26bf         1   UNL       h26        27     0.38249        1.0080 ; qtot    0.930
        28           h27bf         1   UNL       h27        28     0.38249        1.0080 ; qtot    1.312
        29           c28bf         1   UNL       c28        29    -0.15620       12.0110 ; qtot    1.156
        30           h29bf         1   UNL       h29        30     0.12684        1.0080 ; qtot    1.283
        31           c30bf         1   UNL       c30        31     0.32796       12.0110 ; qtot    1.611
        32           h31bf         1   UNL       h31        32     0.02354        1.0080 ; qtot    1.634
        33           n32bf         1   UNL       n32        33    -0.65105       14.0070 ; qtot    0.983
        34           c33bf         1   UNL       c33        34     0.32796       12.0110 ; qtot    1.311
        35           h34bf         1   UNL       h34        35     0.02354        1.0080 ; qtot    1.335
        36           c35bf         1   UNL       c35        36    -0.15620       12.0110 ; qtot    1.179
        37           h36bf         1   UNL       h36        37     0.12684        1.0080 ; qtot    1.306
        38           o37bf         1   UNL       o37        38    -0.39811       15.9990 ; qtot    0.907
        39           c38bf         1   UNL       c38        39    -0.10005       12.0110 ; qtot    0.807
        40           h39bf         1   UNL       h39        40     0.04877        1.0080 ; qtot    0.856
        41           h40bf         1   UNL       h40        41     0.04877        1.0080 ; qtot    0.905
        42           h41bf         1   UNL       h41        42     0.04877        1.0080 ; qtot    0.954
        43           c42bf         1   UNL       c42        43    -0.10005       12.0110 ; qtot    0.854
        44           h43bf         1   UNL       h43        44     0.04877        1.0080 ; qtot    0.902
        45           h44bf         1   UNL       h44        45     0.04877        1.0080 ; qtot    0.951
        46           h45bf         1   UNL       h45        46     0.04879        1.0080 ; qtot    1.000

[ bonds ]
;       ai        aj funct               r               k
         1         2     1        0.140696   283561.534326
         1         8     1        0.139977   291888.394043
         1        21     1        0.148083   215058.315039
         2         3     1        0.108592   318492.009717
         2         4     1        0.139082   332814.318750
         4         5     1        0.108562   321104.966748
         4         6     1        0.140026   288678.966748
         6         7     1        0.140470   276536.760742
         6        10     1        0.136436   267339.417578
         7         8     1        0.140023   297895.615967
         7        15     1        0.151265   181133.452710
         8         9     1        0.108506   319358.177393
        10        11     1        0.145731   141482.468188
        11        12     1        0.154147   164699.186426
        11        39     1        0.152988   183033.962695
        11        43     1        0.152988   183033.962695
        12        13     1        0.109298   301656.951270
        12        14     1        0.109298   301656.951270
        12        15     1        0.154171   160537.276025
        15        16     1        0.154381   128485.484058
        15        19     1        0.148548   146191.332397
        16        17     1        0.141843   159362.683911
        16        38     1        0.120598   711921.900781
        17        18     1        0.135797   301738.465723
        17        22     1        0.146668   196952.070361
        18        19     1        0.133090   390989.539355
        18        26     1        0.133332   412686.071777
        19        20     1        0.101348   425202.319824
        21        29     1        0.140460   289843.688770
        21        36     1        0.140460   289843.688770
        22        23     1        0.109031   312124.791162
        22        24     1        0.109031   312124.791162
        22        25     1        0.109031   312124.816699
        26        27     1        0.101316   425666.584473
        26        28     1        0.101316   425666.584473
        29        30     1        0.108527   321443.103613
        29        31     1        0.139675   301226.982959
        31        32     1        0.108854   313907.306934
        31        33     1        0.134092   315862.504639
        33        34     1        0.134092   315862.504639
        34        35     1        0.108854   313907.306934
        34        36     1        0.139675   301226.982959
        36        37     1        0.108527   321443.103613
        39        40     1        0.109316   303222.120703
        39        41     1        0.109316   303222.120703
        39        42     1        0.109316   303222.120703
        43        44     1        0.109316   303222.120703
        43        45     1        0.109316   303222.120703
        43        46     1        0.109316   303222.120703

[ angles ]
;       ai        aj        ak funct           theta             cth
         1         2         3     1      119.792870      428.887325
         1         2         4     1      120.865013      687.338130
         1         8         7     1      121.735123      639.016365
         1         8         9     1      119.171677      421.588404
         1        21        29     1      121.768532      509.173251
         1        21        36     1      121.768532      509.173187
         2         1         8     1      117.824623      627.476273
         2         1        21     1      121.107346      564.286164
         2         4         5     1      121.209946      430.951681
         2         4         6     1      120.149979      734.422814
         3         2         4     1      119.145973      426.572450
         4         6         7     1      119.925880      589.802844
         4         6        10     1      116.437744      551.331380
         5         4         6     1      118.621658      435.820746
         6         7         8     1      118.894142      739.081357
         6         7        15     1      119.745766      586.516281
         6        10        11     1      117.993736      500.028604
         7         6        10     1      123.637672      514.558357
         7         8         9     1      119.072144      422.141729
         7        15        12     1      111.733620      557.947853
         7        15        16     1      112.067848      601.546658
         7        15        19     1      111.488197      598.667668
         8         1        21     1      120.981590      434.999185
         8         7        15     1      121.302391      442.309470
        10        11        12     1      109.078835      556.881551
        10        11        39     1      106.645714      604.086579
        10        11        43     1      106.645714      604.086579
        11        12        13     1      109.154335      466.471374
        11        12        14     1      109.154335      466.471374
        11        12        15     1      113.052734      640.250254
        11        39        40     1      110.474686      475.605615
        11        39        41     1      110.474686      475.605615
        11        39        42     1      110.474686      475.605615
        11        43        44     1      110.474686      475.605615
        11        43        45     1      110.474686      475.605615
        11        43        46     1      110.474686      475.605615
        12        11        39     1      111.385193      575.618575
        12        11        43     1      111.385193      575.618575
        12        15        16     1      110.797043      616.450307
        12        15        19     1      110.620262      611.566526
        13        12        14     1      107.420326      358.221546
        13        12        15     1      108.621048      474.551156
        14        12        15     1      108.621048      474.551156
        15        16        17     1      106.500320      167.360000
        15        16        38     1      127.583961      359.223303
        15        19        18     1      111.587624      619.880132
        15        19        20     1      121.368065      359.917625
        16        15        19     1      100.386848      329.498044
        16        17        18     1      109.401268      854.894893
        16        17        22     1      123.309692      531.050510
        17        16        38     1      124.771469      662.663728
        17        18        19     1      111.171402      582.762773
        17        18        26     1      123.442459      642.331720
        17        22        23     1      109.308334      484.616097
        17        22        24     1      109.308334      484.616097
        17        22        25     1      109.308334      484.616097
        18        17        22     1      126.712746      464.666028
        18        19        20     1      123.566017      425.702688
        18        26        27     1      120.916794      453.685646
        18        26        28     1      120.916794      453.685646
        19        18        26     1      125.735672      609.105451
        21        29        30     1      120.874313      426.070262
        21        29        31     1      119.440758      770.308518
        21        36        34     1      119.440773      770.308518
        21        36        37     1      120.874313      426.070262
        23        22        24     1      109.761864      350.063653
        23        22        25     1      109.761864      350.063653
        24        22        25     1      109.761864      350.063653
        27        26        28     1      117.283279      315.513827
        29        21        36     1      116.674088      663.307199
        29        31        32     1      119.941917      418.851145
        29        31        33     1      123.958511      727.904084
        30        29        31     1      119.709549      455.520327
        31        33        34     1      116.570801      666.695527
        32        31        33     1      116.066483      354.503343
        33        34        35     1      116.066483      354.503311
        33        34        36     1      123.958511      727.904147
        34        36        37     1      119.709549      455.520327
        35        34        36     1      119.941917      418.851081
        39        11        43     1      111.043091      610.311568
        40        39        41     1      108.427734      360.868117
        40        39        42     1      108.427734      360.868117
        41        39        42     1      108.427734      360.868117
        44        43        45     1      108.427734      360.868117
        44        43        46     1      108.427734      360.868117
        45        43        46     1      108.427734      360.868117

[ dihedrals ] ; propers for gromacs 4.5 or higher, use funct 9
;       ai        aj        ak        al funct           phase               k        pn
         1         2         4         5     9        0.000000       -0.035645         1
         1         2         4         5     9      180.000000       14.511181         2
         1         2         4         5     9        0.000000       -0.511515         3
         1         2         4         5     9      180.000000        0.136328         4
         1         2         4         6     9        0.000000        0.060660         1
         1         2         4         6     9      180.000000       19.036393         2
         1         2         4         6     9        0.000000       -1.462238         3
         1         2         4         6     9      180.000000       -0.494520         4
         1         8         7         6     9        0.000000        0.043103         1
         1         8         7         6     9      180.000000       19.022054         2
         1         8         7         6     9        0.000000       -1.285155         3
         1         8         7         6     9      180.000000       -0.483928         4
         1         8         7        15     9        0.000000        0.228825         1
         1         8         7        15     9      180.000000       16.443398         2
         1         8         7        15     9        0.000000       -0.143061         3
         1         8         7        15     9      180.000000       -0.363440         4
         1        21        29        30     9        0.000000       -0.031520         1
         1        21        29        30     9      180.000000       13.330096         2
         1        21        29        30     9        0.000000       -0.207310         3
         1        21        29        30     9      180.000000        0.141310         4
         1        21        29        31     9        0.000000        0.323911         1
         1        21        29        31     9      180.000000       16.395455         2
         1        21        29        31     9        0.000000       -0.050910         3
         1        21        29        31     9      180.000000       -0.505302         4
         1        21        36        34     9        0.000000        0.323910         1
         1        21        36        34     9      180.000000       16.395457         2
         1        21        36        34     9        0.000000       -0.050909         3
         1        21        36        34     9      180.000000       -0.505302         4
         1        21        36        37     9        0.000000       -0.031521         1
         1        21        36        37     9      180.000000       13.330097         2
         1        21        36        37     9        0.000000       -0.207310         3
         1        21        36        37     9      180.000000        0.141310         4
         2         1         8         7     9        0.000000       -0.077641         1
         2         1         8         7     9      180.000000       18.492079         2
         2         1         8         7     9        0.000000       -1.844258         3
         2         1         8         7     9      180.000000       -0.433314         4
         2         1         8         9     9        0.000000       -0.030256         1
         2         1         8         9     9      180.000000       14.480150         2
         2         1         8         9     9        0.000000       -0.585744         3
         2         1         8         9     9      180.000000        0.079091         4
         2         1        21        29     9        0.000000        0.087512         1
         2         1        21        29     9      180.000000        3.436968         2
         2         1        21        29     9        0.000000        0.081197         3
         2         1        21        29     9      180.000000       -0.043706         4
         2         1        21        36     9        0.000000        0.087512         1
         2         1        21        36     9      180.000000        3.436968         2
         2         1        21        36     9        0.000000        0.081197         3
         2         1        21        36     9      180.000000       -0.043706         4
         2         4         6         7     9        0.000000        0.003421         1
         2         4         6         7     9      180.000000       18.393486         2
         2         4         6         7     9        0.000000       -0.952192         3
         2         4         6         7     9      180.000000       -0.528169         4
         2         4         6        10     9        0.000000        0.453909         1
         2         4         6        10     9      180.000000       20.115699         2
         2         4         6        10     9        0.000000        0.712090         3
         2         4         6        10     9      180.000000       -0.566591         4
         3         2         1         8     9        0.000000       -0.133209         1
         3         2         1         8     9      180.000000       13.941671         2
         3         2         1         8     9        0.000000       -0.788095         3
         3         2         1         8     9      180.000000        0.075253         4
         3         2         1        21     9        0.000000       -0.104875         1
         3         2         1        21     9      180.000000       13.230861         2
         3         2         1        21     9        0.000000       -0.264555         3
         3         2         1        21     9      180.000000        0.135763         4
         3         2         4         5     9        0.000000       -0.101728         1
         3         2         4         5     9      180.000000       12.219593         2
         3         2         4         5     9        0.000000       -0.707685         3
         3         2         4         5     9      180.000000        0.368380         4
         3         2         4         6     9        0.000000        0.136480         1
         3         2         4         6     9      180.000000       14.623831         2
         3         2         4         6     9        0.000000       -0.535734         3
         3         2         4         6     9      180.000000        0.133918         4
         4         2         1         8     9        0.000000       -0.152928         1
         4         2         1         8     9      180.000000       18.121153         2
         4         2         1         8     9        0.000000       -1.604653         3
         4         2         1         8     9      180.000000       -0.318367         4
         4         2         1        21     9        0.000000        0.163870         1
         4         2         1        21     9      180.000000       16.133471         2
         4         2         1        21     9        0.000000       -0.299367         3
         4         2         1        21     9      180.000000       -0.326025         4
         4         6         7         8     9        0.000000       -0.099981         1
         4         6         7         8     9      180.000000       15.402617         2
         4         6         7         8     9        0.000000       -0.818311         3
         4         6         7         8     9      180.000000       -0.311874         4
         4         6         7        15     9        0.000000        0.317601         1
         4         6         7        15     9      180.000000       12.594617         2
         4         6         7        15     9        0.000000        0.140950         3
         4         6         7        15     9      180.000000       -0.263644         4
         4         6        10        11     9        0.000000       -0.524440         1
         4         6        10        11     9      180.000000        0.965350         2
         4         6        10        11     9        0.000000        0.127626         3
         4         6        10        11     9      180.000000        0.274670         4
         5         4         6         7     9        0.000000        0.029945         1
         5         4         6         7     9      180.000000       13.435392         2
         5         4         6         7     9        0.000000       -0.361852         3
         5         4         6         7     9      180.000000       -0.014588         4
         5         4         6        10     9        0.000000        0.018714         1
         5         4         6        10     9      180.000000       16.055862         2
         5         4         6        10     9        0.000000        0.173212         3
         5         4         6        10     9      180.000000        0.104013         4
         6         7         8         9     9        0.000000        0.268573         1
         6         7         8         9     9      180.000000       14.612480         2
         6         7         8         9     9        0.000000       -0.273898         3
         6         7         8         9     9      180.000000        0.027503         4
         6         7        15        12     9        0.000000        0.442429         1
         6         7        15        12     9      180.000000       -0.582160         2
         6         7        15        12     9        0.000000        0.566510         3
         6         7        15        12     9      180.000000        0.177976         4
         6         7        15        16     9        0.000000        0.102814         1
         6         7        15        16     9      180.000000       -0.121196         2
         6         7        15        16     9        0.000000       -0.091766         3
         6         7        15        16     9      180.000000        0.098350         4
         6         7        15        19     9        0.000000       -1.211495         1
         6         7        15        19     9      180.000000        1.208789         2
         6         7        15        19     9        0.000000        0.479329         3
         6         7        15        19     9      180.000000       -0.237524         4
         6        10        11        12     9        0.000000        6.552491         1
         6        10        11        12     9      180.000000       -3.144803         2
         6        10        11        12     9        0.000000       -0.417738         3
         6        10        11        12     9      180.000000        0.734854         4
         6        10        11        39     9        0.000000       -0.601019         1
         6        10        11        39     9      180.000000        0.475001         2
         6        10        11        39     9        0.000000        0.451956         3
         6        10        11        39     9      180.000000        0.038632         4
         6        10        11        43     9        0.000000       -0.601019         1
         6        10        11        43     9      180.000000        0.475001         2
         6        10        11        43     9        0.000000        0.451956         3
         6        10        11        43     9      180.000000        0.038632         4
         7         6        10        11     9        0.000000        1.640771         1
         7         6        10        11     9      180.000000        0.065588         2
         7         6        10        11     9        0.000000       -0.117565         3
         7         6        10        11     9      180.000000        0.605195         4
         7         8         1        21     9        0.000000       -0.050925         1
         7         8         1        21     9      180.000000       16.850901         2
         7         8         1        21     9        0.000000       -0.319511         3
         7         8         1        21     9      180.000000       -0.467994         4
         7        15        12        11     9        0.000000        1.224939         1
         7        15        12        11     9      180.000000       -1.112698         2
         7        15        12        11     9        0.000000        0.379613         3
         7        15        12        11     9      180.000000        0.212213         4
         7        15        12        13     9        0.000000        0.060303         1
         7        15        12        13     9      180.000000        0.038717         2
         7        15        12        13     9        0.000000        0.531071         3
         7        15        12        13     9      180.000000        0.004443         4
         7        15        12        14     9        0.000000        0.060303         1
         7        15        12        14     9      180.000000        0.038717         2
         7        15        12        14     9        0.000000        0.531071         3
         7        15        12        14     9      180.000000        0.004443         4
         7        15        16        17     9        0.000000        0.204138         1
         7        15        16        17     9      180.000000        2.054007         2
         7        15        16        17     9        0.000000        0.314617         3
         7        15        16        17     9      180.000000        0.636535         4
         7        15        16        38     9        0.000000       -1.028429         1
         7        15        16        38     9      180.000000        1.994955         2
         7        15        16        38     9        0.000000       -0.383167         3
         7        15        16        38     9      180.000000        0.534449         4
         7        15        19        18     9        0.000000        1.475577         1
         7        15        19        18     9      180.000000        0.330887         2
         7        15        19        18     9        0.000000        0.426833         3
         7        15        19        18     9      180.000000        0.176206         4
         7        15        19        20     9        0.000000        1.133225         1
         7        15        19        20     9      180.000000       -0.176846         2
         7        15        19        20     9        0.000000        0.307694         3
         7        15        19        20     9      180.000000        0.155610         4
         8         1        21        29     9        0.000000       -0.002568         1
         8         1        21        29     9      180.000000        3.538305         2
         8         1        21        29     9        0.000000        0.113243         3
         8         1        21        29     9      180.000000       -0.075059         4
         8         1        21        36     9        0.000000       -0.002567         1
         8         1        21        36     9      180.000000        3.538304         2
         8         1        21        36     9        0.000000        0.113243         3
         8         1        21        36     9      180.000000       -0.075059         4
         8         7         6        10     9        0.000000        0.065874         1
         8         7         6        10     9      180.000000       16.858075         2
         8         7         6        10     9        0.000000        0.609920         3
         8         7         6        10     9      180.000000       -0.441368         4
         8         7        15        12     9        0.000000       -0.413872         1
         8         7        15        12     9      180.000000        0.649232         2
         8         7        15        12     9        0.000000       -0.252932         3
         8         7        15        12     9      180.000000        0.237556         4
         8         7        15        16     9        0.000000       -0.864112         1
         8         7        15        16     9      180.000000       -0.269346         2
         8         7        15        16     9        0.000000       -0.294400         3
         8         7        15        16     9      180.000000        0.217114         4
         8         7        15        19     9        0.000000       -0.231744         1
         8         7        15        19     9      180.000000        1.872503         2
         8         7        15        19     9        0.000000       -0.163923         3
         8         7        15        19     9      180.000000       -0.004626         4
         9         8         1        21     9        0.000000       -0.054092         1
         9         8         1        21     9      180.000000       13.197728         2
         9         8         1        21     9        0.000000       -0.176648         3
         9         8         1        21     9      180.000000        0.156965         4
         9         8         7        15     9        0.000000       -0.093180         1
         9         8         7        15     9      180.000000       13.464457         2
         9         8         7        15     9        0.000000       -0.230321         3
         9         8         7        15     9      180.000000        0.078223         4
        10         6         7        15     9        0.000000        0.652877         1
        10         6         7        15     9      180.000000       13.735837         2
        10         6         7        15     9        0.000000        0.969375         3
        10         6         7        15     9      180.000000       -0.661470         4
        10        11        12        13     9        0.000000        0.010187         1
        10        11        12        13     9      180.000000        0.032223         2
        10        11        12        13     9        0.000000        0.118020         3
        10        11        12        13     9      180.000000        0.005280         4
        10        11        12        14     9        0.000000        0.010187         1
        10        11        12        14     9      180.000000        0.032223         2
        10        11        12        14     9        0.000000        0.118020         3
        10        11        12        14     9      180.000000        0.005280         4
        10        11        12        15     9        0.000000        6.398275         1
        10        11        12        15     9      180.000000       -3.171040         2
        10        11        12        15     9        0.000000       -0.812227         3
        10        11        12        15     9      180.000000        0.264324         4
        10        11        39        40     9        0.000000        0.022757         1
        10        11        39        40     9      180.000000       -0.106326         2
        10        11        39        40     9        0.000000        0.371208         3
        10        11        39        40     9      180.000000        0.017378         4
        10        11        39        41     9        0.000000        0.022757         1
        10        11        39        41     9      180.000000       -0.106326         2
        10        11        39        41     9        0.000000        0.371208         3
        10        11        39        41     9      180.000000        0.017378         4
        10        11        39        42     9        0.000000        0.022757         1
        10        11        39        42     9      180.000000       -0.106326         2
        10        11        39        42     9        0.000000        0.371208         3
        10        11        39        42     9      180.000000        0.017378         4
        10        11        43        44     9        0.000000        0.022757         1
        10        11        43        44     9      180.000000       -0.106326         2
        10        11        43        44     9        0.000000        0.371208         3
        10        11        43        44     9      180.000000        0.017378         4
        10        11        43        45     9        0.000000        0.022757         1
        10        11        43        45     9      180.000000       -0.106326         2
        10        11        43        45     9        0.000000        0.371208         3
        10        11        43        45     9      180.000000        0.017378         4
        10        11        43        46     9        0.000000        0.022757         1
        10        11        43        46     9      180.000000       -0.106326         2
        10        11        43        46     9        0.000000        0.371208         3
        10        11        43        46     9      180.000000        0.017378         4
        11        12        15        16     9        0.000000       -0.158489         1
        11        12        15        16     9      180.000000        0.109710         2
        11        12        15        16     9        0.000000        0.008060         3
        11        12        15        16     9      180.000000        0.059205         4
        11        12        15        19     9        0.000000       -1.376753         1
        11        12        15        19     9      180.000000       -0.656378         2
        11        12        15        19     9        0.000000        0.372563         3
        11        12        15        19     9      180.000000        0.291438         4
        12        11        39        40     9        0.000000       -0.089919         1
        12        11        39        40     9      180.000000        0.000423         2
        12        11        39        40     9        0.000000        0.433042         3
        12        11        39        40     9      180.000000        0.019250         4
        12        11        39        41     9        0.000000       -0.089919         1
        12        11        39        41     9      180.000000        0.000423         2
        12        11        39        41     9        0.000000        0.433042         3
        12        11        39        41     9      180.000000        0.019250         4
        12        11        39        42     9        0.000000       -0.089919         1
        12        11        39        42     9      180.000000        0.000423         2
        12        11        39        42     9        0.000000        0.433042         3
        12        11        39        42     9      180.000000        0.019250         4
        12        11        43        44     9        0.000000       -0.089919         1
        12        11        43        44     9      180.000000        0.000423         2
        12        11        43        44     9        0.000000        0.433042         3
        12        11        43        44     9      180.000000        0.019250         4
        12        11        43        45     9        0.000000       -0.089919         1
        12        11        43        45     9      180.000000        0.000423         2
        12        11        43        45     9        0.000000        0.433042         3
        12        11        43        45     9      180.000000        0.019250         4
        12        11        43        46     9        0.000000       -0.089919         1
        12        11        43        46     9      180.000000        0.000423         2
        12        11        43        46     9        0.000000        0.433042         3
        12        11        43        46     9      180.000000        0.019250         4
        12        15        16        17     9        0.000000       -0.141660         1
        12        15        16        17     9      180.000000        3.066579         2
        12        15        16        17     9        0.000000        0.134318         3
        12        15        16        17     9      180.000000        0.386088         4
        12        15        16        38     9        0.000000        1.080604         1
        12        15        16        38     9      180.000000        2.732702         2
        12        15        16        38     9        0.000000       -0.579963         3
        12        15        16        38     9      180.000000        0.528779         4
        12        15        19        18     9        0.000000       -0.582310         1
        12        15        19        18     9      180.000000        0.755302         2
        12        15        19        18     9        0.000000        0.351235         3
        12        15        19        18     9      180.000000        0.157736         4
        12        15        19        20     9        0.000000        0.171427         1
        12        15        19        20     9      180.000000       -0.174988         2
        12        15        19        20     9        0.000000        0.231541         3
        12        15        19        20     9      180.000000       -0.054083         4
        13        12        11        39     9        0.000000       -0.021980         1
        13        12        11        39     9      180.000000       -0.009422         2
        13        12        11        39     9        0.000000        0.356718         3
        13        12        11        39     9      180.000000       -0.000954         4
        13        12        11        43     9        0.000000       -0.021980         1
        13        12        11        43     9      180.000000       -0.009422         2
        13        12        11        43     9        0.000000        0.356718         3
        13        12        11        43     9      180.000000       -0.000954         4
        13        12        15        16     9        0.000000       -0.120531         1
        13        12        15        16     9      180.000000        0.006259         2
        13        12        15        16     9        0.000000        0.249160         3
        13        12        15        16     9      180.000000        0.015556         4
        13        12        15        19     9        0.000000        0.048077         1
        13        12        15        19     9      180.000000        0.031139         2
        13        12        15        19     9        0.000000        0.441342         3
        13        12        15        19     9      180.000000       -0.090829         4
        14        12        11        39     9        0.000000       -0.021980         1
        14        12        11        39     9      180.000000       -0.009422         2
        14        12        11        39     9        0.000000        0.356718         3
        14        12        11        39     9      180.000000       -0.000954         4
        14        12        11        43     9        0.000000       -0.021980         1
        14        12        11        43     9      180.000000       -0.009422         2
        14        12        11        43     9        0.000000        0.356718         3
        14        12        11        43     9      180.000000       -0.000954         4
        14        12        15        16     9        0.000000       -0.120531         1
        14        12        15        16     9      180.000000        0.006259         2
        14        12        15        16     9        0.000000        0.249160         3
        14        12        15        16     9      180.000000        0.015556         4
        14        12        15        19     9        0.000000        0.048077         1
        14        12        15        19     9      180.000000        0.031139         2
        14        12        15        19     9        0.000000        0.441342         3
        14        12        15        19     9      180.000000       -0.090829         4
        15        12        11        39     9        0.000000       -0.491719         1
        15        12        11        39     9      180.000000        0.610387         2
        15        12        11        39     9        0.000000        0.252005         3
        15        12        11        39     9      180.000000       -0.014027         4
        15        12        11        43     9        0.000000       -0.491719         1
        15        12        11        43     9      180.000000        0.610387         2
        15        12        11        43     9        0.000000        0.252005         3
        15        12        11        43     9      180.000000       -0.014027         4
        15        16        17        18     9        0.000000       -2.621426         1
        15        16        17        18     9      180.000000       12.608727         2
        15        16        17        18     9        0.000000       -1.689385         3
        15        16        17        18     9      180.000000       -0.516965         4
        15        16        17        22     9        0.000000       -1.161959         1
        15        16        17        22     9      180.000000        6.523790         2
        15        16        17        22     9        0.000000        0.171203         3
        15        16        17        22     9      180.000000       -0.171941         4
        15        19        18        17     9        0.000000       -1.486140         1
        15        19        18        17     9      180.000000       26.058799         2
        15        19        18        17     9        0.000000       -2.115652         3
        15        19        18        17     9      180.000000       -2.999679         4
        15        19        18        26     9        0.000000        1.704033         1
        15        19        18        26     9      180.000000       19.771991         2
        15        19        18        26     9        0.000000        0.715132         3
        15        19        18        26     9      180.000000       -2.025611         4
        16        15        19        18     9        0.000000       -3.202930         1
        16        15        19        18     9      180.000000        3.675471         2
        16        15        19        18     9        0.000000       -0.128940         3
        16        15        19        18     9      180.000000       -0.635128         4
        16        15        19        20     9        0.000000       -0.882341         1
        16        15        19        20     9      180.000000       -0.826404         2
        16        15        19        20     9        0.000000        0.165262         3
        16        15        19        20     9      180.000000        0.141885         4
        16        17        18        19     9        0.000000       -2.490328         1
        16        17        18        19     9      180.000000       13.834040         2
        16        17        18        19     9        0.000000       -2.378247         3
        16        17        18        19     9      180.000000       -1.280421         4
        16        17        18        26     9        0.000000        1.935113         1
        16        17        18        26     9      180.000000       11.081021         2
        16        17        18        26     9        0.000000       -0.210529         3
        16        17        18        26     9      180.000000       -0.637296         4
        16        17        22        23     9        0.000000       -0.046462         1
        16        17        22        23     9      180.000000       -0.089247         2
        16        17        22        23     9        0.000000       -0.283225         3
        16        17        22        23     9      180.000000        0.030104         4
        16        17        22        24     9        0.000000       -0.046462         1
        16        17        22        24     9      180.000000       -0.089247         2
        16        17        22        24     9        0.000000       -0.283225         3
        16        17        22        24     9      180.000000        0.030104         4
        16        17        22        25     9        0.000000       -0.046462         1
        16        17        22        25     9      180.000000       -0.089247         2
        16        17        22        25     9        0.000000       -0.283225         3
        16        17        22        25     9      180.000000        0.030104         4
        17        16        15        19     9        0.000000        0.490408         1
        17        16        15        19     9      180.000000        7.821340         2
        17        16        15        19     9        0.000000       -0.339097         3
        17        16        15        19     9      180.000000       -0.046198         4
        17        18        19        20     9        0.000000        0.456219         1
        17        18        19        20     9      180.000000       11.615587         2
        17        18        19        20     9        0.000000        0.224486         3
        17        18        19        20     9      180.000000       -0.965494         4
        17        18        26        27     9        0.000000       -0.170244         1
        17        18        26        27     9      180.000000        6.404527         2
        17        18        26        27     9        0.000000        0.524424         3
        17        18        26        27     9      180.000000       -0.541232         4
        17        18        26        28     9        0.000000       -0.170244         1
        17        18        26        28     9      180.000000        6.404527         2
        17        18        26        28     9        0.000000        0.524424         3
        17        18        26        28     9      180.000000       -0.541232         4
        18        17        16        38     9        0.000000        1.168478         1
        18        17        16        38     9      180.000000       20.631698         2
        18        17        16        38     9        0.000000       -0.713105         3
        18        17        16        38     9      180.000000       -0.822735         4
        18        17        22        23     9        0.000000        0.029063         1
        18        17        22        23     9      180.000000        0.021416         2
        18        17        22        23     9        0.000000        0.188894         3
        18        17        22        23     9      180.000000       -0.011671         4
        18        17        22        24     9        0.000000        0.029063         1
        18        17        22        24     9      180.000000        0.021416         2
        18        17        22        24     9        0.000000        0.188894         3
        18        17        22        24     9      180.000000       -0.011671         4
        18        17        22        25     9        0.000000        0.029063         1
        18        17        22        25     9      180.000000        0.021417         2
        18        17        22        25     9        0.000000        0.188894         3
        18        17        22        25     9      180.000000       -0.011671         4
        19        15        16        38     9        0.000000        7.981292         1
        19        15        16        38     9      180.000000        7.024952         2
        19        15        16        38     9        0.000000       -0.163171         3
        19        15        16        38     9      180.000000        0.325120         4
        19        18        17        22     9        0.000000       -3.776014         1
        19        18        17        22     9      180.000000        5.458345         2
        19        18        17        22     9        0.000000       -0.154527         3
        19        18        17        22     9      180.000000        0.081931         4
        19        18        26        27     9        0.000000       -1.696700         1
        19        18        26        27     9      180.000000        6.696568         2
        19        18        26        27     9        0.000000        0.180424         3
        19        18        26        27     9      180.000000       -0.442659         4
        19        18        26        28     9        0.000000       -1.696700         1
        19        18        26        28     9      180.000000        6.696568         2
        19        18        26        28     9        0.000000        0.180424         3
        19        18        26        28     9      180.000000       -0.442659         4
        20        19        18        26     9        0.000000        0.829726         1
        20        19        18        26     9      180.000000        7.727449         2
        20        19        18        26     9        0.000000        0.246605         3
        20        19        18        26     9      180.000000       -0.383134         4
        21        29        31        32     9        0.000000        0.000837         1
        21        29        31        32     9      180.000000       14.658071         2
        21        29        31        32     9        0.000000       -0.502453         3
        21        29        31        32     9      180.000000        0.052194         4
        21        29        31        33     9        0.000000       -0.099384         1
        21        29        31        33     9      180.000000       18.879415         2
        21        29        31        33     9        0.000000       -0.958366         3
        21        29        31        33     9      180.000000       -0.663318         4
        21        36        34        33     9        0.000000       -0.099384         1
        21        36        34        33     9      180.000000       18.879413         2
        21        36        34        33     9        0.000000       -0.958366         3
        21        36        34        33     9      180.000000       -0.663318         4
        21        36        34        35     9        0.000000        0.000837         1
        21        36        34        35     9      180.000000       14.658072         2
        21        36        34        35     9        0.000000       -0.502453         3
        21        36        34        35     9      180.000000        0.052194         4
        22        17        16        38     9        0.000000       -0.327768         1
        22        17        16        38     9      180.000000        9.752935         2
        22        17        16        38     9        0.000000       -0.183564         3
        22        17        16        38     9      180.000000        0.446364         4
        22        17        18        26     9        0.000000        1.331771         1
        22        17        18        26     9      180.000000        6.631611         2
        22        17        18        26     9        0.000000        0.055652         3
        22        17        18        26     9      180.000000       -0.063283         4
        29        21        36        34     9        0.000000       -0.122256         1
        29        21        36        34     9      180.000000       17.867186         2
        29        21        36        34     9        0.000000       -1.596434         3
        29        21        36        34     9      180.000000       -0.378635         4
        29        21        36        37     9        0.000000       -0.094041         1
        29        21        36        37     9      180.000000       14.696482         2
        29        21        36        37     9        0.000000       -0.598403         3
        29        21        36        37     9      180.000000        0.006451         4
        29        31        33        34     9        0.000000        0.116175         1
        29        31        33        34     9      180.000000       22.278460         2
        29        31        33        34     9        0.000000       -0.906060         3
        29        31        33        34     9      180.000000       -0.117673         4
        30        29        21        36     9        0.000000       -0.094041         1
        30        29        21        36     9      180.000000       14.696482         2
        30        29        21        36     9        0.000000       -0.598404         3
        30        29        21        36     9      180.000000        0.006451         4
        30        29        31        32     9        0.000000       -0.152529         1
        30        29        31        32     9      180.000000       11.776069         2
        30        29        31        32     9        0.000000       -0.728619         3
        30        29        31        32     9      180.000000        0.322487         4
        30        29        31        33     9        0.000000       -0.113585         1
        30        29        31        33     9      180.000000       14.410098         2
        30        29        31        33     9        0.000000       -0.391757         3
        30        29        31        33     9      180.000000       -0.002266         4
        31        29        21        36     9        0.000000       -0.122256         1
        31        29        21        36     9      180.000000       17.867188         2
        31        29        21        36     9        0.000000       -1.596434         3
        31        29        21        36     9      180.000000       -0.378634         4
        31        33        34        35     9        0.000000        1.032132         1
        31        33        34        35     9      180.000000       20.904095         2
        31        33        34        35     9        0.000000        0.232440         3
        31        33        34        35     9      180.000000       -0.356139         4
        31        33        34        36     9        0.000000        0.116175         1
        31        33        34        36     9      180.000000       22.278459         2
        31        33        34        36     9        0.000000       -0.906060         3
        31        33        34        36     9      180.000000       -0.117673         4
        32        31        33        34     9        0.000000        1.032132         1
        32        31        33        34     9      180.000000       20.904093         2
        32        31        33        34     9        0.000000        0.232440         3
        32        31        33        34     9      180.000000       -0.356139         4
        33        34        36        37     9        0.000000       -0.113584         1
        33        34        36        37     9      180.000000       14.410099         2
        33        34        36        37     9        0.000000       -0.391758         3
        33        34        36        37     9      180.000000       -0.002266         4
        35        34        36        37     9        0.000000       -0.152529         1
        35        34        36        37     9      180.000000       11.776067         2
        35        34        36        37     9        0.000000       -0.728620         3
        35        34        36        37     9      180.000000        0.322487         4
        39        11        43        44     9        0.000000       -0.082665         1
        39        11        43        44     9      180.000000        0.011908         2
        39        11        43        44     9        0.000000        0.531653         3
        39        11        43        44     9      180.000000        0.044561         4
        39        11        43        45     9        0.000000       -0.082665         1
        39        11        43        45     9      180.000000        0.011908         2
        39        11        43        45     9        0.000000        0.531653         3
        39        11        43        45     9      180.000000        0.044561         4
        39        11        43        46     9        0.000000       -0.082665         1
        39        11        43        46     9      180.000000        0.011908         2
        39        11        43        46     9        0.000000        0.531653         3
        39        11        43        46     9      180.000000        0.044561         4
        40        39        11        43     9        0.000000       -0.082665         1
        40        39        11        43     9      180.000000        0.011908         2
        40        39        11        43     9        0.000000        0.531653         3
        40        39        11        43     9      180.000000        0.044561         4
        41        39        11        43     9        0.000000       -0.082665         1
        41        39        11        43     9      180.000000        0.011908         2
        41        39        11        43     9        0.000000        0.531653         3
        41        39        11        43     9      180.000000        0.044561         4
        42        39        11        43     9        0.000000       -0.082665         1
        42        39        11        43     9      180.000000        0.011908         2
        42        39        11        43     9        0.000000        0.531653         3
        42        39        11        43     9      180.000000        0.044561         4

[ dihedrals ] ; impropers
;       ai        aj        ak        al funct           phase               k        pn
        16        15        17        38     4      180.000000       26.920058         2
        16        17        38        15     4      180.000000       26.920058         2
        16        38        15        17     4      180.000000       26.920058         2
        18        17        19        26     4      180.000000       10.189569         2
        18        19        26        17     4      180.000000       10.189569         2
        18        26        17        19     4      180.000000       10.189569         2
        31        29        32        33     4      180.000000        4.001583         2
        31        32        33        29     4      180.000000        4.001583         2
        31        33        29        32     4      180.000000        4.001583         2
        34        33        35        36     4      180.000000        4.001583         2
        34        35        36        33     4      180.000000        4.001583         2
        34        36        33        35     4      180.000000        4.001583         2

[ pairs ]
;       ai        aj funct
         1         5     1
         1         6     1
         1        15     1
         1        30     1
         1        31     1
         1        34     1
         1        37     1
         2         7     1
         2         9     1
         2        10     1
         2        29     1
         2        36     1
         3         5     1
         3         6     1
         3         8     1
         3        21     1
         4         8     1
         4        11     1
         4        15     1
         4        21     1
         5         7     1
         5        10     1
         6         9     1
         6        12     1
         6        16     1
         6        19     1
         6        39     1
         6        43     1
         7        11     1
         7        13     1
         7        14     1
         7        17     1
         7        18     1
         7        20     1
         7        21     1
         7        38     1
         8        10     1
         8        12     1
         8        16     1
         8        19     1
         8        29     1
         8        36     1
         9        15     1
         9        21     1
        10        13     1
        10        14     1
        10        15     1
        10        40     1
        10        41     1
        10        42     1
        10        44     1
        10        45     1
        10        46     1
        11        16     1
        11        19     1
        12        17     1
        12        18     1
        12        20     1
        12        38     1
        12        40     1
        12        41     1
        12        42     1
        12        44     1
        12        45     1
        12        46     1
        13        16     1
        13        19     1
        13        39     1
        13        43     1
        14        16     1
        14        19     1
        14        39     1
        14        43     1
        15        22     1
        15        26     1
        15        39     1
        15        43     1
        16        20     1
        16        23     1
        16        24     1
        16        25     1
        16        26     1
        17        20     1
        17        27     1
        17        28     1
        18        23     1
        18        24     1
        18        25     1
        18        38     1
        19        22     1
        19        27     1
        19        28     1
        19        38     1
        20        26     1
        21        32     1
        21        33     1
        21        35     1
        22        26     1
        22        38     1
        29        34     1
        29        37     1
        30        32     1
        30        33     1
        30        36     1
        31        35     1
        31        36     1
        32        34     1
        33        37     1
        35        37     1
        39        44     1
        39        45     1
        39        46     1
        40        43     1
        41        43     1
        42        43     1
