; ITP file created by ByteFF-ML, 2026-03-14 15:29:08.292551

[ atomtypes ]
;name           bonded.type        at.num        mass        charge   ptype           sigma         epsilon
 c0bf                                   6      0.0000       0.00000       A     3.31409e-01     4.11511e-01
 c1bf                                   6      0.0000       0.00000       A     3.31567e-01     4.13331e-01
 h2bf                                   1      0.0000       0.00000       A     2.62485e-01     6.75153e-02
 c3bf                                   6      0.0000       0.00000       A     3.31523e-01     4.12056e-01
 h4bf                                   1      0.0000       0.00000       A     2.62405e-01     6.67253e-02
 c5bf                                   6      0.0000       0.00000       A     3.31279e-01     4.11283e-01
 c6bf                                   6      0.0000       0.00000       A     3.31150e-01     4.13198e-01
 c7bf                                   6      0.0000       0.00000       A     3.31460e-01     4.13532e-01
 h8bf                                   1      0.0000       0.00000       A     2.62592e-01     6.73030e-02
 o9bf                                   8      0.0000       0.00000       A     3.15529e-01     3.02270e-01
 c10bf                                  6      0.0000       0.00000       A     3.39880e-01     4.53386e-01
 c11bf                                  6      0.0000       0.00000       A     3.39567e-01     4.51771e-01
 h12bf                                  1      0.0000       0.00000       A     2.59417e-01     8.63170e-02
 h13bf                                  1      0.0000       0.00000       A     2.59417e-01     8.63170e-02
 c14bf                                  6      0.0000       0.00000       A     3.39917e-01     4.52880e-01
 c15bf                                  6      0.0000       0.00000       A     3.31525e-01     4.13256e-01
 n16bf                                  7      0.0000       0.00000       A     3.18147e-01     7.08350e-01
 c17bf                                  6      0.0000       0.00000       A     3.31173e-01     4.11985e-01
 n18bf                                  7      0.0000       0.00000       A     3.26363e-01     6.55753e-01
 h19bf                                  1      0.0000       0.00000       A     1.10240e-01     4.07109e-02
 c20bf                                  6      0.0000       0.00000       A     3.31217e-01     4.12008e-01
 c21bf                                  6      0.0000       0.00000       A     3.39925e-01     4.53383e-01
 h22bf                                  1      0.0000       0.00000       A     2.42238e-01     8.60936e-02
 h23bf                                  1      0.0000       0.00000       A     2.42238e-01     8.60936e-02
 h24bf                                  1      0.0000       0.00000       A     2.42238e-01     8.60936e-02
 n25bf                                  7      0.0000       0.00000       A     3.36693e-01     4.77150e-01
 h26bf                                  1      0.0000       0.00000       A     1.10539e-01     3.88978e-02
 h27bf                                  1      0.0000       0.00000       A     1.10539e-01     3.88978e-02
 c28bf                                  6      0.0000       0.00000       A     3.31428e-01     4.13738e-01
 h29bf                                  1      0.0000       0.00000       A     2.62565e-01     6.75919e-02
 c30bf                                  6      0.0000       0.00000       A     3.31451e-01     4.14370e-01
 c31bf                                  6      0.0000       0.00000       A     3.39991e-01     4.48079e-01
 f32bf                                  9      0.0000       0.00000       A     3.03435e-01     3.47916e-01
 f33bf                                  9      0.0000       0.00000       A     3.03435e-01     3.47916e-01
 f34bf                                  9      0.0000       0.00000       A     3.03435e-01     3.47916e-01
 c35bf                                  6      0.0000       0.00000       A     3.31452e-01     4.13510e-01
 h36bf                                  1      0.0000       0.00000       A     2.53693e-01     6.71818e-02
 n37bf                                  7      0.0000       0.00000       A     3.38311e-01     3.93086e-01
 c38bf                                  6      0.0000       0.00000       A     3.31477e-01     4.13620e-01
 h39bf                                  1      0.0000       0.00000       A     2.53647e-01     6.70142e-02
 o40bf                                  8      0.0000       0.00000       A     3.04358e-01     6.10575e-01
 c41bf                                  6      0.0000       0.00000       A     3.39798e-01     4.50250e-01
 h42bf                                  1      0.0000       0.00000       A     2.59893e-01     8.82802e-02
 h43bf                                  1      0.0000       0.00000       A     2.59893e-01     8.82802e-02
 h44bf                                  1      0.0000       0.00000       A     2.59893e-01     8.82802e-02
 c45bf                                  6      0.0000       0.00000       A     3.39798e-01     4.50250e-01
 h46bf                                  1      0.0000       0.00000       A     2.59893e-01     8.82802e-02
 h47bf                                  1      0.0000       0.00000       A     2.59893e-01     8.82802e-02
 h48bf                                  1      0.0000       0.00000       A     2.59893e-01     8.82802e-02

[ moleculetype ]
;name             nrexcl
 35                    3

[ atoms ]
;       nr            type      resi   res      atom      cgnr      charge          mass ; qtot
         1            c0bf         1   UNL        c0         1    -0.05201       12.0110 ; qtot   -0.052
         2            c1bf         1   UNL        c1         2    -0.06452       12.0110 ; qtot   -0.117
         3            h2bf         1   UNL        h2         3     0.11881        1.0080 ; qtot    0.002
         4            c3bf         1   UNL        c3         4    -0.13391       12.0110 ; qtot   -0.132
         5            h4bf         1   UNL        h4         5     0.13342        1.0080 ; qtot    0.002
         6            c5bf         1   UNL        c5         6     0.17007       12.0110 ; qtot    0.172
         7            c6bf         1   UNL        c6         7    -0.18135       12.0110 ; qtot   -0.009
         8            c7bf         1   UNL        c7         8    -0.04187       12.0110 ; qtot   -0.051
         9            h8bf         1   UNL        h8         9     0.12903        1.0080 ; qtot    0.078
        10            o9bf         1   UNL        o9        10    -0.35834       15.9990 ; qtot   -0.281
        11           c10bf         1   UNL       c10        11     0.18141       12.0110 ; qtot   -0.099
        12           c11bf         1   UNL       c11        12    -0.08115       12.0110 ; qtot   -0.180
        13           h12bf         1   UNL       h12        13     0.08348        1.0080 ; qtot   -0.097
        14           h13bf         1   UNL       h13        14     0.08348        1.0080 ; qtot   -0.013
        15           c14bf         1   UNL       c14        15     0.10827       12.0110 ; qtot    0.095
        16           c15bf         1   UNL       c15        16     0.55024       12.0110 ; qtot    0.645
        17           n16bf         1   UNL       n16        17    -0.64651       14.0070 ; qtot   -0.001
        18           c17bf         1   UNL       c17        18     0.99722       12.0110 ; qtot    0.996
        19           n18bf         1   UNL       n18        19    -0.63159       14.0070 ; qtot    0.364
        20           h19bf         1   UNL       h19        20     0.41427        1.0080 ; qtot    0.778
        21           c20bf         1   UNL       c20        21    -0.07888       12.0110 ; qtot    0.700
        22           c21bf         1   UNL       c21        22     0.07086       12.0110 ; qtot    0.770
        23           h22bf         1   UNL       h22        23     0.09037        1.0080 ; qtot    0.861
        24           h23bf         1   UNL       h23        24     0.09037        1.0080 ; qtot    0.951
        25           h24bf         1   UNL       h24        25     0.09037        1.0080 ; qtot    1.042
        26           n25bf         1   UNL       n25        26    -0.57853       14.0070 ; qtot    0.463
        27           h26bf         1   UNL       h26        27     0.38249        1.0080 ; qtot    0.846
        28           h27bf         1   UNL       h27        28     0.38249        1.0080 ; qtot    1.228
        29           c28bf         1   UNL       c28        29    -0.01019       12.0110 ; qtot    1.218
        30           h29bf         1   UNL       h29        30     0.14039        1.0080 ; qtot    1.358
        31           c30bf         1   UNL       c30        31    -0.24491       12.0110 ; qtot    1.113
        32           c31bf         1   UNL       c31        32     0.34766       12.0110 ; qtot    1.461
        33           f32bf         1   UNL       f32        33    -0.10184       18.9980 ; qtot    1.359
        34           f33bf         1   UNL       f33        34    -0.10184       18.9980 ; qtot    1.257
        35           f34bf         1   UNL       f34        35    -0.10184       18.9980 ; qtot    1.155
        36           c35bf         1   UNL       c35        36     0.39151       12.0110 ; qtot    1.547
        37           h36bf         1   UNL       h36        37     0.04208        1.0080 ; qtot    1.589
        38           n37bf         1   UNL       n37        38    -0.65789       14.0070 ; qtot    0.931
        39           c38bf         1   UNL       c38        39     0.35071       12.0110 ; qtot    1.282
        40           h39bf         1   UNL       h39        40     0.02377        1.0080 ; qtot    1.306
        41           o40bf         1   UNL       o40        41    -0.39811       15.9990 ; qtot    0.907
        42           c41bf         1   UNL       c41        42    -0.10005       12.0110 ; qtot    0.807
        43           h42bf         1   UNL       h42        43     0.04877        1.0080 ; qtot    0.856
        44           h43bf         1   UNL       h43        44     0.04877        1.0080 ; qtot    0.905
        45           h44bf         1   UNL       h44        45     0.04877        1.0080 ; qtot    0.954
        46           c45bf         1   UNL       c45        46    -0.10005       12.0110 ; qtot    0.854
        47           h46bf         1   UNL       h46        47     0.04877        1.0080 ; qtot    0.902
        48           h47bf         1   UNL       h47        48     0.04877        1.0080 ; qtot    0.951
        49           h48bf         1   UNL       h48        49     0.04876        1.0080 ; qtot    1.000

[ bonds ]
;       ai        aj funct               r               k
         1         2     1        0.140753   281234.005566
         1         8     1        0.140000   290161.472559
         1        21     1        0.147904   216931.972754
         2         3     1        0.108598   318401.531738
         2         4     1        0.139068   333178.886523
         4         5     1        0.108562   321104.966748
         4         6     1        0.140026   288678.966748
         6         7     1        0.140470   276536.760742
         6        10     1        0.136436   267339.417578
         7         8     1        0.139998   298416.189941
         7        15     1        0.151265   181133.452710
         8         9     1        0.108513   319331.440039
        10        11     1        0.145731   141482.468188
        11        12     1        0.154147   164699.186426
        11        42     1        0.152988   183033.962695
        11        46     1        0.152988   183033.962695
        12        13     1        0.109298   301656.951270
        12        14     1        0.109298   301656.951270
        12        15     1        0.154171   160537.276025
        15        16     1        0.154381   128485.484058
        15        19     1        0.148548   146191.332397
        16        17     1        0.141843   159362.683911
        16        41     1        0.120598   711921.900781
        17        18     1        0.135797   301738.465723
        17        22     1        0.146668   196952.070361
        18        19     1        0.133090   390989.564893
        18        26     1        0.133332   412686.071777
        19        20     1        0.101348   425202.319824
        21        29     1        0.140323   288715.382666
        21        39     1        0.140838   269742.408496
        22        23     1        0.109031   312124.791162
        22        24     1        0.109031   312124.791162
        22        25     1        0.109031   312124.816699
        26        27     1        0.101316   425666.584473
        26        28     1        0.101316   425666.584473
        29        30     1        0.108519   322272.804297
        29        31     1        0.139458   310942.857129
        31        32     1        0.150525   195507.653149
        31        36     1        0.139949   285901.882715
        32        33     1        0.135703   224564.018799
        32        34     1        0.135703   224564.018799
        32        35     1        0.135703   224564.018799
        36        37     1        0.108704   319597.817627
        36        38     1        0.133910   320621.115137
        38        39     1        0.133658   327313.702002
        39        40     1        0.108816   314535.315527
        42        43     1        0.109316   303222.120703
        42        44     1        0.109316   303222.120703
        42        45     1        0.109316   303222.120703
        46        47     1        0.109316   303222.120703
        46        48     1        0.109316   303222.120703
        46        49     1        0.109316   303222.120703

[ angles ]
;       ai        aj        ak funct           theta             cth
         1         2         3     1      119.746681      431.681404
         1         2         4     1      120.898476      693.611896
         1         8         7     1      121.762901      646.113510
         1         8         9     1      119.153709      423.977049
         1        21        29     1      121.950180      434.338285
         1        21        39     1      121.409424      549.353914
         2         1         8     1      117.730614      624.922817
         2         1        21     1      121.078659      563.963056
         2         4         5     1      121.219238      430.675242
         2         4         6     1      120.151649      735.766002
         3         2         4     1      119.133568      427.063113
         4         6         7     1      119.925880      589.802844
         4         6        10     1      116.437744      551.331380
         5         4         6     1      118.621658      435.820746
         6         7         8     1      118.902161      739.905440
         6         7        15     1      119.745766      586.516281
         6        10        11     1      117.993736      500.028604
         7         6        10     1      123.637672      514.558357
         7         8         9     1      119.080528      422.363806
         7        15        12     1      111.733620      557.947853
         7        15        16     1      112.067848      601.546658
         7        15        19     1      111.488197      598.667668
         8         1        21     1      121.039062      432.849152
         8         7        15     1      121.313820      441.561743
        10        11        12     1      109.078835      556.881551
        10        11        42     1      106.645714      604.086579
        10        11        46     1      106.645714      604.086579
        11        12        13     1      109.154335      466.471374
        11        12        14     1      109.154335      466.471374
        11        12        15     1      113.052734      640.250254
        11        42        43     1      110.474686      475.605615
        11        42        44     1      110.474686      475.605615
        11        42        45     1      110.474686      475.605615
        11        46        47     1      110.474686      475.605615
        11        46        48     1      110.474686      475.605615
        11        46        49     1      110.474686      475.605615
        12        11        42     1      111.385193      575.618575
        12        11        46     1      111.385193      575.618575
        12        15        16     1      110.797043      616.450307
        12        15        19     1      110.620262      611.566526
        13        12        14     1      107.420326      358.221546
        13        12        15     1      108.621048      474.551156
        14        12        15     1      108.621048      474.551156
        15        16        17     1      106.500320      167.360000
        15        16        41     1      127.583961      359.223303
        15        19        18     1      111.587624      619.880132
        15        19        20     1      121.368065      359.917625
        16        15        19     1      100.386848      329.498044
        16        17        18     1      109.401268      854.894893
        16        17        22     1      123.309692      531.050510
        17        16        41     1      124.771469      662.663728
        17        18        19     1      111.171402      582.762773
        17        18        26     1      123.442459      642.331720
        17        22        23     1      109.308334      484.616097
        17        22        24     1      109.308334      484.616097
        17        22        25     1      109.308334      484.616097
        18        17        22     1      126.712746      464.666028
        18        19        20     1      123.566017      425.702688
        18        26        27     1      120.916794      453.685646
        18        26        28     1      120.916794      453.685646
        19        18        26     1      125.735672      609.105451
        21        29        30     1      120.533669      421.831964
        21        29        31     1      119.186745      735.282840
        21        39        38     1      124.411644      737.244090
        21        39        40     1      119.876999      407.787639
        23        22        24     1      109.761864      350.063621
        23        22        25     1      109.761864      350.063653
        24        22        25     1      109.761864      350.063653
        27        26        28     1      117.283279      315.513827
        29        21        39     1      116.743118      667.761829
        29        31        32     1      120.417099      486.781995
        29        31        36     1      119.078102      704.034484
        30        29        31     1      120.132751      420.439968
        31        32        33     1      111.773987      596.969067
        31        32        34     1      111.773987      596.969067
        31        32        35     1      111.773987      596.969067
        31        36        37     1      120.607521      399.361287
        31        36        38     1      122.667847      700.622024
        32        31        36     1      120.064529      611.137758
        33        32        34     1      106.886452      699.845695
        33        32        35     1      106.886452      699.845695
        34        32        35     1      106.886452      699.845695
        36        38        39     1      117.851196      688.026610
        37        36        38     1      116.558250      340.521616
        38        39        40     1      115.905190      335.403948
        42        11        46     1      111.043091      610.311568
        43        42        44     1      108.427734      360.868117
        43        42        45     1      108.427734      360.868117
        44        42        45     1      108.427734      360.868117
        47        46        48     1      108.427734      360.868117
        47        46        49     1      108.427734      360.868117
        48        46        49     1      108.427734      360.868149

[ dihedrals ] ; propers for gromacs 4.5 or higher, use funct 9
;       ai        aj        ak        al funct           phase               k        pn
         1         2         4         5     9        0.000000       -0.034229         1
         1         2         4         5     9      180.000000       14.526625         2
         1         2         4         5     9        0.000000       -0.474359         3
         1         2         4         5     9      180.000000        0.132238         4
         1         2         4         6     9        0.000000        0.045536         1
         1         2         4         6     9      180.000000       18.982769         2
         1         2         4         6     9        0.000000       -1.441517         3
         1         2         4         6     9      180.000000       -0.486546         4
         1         8         7         6     9        0.000000        0.027133         1
         1         8         7         6     9      180.000000       18.997461         2
         1         8         7         6     9        0.000000       -1.298260         3
         1         8         7         6     9      180.000000       -0.491697         4
         1         8         7        15     9        0.000000        0.224487         1
         1         8         7        15     9      180.000000       16.499896         2
         1         8         7        15     9        0.000000       -0.093414         3
         1         8         7        15     9      180.000000       -0.376368         4
         1        21        29        30     9        0.000000       -0.045022         1
         1        21        29        30     9      180.000000       13.130505         2
         1        21        29        30     9        0.000000       -0.209430         3
         1        21        29        30     9      180.000000        0.122002         4
         1        21        29        31     9        0.000000        0.358200         1
         1        21        29        31     9      180.000000       17.071137         2
         1        21        29        31     9        0.000000       -0.072091         3
         1        21        29        31     9      180.000000       -0.537207         4
         1        21        39        38     9        0.000000        0.407950         1
         1        21        39        38     9      180.000000       15.015137         2
         1        21        39        38     9        0.000000        0.054824         3
         1        21        39        38     9      180.000000       -0.472489         4
         1        21        39        40     9        0.000000        0.046561         1
         1        21        39        40     9      180.000000       12.949047         2
         1        21        39        40     9        0.000000       -0.182814         3
         1        21        39        40     9      180.000000        0.165906         4
         2         1         8         7     9        0.000000       -0.111235         1
         2         1         8         7     9      180.000000       18.464535         2
         2         1         8         7     9        0.000000       -1.816259         3
         2         1         8         7     9      180.000000       -0.441249         4
         2         1         8         9     9        0.000000       -0.070416         1
         2         1         8         9     9      180.000000       14.466738         2
         2         1         8         9     9        0.000000       -0.599515         3
         2         1         8         9     9      180.000000        0.060365         4
         2         1        21        29     9        0.000000        0.007236         1
         2         1        21        29     9      180.000000        3.260412         2
         2         1        21        29     9        0.000000        0.079217         3
         2         1        21        29     9      180.000000       -0.125816         4
         2         1        21        39     9        0.000000       -0.026020         1
         2         1        21        39     9      180.000000        2.835338         2
         2         1        21        39     9        0.000000        0.083204         3
         2         1        21        39     9      180.000000       -0.153287         4
         2         4         6         7     9        0.000000        0.006740         1
         2         4         6         7     9      180.000000       18.375536         2
         2         4         6         7     9        0.000000       -0.956938         3
         2         4         6         7     9      180.000000       -0.524286         4
         2         4         6        10     9        0.000000        0.476255         1
         2         4         6        10     9      180.000000       20.073690         2
         2         4         6        10     9        0.000000        0.732133         3
         2         4         6        10     9      180.000000       -0.566266         4
         3         2         1         8     9        0.000000       -0.149554         1
         3         2         1         8     9      180.000000       14.033932         2
         3         2         1         8     9        0.000000       -0.775376         3
         3         2         1         8     9      180.000000        0.054485         4
         3         2         1        21     9        0.000000       -0.148332         1
         3         2         1        21     9      180.000000       13.227142         2
         3         2         1        21     9        0.000000       -0.328245         3
         3         2         1        21     9      180.000000        0.107537         4
         3         2         4         5     9        0.000000       -0.099928         1
         3         2         4         5     9      180.000000       12.238243         2
         3         2         4         5     9        0.000000       -0.697002         3
         3         2         4         5     9      180.000000        0.360314         4
         3         2         4         6     9        0.000000        0.131256         1
         3         2         4         6     9      180.000000       14.644040         2
         3         2         4         6     9        0.000000       -0.531598         3
         3         2         4         6     9      180.000000        0.129726         4
         4         2         1         8     9        0.000000       -0.176229         1
         4         2         1         8     9      180.000000       18.182737         2
         4         2         1         8     9        0.000000       -1.593819         3
         4         2         1         8     9      180.000000       -0.329654         4
         4         2         1        21     9        0.000000        0.163425         1
         4         2         1        21     9      180.000000       16.195371         2
         4         2         1        21     9        0.000000       -0.297108         3
         4         2         1        21     9      180.000000       -0.349673         4
         4         6         7         8     9        0.000000       -0.095826         1
         4         6         7         8     9      180.000000       15.373859         2
         4         6         7         8     9        0.000000       -0.812716         3
         4         6         7         8     9      180.000000       -0.309478         4
         4         6         7        15     9        0.000000        0.317601         1
         4         6         7        15     9      180.000000       12.594617         2
         4         6         7        15     9        0.000000        0.140950         3
         4         6         7        15     9      180.000000       -0.263644         4
         4         6        10        11     9        0.000000       -0.524440         1
         4         6        10        11     9      180.000000        0.965350         2
         4         6        10        11     9        0.000000        0.127626         3
         4         6        10        11     9      180.000000        0.274670         4
         5         4         6         7     9        0.000000        0.029945         1
         5         4         6         7     9      180.000000       13.435392         2
         5         4         6         7     9        0.000000       -0.361852         3
         5         4         6         7     9      180.000000       -0.014588         4
         5         4         6        10     9        0.000000        0.018714         1
         5         4         6        10     9      180.000000       16.055862         2
         5         4         6        10     9        0.000000        0.173212         3
         5         4         6        10     9      180.000000        0.104013         4
         6         7         8         9     9        0.000000        0.257708         1
         6         7         8         9     9      180.000000       14.607370         2
         6         7         8         9     9        0.000000       -0.267585         3
         6         7         8         9     9      180.000000        0.022047         4
         6         7        15        12     9        0.000000        0.442429         1
         6         7        15        12     9      180.000000       -0.582160         2
         6         7        15        12     9        0.000000        0.566510         3
         6         7        15        12     9      180.000000        0.177976         4
         6         7        15        16     9        0.000000        0.102814         1
         6         7        15        16     9      180.000000       -0.121196         2
         6         7        15        16     9        0.000000       -0.091766         3
         6         7        15        16     9      180.000000        0.098350         4
         6         7        15        19     9        0.000000       -1.211495         1
         6         7        15        19     9      180.000000        1.208789         2
         6         7        15        19     9        0.000000        0.479329         3
         6         7        15        19     9      180.000000       -0.237524         4
         6        10        11        12     9        0.000000        6.552491         1
         6        10        11        12     9      180.000000       -3.144803         2
         6        10        11        12     9        0.000000       -0.417738         3
         6        10        11        12     9      180.000000        0.734854         4
         6        10        11        42     9        0.000000       -0.601019         1
         6        10        11        42     9      180.000000        0.475001         2
         6        10        11        42     9        0.000000        0.451956         3
         6        10        11        42     9      180.000000        0.038632         4
         6        10        11        46     9        0.000000       -0.601019         1
         6        10        11        46     9      180.000000        0.475001         2
         6        10        11        46     9        0.000000        0.451956         3
         6        10        11        46     9      180.000000        0.038632         4
         7         6        10        11     9        0.000000        1.640771         1
         7         6        10        11     9      180.000000        0.065588         2
         7         6        10        11     9        0.000000       -0.117565         3
         7         6        10        11     9      180.000000        0.605195         4
         7         8         1        21     9        0.000000        0.057345         1
         7         8         1        21     9      180.000000       17.090539         2
         7         8         1        21     9        0.000000       -0.245843         3
         7         8         1        21     9      180.000000       -0.524704         4
         7        15        12        11     9        0.000000        1.224939         1
         7        15        12        11     9      180.000000       -1.112698         2
         7        15        12        11     9        0.000000        0.379613         3
         7        15        12        11     9      180.000000        0.212213         4
         7        15        12        13     9        0.000000        0.060303         1
         7        15        12        13     9      180.000000        0.038717         2
         7        15        12        13     9        0.000000        0.531071         3
         7        15        12        13     9      180.000000        0.004443         4
         7        15        12        14     9        0.000000        0.060303         1
         7        15        12        14     9      180.000000        0.038717         2
         7        15        12        14     9        0.000000        0.531071         3
         7        15        12        14     9      180.000000        0.004443         4
         7        15        16        17     9        0.000000        0.204138         1
         7        15        16        17     9      180.000000        2.054007         2
         7        15        16        17     9        0.000000        0.314617         3
         7        15        16        17     9      180.000000        0.636535         4
         7        15        16        41     9        0.000000       -1.028429         1
         7        15        16        41     9      180.000000        1.994955         2
         7        15        16        41     9        0.000000       -0.383167         3
         7        15        16        41     9      180.000000        0.534449         4
         7        15        19        18     9        0.000000        1.475577         1
         7        15        19        18     9      180.000000        0.330887         2
         7        15        19        18     9        0.000000        0.426833         3
         7        15        19        18     9      180.000000        0.176206         4
         7        15        19        20     9        0.000000        1.133225         1
         7        15        19        20     9      180.000000       -0.176846         2
         7        15        19        20     9        0.000000        0.307694         3
         7        15        19        20     9      180.000000        0.155610         4
         8         1        21        29     9        0.000000       -0.120680         1
         8         1        21        29     9      180.000000        3.381272         2
         8         1        21        29     9        0.000000        0.079163         3
         8         1        21        29     9      180.000000       -0.133802         4
         8         1        21        39     9        0.000000       -0.028331         1
         8         1        21        39     9      180.000000        3.020373         2
         8         1        21        39     9        0.000000        0.122145         3
         8         1        21        39     9      180.000000       -0.174768         4
         8         7         6        10     9        0.000000        0.081325         1
         8         7         6        10     9      180.000000       16.854432         2
         8         7         6        10     9        0.000000        0.620140         3
         8         7         6        10     9      180.000000       -0.438171         4
         8         7        15        12     9        0.000000       -0.406409         1
         8         7        15        12     9      180.000000        0.653538         2
         8         7        15        12     9        0.000000       -0.255390         3
         8         7        15        12     9      180.000000        0.240537         4
         8         7        15        16     9        0.000000       -0.840165         1
         8         7        15        16     9      180.000000       -0.271277         2
         8         7        15        16     9        0.000000       -0.294592         3
         8         7        15        16     9      180.000000        0.220637         4
         8         7        15        19     9        0.000000       -0.256939         1
         8         7        15        19     9      180.000000        1.910004         2
         8         7        15        19     9        0.000000       -0.161648         3
         8         7        15        19     9      180.000000       -0.006959         4
         9         8         1        21     9        0.000000       -0.101954         1
         9         8         1        21     9      180.000000       13.238204         2
         9         8         1        21     9        0.000000       -0.230306         3
         9         8         1        21     9      180.000000        0.150051         4
         9         8         7        15     9        0.000000       -0.089390         1
         9         8         7        15     9      180.000000       13.499754         2
         9         8         7        15     9        0.000000       -0.225839         3
         9         8         7        15     9      180.000000        0.074571         4
        10         6         7        15     9        0.000000        0.652877         1
        10         6         7        15     9      180.000000       13.735837         2
        10         6         7        15     9        0.000000        0.969375         3
        10         6         7        15     9      180.000000       -0.661470         4
        10        11        12        13     9        0.000000        0.010187         1
        10        11        12        13     9      180.000000        0.032223         2
        10        11        12        13     9        0.000000        0.118020         3
        10        11        12        13     9      180.000000        0.005280         4
        10        11        12        14     9        0.000000        0.010187         1
        10        11        12        14     9      180.000000        0.032223         2
        10        11        12        14     9        0.000000        0.118020         3
        10        11        12        14     9      180.000000        0.005280         4
        10        11        12        15     9        0.000000        6.398275         1
        10        11        12        15     9      180.000000       -3.171040         2
        10        11        12        15     9        0.000000       -0.812227         3
        10        11        12        15     9      180.000000        0.264324         4
        10        11        42        43     9        0.000000        0.022757         1
        10        11        42        43     9      180.000000       -0.106326         2
        10        11        42        43     9        0.000000        0.371208         3
        10        11        42        43     9      180.000000        0.017378         4
        10        11        42        44     9        0.000000        0.022757         1
        10        11        42        44     9      180.000000       -0.106326         2
        10        11        42        44     9        0.000000        0.371208         3
        10        11        42        44     9      180.000000        0.017378         4
        10        11        42        45     9        0.000000        0.022757         1
        10        11        42        45     9      180.000000       -0.106326         2
        10        11        42        45     9        0.000000        0.371208         3
        10        11        42        45     9      180.000000        0.017378         4
        10        11        46        47     9        0.000000        0.022757         1
        10        11        46        47     9      180.000000       -0.106326         2
        10        11        46        47     9        0.000000        0.371208         3
        10        11        46        47     9      180.000000        0.017378         4
        10        11        46        48     9        0.000000        0.022757         1
        10        11        46        48     9      180.000000       -0.106326         2
        10        11        46        48     9        0.000000        0.371208         3
        10        11        46        48     9      180.000000        0.017378         4
        10        11        46        49     9        0.000000        0.022757         1
        10        11        46        49     9      180.000000       -0.106326         2
        10        11        46        49     9        0.000000        0.371208         3
        10        11        46        49     9      180.000000        0.017378         4
        11        12        15        16     9        0.000000       -0.158489         1
        11        12        15        16     9      180.000000        0.109710         2
        11        12        15        16     9        0.000000        0.008060         3
        11        12        15        16     9      180.000000        0.059205         4
        11        12        15        19     9        0.000000       -1.376753         1
        11        12        15        19     9      180.000000       -0.656378         2
        11        12        15        19     9        0.000000        0.372563         3
        11        12        15        19     9      180.000000        0.291438         4
        12        11        42        43     9        0.000000       -0.089919         1
        12        11        42        43     9      180.000000        0.000423         2
        12        11        42        43     9        0.000000        0.433042         3
        12        11        42        43     9      180.000000        0.019250         4
        12        11        42        44     9        0.000000       -0.089919         1
        12        11        42        44     9      180.000000        0.000423         2
        12        11        42        44     9        0.000000        0.433042         3
        12        11        42        44     9      180.000000        0.019250         4
        12        11        42        45     9        0.000000       -0.089919         1
        12        11        42        45     9      180.000000        0.000423         2
        12        11        42        45     9        0.000000        0.433042         3
        12        11        42        45     9      180.000000        0.019250         4
        12        11        46        47     9        0.000000       -0.089919         1
        12        11        46        47     9      180.000000        0.000423         2
        12        11        46        47     9        0.000000        0.433042         3
        12        11        46        47     9      180.000000        0.019250         4
        12        11        46        48     9        0.000000       -0.089919         1
        12        11        46        48     9      180.000000        0.000423         2
        12        11        46        48     9        0.000000        0.433042         3
        12        11        46        48     9      180.000000        0.019250         4
        12        11        46        49     9        0.000000       -0.089919         1
        12        11        46        49     9      180.000000        0.000423         2
        12        11        46        49     9        0.000000        0.433042         3
        12        11        46        49     9      180.000000        0.019250         4
        12        15        16        17     9        0.000000       -0.141660         1
        12        15        16        17     9      180.000000        3.066579         2
        12        15        16        17     9        0.000000        0.134318         3
        12        15        16        17     9      180.000000        0.386088         4
        12        15        16        41     9        0.000000        1.080604         1
        12        15        16        41     9      180.000000        2.732702         2
        12        15        16        41     9        0.000000       -0.579963         3
        12        15        16        41     9      180.000000        0.528779         4
        12        15        19        18     9        0.000000       -0.582310         1
        12        15        19        18     9      180.000000        0.755302         2
        12        15        19        18     9        0.000000        0.351235         3
        12        15        19        18     9      180.000000        0.157736         4
        12        15        19        20     9        0.000000        0.171427         1
        12        15        19        20     9      180.000000       -0.174988         2
        12        15        19        20     9        0.000000        0.231541         3
        12        15        19        20     9      180.000000       -0.054083         4
        13        12        11        42     9        0.000000       -0.021980         1
        13        12        11        42     9      180.000000       -0.009422         2
        13        12        11        42     9        0.000000        0.356718         3
        13        12        11        42     9      180.000000       -0.000954         4
        13        12        11        46     9        0.000000       -0.021980         1
        13        12        11        46     9      180.000000       -0.009422         2
        13        12        11        46     9        0.000000        0.356718         3
        13        12        11        46     9      180.000000       -0.000954         4
        13        12        15        16     9        0.000000       -0.120531         1
        13        12        15        16     9      180.000000        0.006259         2
        13        12        15        16     9        0.000000        0.249160         3
        13        12        15        16     9      180.000000        0.015556         4
        13        12        15        19     9        0.000000        0.048077         1
        13        12        15        19     9      180.000000        0.031139         2
        13        12        15        19     9        0.000000        0.441342         3
        13        12        15        19     9      180.000000       -0.090829         4
        14        12        11        42     9        0.000000       -0.021980         1
        14        12        11        42     9      180.000000       -0.009422         2
        14        12        11        42     9        0.000000        0.356718         3
        14        12        11        42     9      180.000000       -0.000954         4
        14        12        11        46     9        0.000000       -0.021980         1
        14        12        11        46     9      180.000000       -0.009422         2
        14        12        11        46     9        0.000000        0.356718         3
        14        12        11        46     9      180.000000       -0.000954         4
        14        12        15        16     9        0.000000       -0.120531         1
        14        12        15        16     9      180.000000        0.006259         2
        14        12        15        16     9        0.000000        0.249160         3
        14        12        15        16     9      180.000000        0.015556         4
        14        12        15        19     9        0.000000        0.048077         1
        14        12        15        19     9      180.000000        0.031139         2
        14        12        15        19     9        0.000000        0.441342         3
        14        12        15        19     9      180.000000       -0.090829         4
        15        12        11        42     9        0.000000       -0.491719         1
        15        12        11        42     9      180.000000        0.610387         2
        15        12        11        42     9        0.000000        0.252005         3
        15        12        11        42     9      180.000000       -0.014027         4
        15        12        11        46     9        0.000000       -0.491719         1
        15        12        11        46     9      180.000000        0.610387         2
        15        12        11        46     9        0.000000        0.252005         3
        15        12        11        46     9      180.000000       -0.014027         4
        15        16        17        18     9        0.000000       -2.621426         1
        15        16        17        18     9      180.000000       12.608727         2
        15        16        17        18     9        0.000000       -1.689385         3
        15        16        17        18     9      180.000000       -0.516965         4
        15        16        17        22     9        0.000000       -1.161959         1
        15        16        17        22     9      180.000000        6.523790         2
        15        16        17        22     9        0.000000        0.171203         3
        15        16        17        22     9      180.000000       -0.171941         4
        15        19        18        17     9        0.000000       -1.486140         1
        15        19        18        17     9      180.000000       26.058799         2
        15        19        18        17     9        0.000000       -2.115652         3
        15        19        18        17     9      180.000000       -2.999679         4
        15        19        18        26     9        0.000000        1.704033         1
        15        19        18        26     9      180.000000       19.771991         2
        15        19        18        26     9        0.000000        0.715132         3
        15        19        18        26     9      180.000000       -2.025611         4
        16        15        19        18     9        0.000000       -3.202930         1
        16        15        19        18     9      180.000000        3.675471         2
        16        15        19        18     9        0.000000       -0.128940         3
        16        15        19        18     9      180.000000       -0.635128         4
        16        15        19        20     9        0.000000       -0.882341         1
        16        15        19        20     9      180.000000       -0.826404         2
        16        15        19        20     9        0.000000        0.165262         3
        16        15        19        20     9      180.000000        0.141885         4
        16        17        18        19     9        0.000000       -2.490328         1
        16        17        18        19     9      180.000000       13.834040         2
        16        17        18        19     9        0.000000       -2.378247         3
        16        17        18        19     9      180.000000       -1.280421         4
        16        17        18        26     9        0.000000        1.935113         1
        16        17        18        26     9      180.000000       11.081021         2
        16        17        18        26     9        0.000000       -0.210529         3
        16        17        18        26     9      180.000000       -0.637296         4
        16        17        22        23     9        0.000000       -0.046462         1
        16        17        22        23     9      180.000000       -0.089247         2
        16        17        22        23     9        0.000000       -0.283225         3
        16        17        22        23     9      180.000000        0.030104         4
        16        17        22        24     9        0.000000       -0.046462         1
        16        17        22        24     9      180.000000       -0.089247         2
        16        17        22        24     9        0.000000       -0.283225         3
        16        17        22        24     9      180.000000        0.030104         4
        16        17        22        25     9        0.000000       -0.046462         1
        16        17        22        25     9      180.000000       -0.089247         2
        16        17        22        25     9        0.000000       -0.283225         3
        16        17        22        25     9      180.000000        0.030104         4
        17        16        15        19     9        0.000000        0.490408         1
        17        16        15        19     9      180.000000        7.821340         2
        17        16        15        19     9        0.000000       -0.339097         3
        17        16        15        19     9      180.000000       -0.046198         4
        17        18        19        20     9        0.000000        0.456219         1
        17        18        19        20     9      180.000000       11.615587         2
        17        18        19        20     9        0.000000        0.224486         3
        17        18        19        20     9      180.000000       -0.965494         4
        17        18        26        27     9        0.000000       -0.170244         1
        17        18        26        27     9      180.000000        6.404527         2
        17        18        26        27     9        0.000000        0.524424         3
        17        18        26        27     9      180.000000       -0.541232         4
        17        18        26        28     9        0.000000       -0.170244         1
        17        18        26        28     9      180.000000        6.404527         2
        17        18        26        28     9        0.000000        0.524424         3
        17        18        26        28     9      180.000000       -0.541232         4
        18        17        16        41     9        0.000000        1.168478         1
        18        17        16        41     9      180.000000       20.631698         2
        18        17        16        41     9        0.000000       -0.713105         3
        18        17        16        41     9      180.000000       -0.822735         4
        18        17        22        23     9        0.000000        0.029063         1
        18        17        22        23     9      180.000000        0.021416         2
        18        17        22        23     9        0.000000        0.188894         3
        18        17        22        23     9      180.000000       -0.011671         4
        18        17        22        24     9        0.000000        0.029063         1
        18        17        22        24     9      180.000000        0.021416         2
        18        17        22        24     9        0.000000        0.188894         3
        18        17        22        24     9      180.000000       -0.011671         4
        18        17        22        25     9        0.000000        0.029063         1
        18        17        22        25     9      180.000000        0.021416         2
        18        17        22        25     9        0.000000        0.188894         3
        18        17        22        25     9      180.000000       -0.011671         4
        19        15        16        41     9        0.000000        7.981292         1
        19        15        16        41     9      180.000000        7.024952         2
        19        15        16        41     9        0.000000       -0.163171         3
        19        15        16        41     9      180.000000        0.325120         4
        19        18        17        22     9        0.000000       -3.776014         1
        19        18        17        22     9      180.000000        5.458345         2
        19        18        17        22     9        0.000000       -0.154527         3
        19        18        17        22     9      180.000000        0.081931         4
        19        18        26        27     9        0.000000       -1.696700         1
        19        18        26        27     9      180.000000        6.696568         2
        19        18        26        27     9        0.000000        0.180424         3
        19        18        26        27     9      180.000000       -0.442659         4
        19        18        26        28     9        0.000000       -1.696700         1
        19        18        26        28     9      180.000000        6.696568         2
        19        18        26        28     9        0.000000        0.180424         3
        19        18        26        28     9      180.000000       -0.442659         4
        20        19        18        26     9        0.000000        0.829726         1
        20        19        18        26     9      180.000000        7.727449         2
        20        19        18        26     9        0.000000        0.246605         3
        20        19        18        26     9      180.000000       -0.383134         4
        21        29        31        32     9        0.000000        0.201067         1
        21        29        31        32     9      180.000000       15.069342         2
        21        29        31        32     9        0.000000       -0.009448         3
        21        29        31        32     9      180.000000       -0.309757         4
        21        29        31        36     9        0.000000       -0.100746         1
        21        29        31        36     9      180.000000       18.041118         2
        21        29        31        36     9        0.000000       -1.616168         3
        21        29        31        36     9      180.000000       -0.369783         4
        21        39        38        36     9        0.000000        0.228447         1
        21        39        38        36     9      180.000000       22.377850         2
        21        39        38        36     9        0.000000       -0.570506         3
        21        39        38        36     9      180.000000       -0.113031         4
        22        17        16        41     9        0.000000       -0.327768         1
        22        17        16        41     9      180.000000        9.752935         2
        22        17        16        41     9        0.000000       -0.183564         3
        22        17        16        41     9      180.000000        0.446364         4
        22        17        18        26     9        0.000000        1.331771         1
        22        17        18        26     9      180.000000        6.631611         2
        22        17        18        26     9        0.000000        0.055652         3
        22        17        18        26     9      180.000000       -0.063283         4
        29        21        39        38     9        0.000000        0.001359         1
        29        21        39        38     9      180.000000       16.696952         2
        29        21        39        38     9        0.000000       -0.668832         3
        29        21        39        38     9      180.000000       -0.306828         4
        29        21        39        40     9        0.000000       -0.185881         1
        29        21        39        40     9      180.000000       13.242208         2
        29        21        39        40     9        0.000000       -0.388290         3
        29        21        39        40     9      180.000000        0.120301         4
        29        31        32        33     9        0.000000       -0.085714         1
        29        31        32        33     9      180.000000        0.140836         2
        29        31        32        33     9        0.000000        0.077643         3
        29        31        32        33     9      180.000000        0.008747         4
        29        31        32        34     9        0.000000       -0.085714         1
        29        31        32        34     9      180.000000        0.140836         2
        29        31        32        34     9        0.000000        0.077643         3
        29        31        32        34     9      180.000000        0.008747         4
        29        31        32        35     9        0.000000       -0.085714         1
        29        31        32        35     9      180.000000        0.140836         2
        29        31        32        35     9        0.000000        0.077643         3
        29        31        32        35     9      180.000000        0.008747         4
        29        31        36        37     9        0.000000        0.056039         1
        29        31        36        37     9      180.000000       12.902207         2
        29        31        36        37     9        0.000000       -0.347268         3
        29        31        36        37     9      180.000000        0.082233         4
        29        31        36        38     9        0.000000       -0.177852         1
        29        31        36        38     9      180.000000       16.804174         2
        29        31        36        38     9        0.000000       -0.798455         3
        29        31        36        38     9      180.000000       -0.336320         4
        30        29        21        39     9        0.000000       -0.134831         1
        30        29        21        39     9      180.000000       13.293598         2
        30        29        21        39     9        0.000000       -0.710277         3
        30        29        21        39     9      180.000000        0.050252         4
        30        29        31        32     9        0.000000       -0.036325         1
        30        29        31        32     9      180.000000       12.172229         2
        30        29        31        32     9        0.000000       -0.344976         3
        30        29        31        32     9      180.000000        0.149692         4
        30        29        31        36     9        0.000000        0.052611         1
        30        29        31        36     9      180.000000       13.646219         2
        30        29        31        36     9        0.000000       -0.689736         3
        30        29        31        36     9      180.000000        0.077903         4
        31        29        21        39     9        0.000000       -0.037778         1
        31        29        21        39     9      180.000000       18.014166         2
        31        29        21        39     9        0.000000       -1.776458         3
        31        29        21        39     9      180.000000       -0.397825         4
        31        36        38        39     9        0.000000        0.232208         1
        31        36        38        39     9      180.000000       21.879052         2
        31        36        38        39     9        0.000000       -0.924936         3
        31        36        38        39     9      180.000000       -0.129085         4
        32        31        36        37     9        0.000000        0.106738         1
        32        31        36        37     9      180.000000       11.607984         2
        32        31        36        37     9        0.000000       -0.307115         3
        32        31        36        37     9      180.000000        0.154312         4
        32        31        36        38     9        0.000000       -0.066896         1
        32        31        36        38     9      180.000000       13.958973         2
        32        31        36        38     9        0.000000       -0.004316         3
        32        31        36        38     9      180.000000       -0.400653         4
        33        32        31        36     9        0.000000        0.083771         1
        33        32        31        36     9      180.000000        0.023505         2
        33        32        31        36     9        0.000000        0.020350         3
        33        32        31        36     9      180.000000        0.002043         4
        34        32        31        36     9        0.000000        0.083771         1
        34        32        31        36     9      180.000000        0.023505         2
        34        32        31        36     9        0.000000        0.020350         3
        34        32        31        36     9      180.000000        0.002043         4
        35        32        31        36     9        0.000000        0.083771         1
        35        32        31        36     9      180.000000        0.023505         2
        35        32        31        36     9        0.000000        0.020350         3
        35        32        31        36     9      180.000000        0.002043         4
        36        38        39        40     9        0.000000        1.200340         1
        36        38        39        40     9      180.000000       20.477623         2
        36        38        39        40     9        0.000000        0.187213         3
        36        38        39        40     9      180.000000       -0.144867         4
        37        36        38        39     9        0.000000        1.039658         1
        37        36        38        39     9      180.000000       19.476750         2
        37        36        38        39     9        0.000000        0.222056         3
        37        36        38        39     9      180.000000       -0.405921         4
        42        11        46        47     9        0.000000       -0.082665         1
        42        11        46        47     9      180.000000        0.011908         2
        42        11        46        47     9        0.000000        0.531653         3
        42        11        46        47     9      180.000000        0.044561         4
        42        11        46        48     9        0.000000       -0.082665         1
        42        11        46        48     9      180.000000        0.011908         2
        42        11        46        48     9        0.000000        0.531653         3
        42        11        46        48     9      180.000000        0.044561         4
        42        11        46        49     9        0.000000       -0.082665         1
        42        11        46        49     9      180.000000        0.011908         2
        42        11        46        49     9        0.000000        0.531653         3
        42        11        46        49     9      180.000000        0.044561         4
        43        42        11        46     9        0.000000       -0.082665         1
        43        42        11        46     9      180.000000        0.011908         2
        43        42        11        46     9        0.000000        0.531653         3
        43        42        11        46     9      180.000000        0.044561         4
        44        42        11        46     9        0.000000       -0.082665         1
        44        42        11        46     9      180.000000        0.011908         2
        44        42        11        46     9        0.000000        0.531653         3
        44        42        11        46     9      180.000000        0.044561         4
        45        42        11        46     9        0.000000       -0.082665         1
        45        42        11        46     9      180.000000        0.011908         2
        45        42        11        46     9        0.000000        0.531653         3
        45        42        11        46     9      180.000000        0.044561         4

[ dihedrals ] ; impropers
;       ai        aj        ak        al funct           phase               k        pn
        16        15        17        41     4      180.000000       26.920058         2
        16        17        41        15     4      180.000000       26.920058         2
        16        41        15        17     4      180.000000       26.920058         2
        18        17        19        26     4      180.000000       10.189569         2
        18        19        26        17     4      180.000000       10.189569         2
        18        26        17        19     4      180.000000       10.189569         2
        36        31        37        38     4      180.000000        7.251808         2
        36        37        38        31     4      180.000000        7.251808         2
        36        38        31        37     4      180.000000        7.251808         2
        39        21        38        40     4      180.000000        2.377060         2
        39        38        40        21     4      180.000000        2.377060         2
        39        40        21        38     4      180.000000        2.377060         2

[ pairs ]
;       ai        aj funct
         1         5     1
         1         6     1
         1        15     1
         1        30     1
         1        31     1
         1        38     1
         1        40     1
         2         7     1
         2         9     1
         2        10     1
         2        29     1
         2        39     1
         3         5     1
         3         6     1
         3         8     1
         3        21     1
         4         8     1
         4        11     1
         4        15     1
         4        21     1
         5         7     1
         5        10     1
         6         9     1
         6        12     1
         6        16     1
         6        19     1
         6        42     1
         6        46     1
         7        11     1
         7        13     1
         7        14     1
         7        17     1
         7        18     1
         7        20     1
         7        21     1
         7        41     1
         8        10     1
         8        12     1
         8        16     1
         8        19     1
         8        29     1
         8        39     1
         9        15     1
         9        21     1
        10        13     1
        10        14     1
        10        15     1
        10        43     1
        10        44     1
        10        45     1
        10        47     1
        10        48     1
        10        49     1
        11        16     1
        11        19     1
        12        17     1
        12        18     1
        12        20     1
        12        41     1
        12        43     1
        12        44     1
        12        45     1
        12        47     1
        12        48     1
        12        49     1
        13        16     1
        13        19     1
        13        42     1
        13        46     1
        14        16     1
        14        19     1
        14        42     1
        14        46     1
        15        22     1
        15        26     1
        15        42     1
        15        46     1
        16        20     1
        16        23     1
        16        24     1
        16        25     1
        16        26     1
        17        20     1
        17        27     1
        17        28     1
        18        23     1
        18        24     1
        18        25     1
        18        41     1
        19        22     1
        19        27     1
        19        28     1
        19        41     1
        20        26     1
        21        32     1
        21        36     1
        22        26     1
        22        41     1
        29        33     1
        29        34     1
        29        35     1
        29        37     1
        29        38     1
        29        40     1
        30        32     1
        30        36     1
        30        39     1
        31        39     1
        32        37     1
        32        38     1
        33        36     1
        34        36     1
        35        36     1
        36        40     1
        37        39     1
        42        47     1
        42        48     1
        42        49     1
        43        46     1
        44        46     1
        45        46     1
