; ITP file created by ByteFF-ML, 2026-03-14 15:25:51.590856

[ atomtypes ]
;name           bonded.type        at.num        mass        charge   ptype           sigma         epsilon
 c0bf                                   6      0.0000       0.00000       A     3.31403e-01     4.11058e-01
 c1bf                                   6      0.0000       0.00000       A     3.31567e-01     4.13331e-01
 h2bf                                   1      0.0000       0.00000       A     2.62485e-01     6.75153e-02
 c3bf                                   6      0.0000       0.00000       A     3.31523e-01     4.12056e-01
 h4bf                                   1      0.0000       0.00000       A     2.62405e-01     6.67253e-02
 c5bf                                   6      0.0000       0.00000       A     3.31279e-01     4.11283e-01
 c6bf                                   6      0.0000       0.00000       A     3.31150e-01     4.13198e-01
 c7bf                                   6      0.0000       0.00000       A     3.31460e-01     4.13532e-01
 h8bf                                   1      0.0000       0.00000       A     2.62592e-01     6.73030e-02
 o9bf                                   8      0.0000       0.00000       A     3.15529e-01     3.02270e-01
 c10bf                                  6      0.0000       0.00000       A     3.39880e-01     4.53386e-01
 c11bf                                  6      0.0000       0.00000       A     3.39567e-01     4.51771e-01
 h12bf                                  1      0.0000       0.00000       A     2.59417e-01     8.63170e-02
 h13bf                                  1      0.0000       0.00000       A     2.59417e-01     8.63170e-02
 c14bf                                  6      0.0000       0.00000       A     3.39917e-01     4.52880e-01
 c15bf                                  6      0.0000       0.00000       A     3.31525e-01     4.13256e-01
 n16bf                                  7      0.0000       0.00000       A     3.18147e-01     7.08350e-01
 c17bf                                  6      0.0000       0.00000       A     3.31173e-01     4.11985e-01
 n18bf                                  7      0.0000       0.00000       A     3.26363e-01     6.55753e-01
 h19bf                                  1      0.0000       0.00000       A     1.10240e-01     4.07109e-02
 c20bf                                  6      0.0000       0.00000       A     3.31223e-01     4.12737e-01
 c21bf                                  6      0.0000       0.00000       A     3.39925e-01     4.53383e-01
 h22bf                                  1      0.0000       0.00000       A     2.42238e-01     8.60936e-02
 h23bf                                  1      0.0000       0.00000       A     2.42238e-01     8.60936e-02
 h24bf                                  1      0.0000       0.00000       A     2.42238e-01     8.60936e-02
 n25bf                                  7      0.0000       0.00000       A     3.36693e-01     4.77150e-01
 h26bf                                  1      0.0000       0.00000       A     1.10539e-01     3.88978e-02
 h27bf                                  1      0.0000       0.00000       A     1.10539e-01     3.88978e-02
 c28bf                                  6      0.0000       0.00000       A     3.31439e-01     4.12630e-01
 h29bf                                  1      0.0000       0.00000       A     2.62352e-01     6.75632e-02
 c30bf                                  6      0.0000       0.00000       A     3.31455e-01     4.12415e-01
 c31bf                                  6      0.0000       0.00000       A     3.31492e-01     4.12949e-01
 h32bf                                  1      0.0000       0.00000       A     2.53693e-01     6.69120e-02
 n33bf                                  7      0.0000       0.00000       A     3.38267e-01     3.92488e-01
 c34bf                                  6      0.0000       0.00000       A     3.31497e-01     4.13467e-01
 h35bf                                  1      0.0000       0.00000       A     2.53647e-01     6.70142e-02
 o36bf                                  8      0.0000       0.00000       A     3.04358e-01     6.10575e-01
 c37bf                                  6      0.0000       0.00000       A     3.39798e-01     4.50250e-01
 h38bf                                  1      0.0000       0.00000       A     2.59893e-01     8.82802e-02
 h39bf                                  1      0.0000       0.00000       A     2.59893e-01     8.82802e-02
 h40bf                                  1      0.0000       0.00000       A     2.59893e-01     8.82802e-02
 c41bf                                  6      0.0000       0.00000       A     3.39798e-01     4.50250e-01
 h42bf                                  1      0.0000       0.00000       A     2.59893e-01     8.82802e-02
 h43bf                                  1      0.0000       0.00000       A     2.59893e-01     8.82802e-02
 h44bf                                  1      0.0000       0.00000       A     2.59893e-01     8.82802e-02
 c45bf                                  6      0.0000       0.00000       A     3.47993e-01     6.66156e-01
 c46bf                                  6      0.0000       0.00000       A     3.48008e-01     6.67168e-01
 c47bf                                  6      0.0000       0.00000       A     3.39646e-01     4.50152e-01
 h48bf                                  1      0.0000       0.00000       A     2.59927e-01     8.75364e-02
 h49bf                                  1      0.0000       0.00000       A     2.59927e-01     8.75364e-02
 h50bf                                  1      0.0000       0.00000       A     2.59927e-01     8.75364e-02

[ moleculetype ]
;name             nrexcl
 36                    3

[ atoms ]
;       nr            type      resi   res      atom      cgnr      charge          mass ; qtot
         1            c0bf         1   UNL        c0         1    -0.05386       12.0110 ; qtot   -0.054
         2            c1bf         1   UNL        c1         2    -0.06089       12.0110 ; qtot   -0.115
         3            h2bf         1   UNL        h2         3     0.11881        1.0080 ; qtot    0.004
         4            c3bf         1   UNL        c3         4    -0.13391       12.0110 ; qtot   -0.130
         5            h4bf         1   UNL        h4         5     0.13342        1.0080 ; qtot    0.004
         6            c5bf         1   UNL        c5         6     0.17007       12.0110 ; qtot    0.174
         7            c6bf         1   UNL        c6         7    -0.18135       12.0110 ; qtot   -0.008
         8            c7bf         1   UNL        c7         8    -0.03727       12.0110 ; qtot   -0.045
         9            h8bf         1   UNL        h8         9     0.12903        1.0080 ; qtot    0.084
        10            o9bf         1   UNL        o9        10    -0.35834       15.9990 ; qtot   -0.274
        11           c10bf         1   UNL       c10        11     0.18141       12.0110 ; qtot   -0.093
        12           c11bf         1   UNL       c11        12    -0.08115       12.0110 ; qtot   -0.174
        13           h12bf         1   UNL       h12        13     0.08348        1.0080 ; qtot   -0.091
        14           h13bf         1   UNL       h13        14     0.08348        1.0080 ; qtot   -0.007
        15           c14bf         1   UNL       c14        15     0.10827       12.0110 ; qtot    0.101
        16           c15bf         1   UNL       c15        16     0.55024       12.0110 ; qtot    0.651
        17           n16bf         1   UNL       n16        17    -0.64651       14.0070 ; qtot    0.005
        18           c17bf         1   UNL       c17        18     0.99722       12.0110 ; qtot    1.002
        19           n18bf         1   UNL       n18        19    -0.63159       14.0070 ; qtot    0.371
        20           h19bf         1   UNL       h19        20     0.41427        1.0080 ; qtot    0.785
        21           c20bf         1   UNL       c20        21    -0.08178       12.0110 ; qtot    0.703
        22           c21bf         1   UNL       c21        22     0.07086       12.0110 ; qtot    0.774
        23           h22bf         1   UNL       h22        23     0.09037        1.0080 ; qtot    0.864
        24           h23bf         1   UNL       h23        24     0.09037        1.0080 ; qtot    0.955
        25           h24bf         1   UNL       h24        25     0.09037        1.0080 ; qtot    1.045
        26           n25bf         1   UNL       n25        26    -0.57853       14.0070 ; qtot    0.466
        27           h26bf         1   UNL       h26        27     0.38249        1.0080 ; qtot    0.849
        28           h27bf         1   UNL       h27        28     0.38249        1.0080 ; qtot    1.231
        29           c28bf         1   UNL       c28        29    -0.05168       12.0110 ; qtot    1.180
        30           h29bf         1   UNL       h29        30     0.13027        1.0080 ; qtot    1.310
        31           c30bf         1   UNL       c30        31    -0.01197       12.0110 ; qtot    1.298
        32           c31bf         1   UNL       c31        32     0.35217       12.0110 ; qtot    1.650
        33           h32bf         1   UNL       h32        33     0.03032        1.0080 ; qtot    1.681
        34           n33bf         1   UNL       n33        34    -0.65938       14.0070 ; qtot    1.021
        35           c34bf         1   UNL       c34        35     0.34337       12.0110 ; qtot    1.365
        36           h35bf         1   UNL       h35        36     0.03049        1.0080 ; qtot    1.395
        37           o36bf         1   UNL       o36        37    -0.39811       15.9990 ; qtot    0.997
        38           c37bf         1   UNL       c37        38    -0.10005       12.0110 ; qtot    0.897
        39           h38bf         1   UNL       h38        39     0.04877        1.0080 ; qtot    0.946
        40           h39bf         1   UNL       h39        40     0.04877        1.0080 ; qtot    0.994
        41           h40bf         1   UNL       h40        41     0.04877        1.0080 ; qtot    1.043
        42           c41bf         1   UNL       c41        42    -0.10005       12.0110 ; qtot    0.943
        43           h42bf         1   UNL       h42        43     0.04877        1.0080 ; qtot    0.992
        44           h43bf         1   UNL       h43        44     0.04877        1.0080 ; qtot    1.041
        45           h44bf         1   UNL       h44        45     0.04877        1.0080 ; qtot    1.089
        46           c45bf         1   UNL       c45        46    -0.14127       12.0110 ; qtot    0.948
        47           c46bf         1   UNL       c46        47    -0.10048       12.0110 ; qtot    0.848
        48           c47bf         1   UNL       c47        48    -0.01104       12.0110 ; qtot    0.837
        49           h48bf         1   UNL       h48        49     0.05443        1.0080 ; qtot    0.891
        50           h49bf         1   UNL       h49        50     0.05443        1.0080 ; qtot    0.946
        51           h50bf         1   UNL       h50        51     0.05446        1.0080 ; qtot    1.000

[ bonds ]
;       ai        aj funct               r               k
         1         2     1        0.140704   282949.588574
         1         8     1        0.139947   292158.091455
         1        21     1        0.147979   216718.993262
         2         3     1        0.108598   318401.531738
         2         4     1        0.139068   333178.886523
         4         5     1        0.108562   321104.966748
         4         6     1        0.140026   288678.966748
         6         7     1        0.140470   276536.760742
         6        10     1        0.136436   267339.417578
         7         8     1        0.139998   298416.189941
         7        15     1        0.151265   181133.452710
         8         9     1        0.108513   319331.440039
        10        11     1        0.145731   141482.468188
        11        12     1        0.154147   164699.186426
        11        38     1        0.152988   183033.962695
        11        42     1        0.152988   183033.962695
        12        13     1        0.109298   301656.951270
        12        14     1        0.109298   301656.951270
        12        15     1        0.154171   160537.276025
        15        16     1        0.154381   128485.484058
        15        19     1        0.148548   146191.332397
        16        17     1        0.141843   159362.683911
        16        37     1        0.120598   711921.798633
        17        18     1        0.135797   301738.465723
        17        22     1        0.146668   196952.070361
        18        19     1        0.133090   390989.564893
        18        26     1        0.133332   412686.097314
        19        20     1        0.101348   425202.319824
        21        29     1        0.140017   295287.076855
        21        35     1        0.140851   270184.506934
        22        23     1        0.109031   312124.791162
        22        24     1        0.109031   312124.791162
        22        25     1        0.109031   312124.816699
        26        27     1        0.101316   425666.584473
        26        28     1        0.101316   425666.584473
        29        30     1        0.108523   321920.187891
        29        31     1        0.140423   295610.887402
        31        32     1        0.141112   267381.962402
        31        46     1        0.142834   286838.124219
        32        33     1        0.108743   318392.772510
        32        34     1        0.133520   326287.493262
        34        35     1        0.133768   324333.214893
        35        36     1        0.108775   316628.643457
        38        39     1        0.109316   303222.120703
        38        40     1        0.109316   303222.120703
        38        41     1        0.109316   303222.120703
        42        43     1        0.109316   303222.120703
        42        44     1        0.109316   303222.120703
        42        45     1        0.109316   303222.120703
        46        47     1        0.121595   952589.033398
        47        48     1        0.146431   266797.290283
        48        49     1        0.109467   299542.376465
        48        50     1        0.109467   299542.376465
        48        51     1        0.109467   299542.376465

[ angles ]
;       ai        aj        ak funct           theta             cth
         1         2         3     1      119.858505      431.146433
         1         2         4     1      120.795486      687.425531
         1         8         7     1      121.668961      639.660474
         1         8         9     1      119.270241      423.589173
         1        21        29     1      121.702591      442.097416
         1        21        35     1      121.294144      546.953681
         2         1         8     1      117.866722      626.411886
         2         1        21     1      121.094849      563.381448
         2         4         5     1      121.219238      430.675242
         2         4         6     1      120.151649      735.766002
         3         2         4     1      119.133568      427.063113
         4         6         7     1      119.925880      589.802844
         4         6        10     1      116.437744      551.331380
         5         4         6     1      118.621658      435.820746
         6         7         8     1      118.902161      739.905440
         6         7        15     1      119.745766      586.516281
         6        10        11     1      117.993736      500.028604
         7         6        10     1      123.637672      514.558357
         7         8         9     1      119.080528      422.363806
         7        15        12     1      111.733620      557.947853
         7        15        16     1      112.067848      601.546658
         7        15        19     1      111.488197      598.667668
         8         1        21     1      121.029808      430.545449
         8         7        15     1      121.313820      441.561743
        10        11        12     1      109.078835      556.881551
        10        11        38     1      106.645714      604.086579
        10        11        42     1      106.645714      604.086579
        11        12        13     1      109.154335      466.471374
        11        12        14     1      109.154335      466.471374
        11        12        15     1      113.052734      640.250254
        11        38        39     1      110.474686      475.605679
        11        38        40     1      110.474686      475.605679
        11        38        41     1      110.474686      475.605679
        11        42        43     1      110.474686      475.605615
        11        42        44     1      110.474686      475.605615
        11        42        45     1      110.474686      475.605615
        12        11        38     1      111.385193      575.618575
        12        11        42     1      111.385193      575.618575
        12        15        16     1      110.797043      616.450307
        12        15        19     1      110.620262      611.566526
        13        12        14     1      107.420326      358.221546
        13        12        15     1      108.621048      474.551156
        14        12        15     1      108.621048      474.551156
        15        16        17     1      106.500320      167.360000
        15        16        37     1      127.583961      359.223303
        15        19        18     1      111.587624      619.880132
        15        19        20     1      121.368065      359.917625
        16        15        19     1      100.386848      329.498044
        16        17        18     1      109.401268      854.894893
        16        17        22     1      123.309692      531.050510
        17        16        37     1      124.771469      662.663664
        17        18        19     1      111.171402      582.762773
        17        18        26     1      123.442459      642.331720
        17        22        23     1      109.308334      484.616097
        17        22        24     1      109.308334      484.616097
        17        22        25     1      109.308334      484.616097
        18        17        22     1      126.712746      464.666028
        18        19        20     1      123.566017      425.702688
        18        26        27     1      120.916794      453.685646
        18        26        28     1      120.916794      453.685646
        19        18        26     1      125.735672      609.105387
        21        29        30     1      120.614182      419.493339
        21        29        31     1      120.194054      733.041129
        21        35        34     1      124.272179      734.583123
        21        35        36     1      119.957336      407.658262
        23        22        24     1      109.761864      350.063653
        23        22        25     1      109.761864      350.063653
        24        22        25     1      109.761864      350.063621
        27        26        28     1      117.283279      315.513859
        29        21        35     1      116.880592      660.877790
        29        31        32     1      117.494484      740.671872
        29        31        46     1      121.497513      408.558764
        30        29        31     1      119.477554      432.443878
        31        32        33     1      119.648941      414.064150
        31        32        34     1      123.538330      698.746323
        31        46        47     1      179.624146      167.360000
        32        31        46     1      120.894165      469.363388
        32        34        35     1      117.937111      686.857713
        33        32        34     1      116.848068      335.809094
        34        35        36     1      115.968346      329.501300
        38        11        42     1      111.043091      610.311568
        39        38        40     1      108.427734      360.868117
        39        38        41     1      108.427734      360.868117
        40        38        41     1      108.427734      360.868117
        43        42        44     1      108.427734      360.868117
        43        42        45     1      108.427734      360.868117
        44        42        45     1      108.427734      360.868117
        46        47        48     1      179.653183      167.360000
        47        48        49     1      110.881737      461.423326
        47        48        50     1      110.881737      461.423326
        47        48        51     1      110.881737      461.423326
        49        48        50     1      108.021866      356.580723
        49        48        51     1      108.021866      356.580723
        50        48        51     1      108.021866      356.580723

[ dihedrals ] ; propers for gromacs 4.5 or higher, use funct 9
;       ai        aj        ak        al funct           phase               k        pn
         1         2         4         5     9        0.000000       -0.030793         1
         1         2         4         5     9      180.000000       14.596211         2
         1         2         4         5     9        0.000000       -0.486594         3
         1         2         4         5     9      180.000000        0.120652         4
         1         2         4         6     9        0.000000        0.058536         1
         1         2         4         6     9      180.000000       19.050249         2
         1         2         4         6     9        0.000000       -1.451425         3
         1         2         4         6     9      180.000000       -0.500536         4
         1         8         7         6     9        0.000000        0.048504         1
         1         8         7         6     9      180.000000       19.029807         2
         1         8         7         6     9        0.000000       -1.275596         3
         1         8         7         6     9      180.000000       -0.487781         4
         1         8         7        15     9        0.000000        0.218405         1
         1         8         7        15     9      180.000000       16.551931         2
         1         8         7        15     9        0.000000       -0.123945         3
         1         8         7        15     9      180.000000       -0.384292         4
         1        21        29        30     9        0.000000       -0.064565         1
         1        21        29        30     9      180.000000       13.390238         2
         1        21        29        30     9        0.000000       -0.208771         3
         1        21        29        30     9      180.000000        0.178759         4
         1        21        29        31     9        0.000000        0.250642         1
         1        21        29        31     9      180.000000       16.637736         2
         1        21        29        31     9        0.000000       -0.044498         3
         1        21        29        31     9      180.000000       -0.453503         4
         1        21        35        34     9        0.000000        0.443215         1
         1        21        35        34     9      180.000000       15.148092         2
         1        21        35        34     9        0.000000        0.067451         3
         1        21        35        34     9      180.000000       -0.483302         4
         1        21        35        36     9        0.000000        0.122588         1
         1        21        35        36     9      180.000000       12.969801         2
         1        21        35        36     9        0.000000       -0.183744         3
         1        21        35        36     9      180.000000        0.135675         4
         2         1         8         7     9        0.000000       -0.094141         1
         2         1         8         7     9      180.000000       18.459743         2
         2         1         8         7     9        0.000000       -1.861806         3
         2         1         8         7     9      180.000000       -0.433357         4
         2         1         8         9     9        0.000000       -0.049111         1
         2         1         8         9     9      180.000000       14.520012         2
         2         1         8         9     9        0.000000       -0.618243         3
         2         1         8         9     9      180.000000        0.066622         4
         2         1        21        29     9        0.000000        0.071715         1
         2         1        21        29     9      180.000000        3.149999         2
         2         1        21        29     9        0.000000        0.034829         3
         2         1        21        29     9      180.000000       -0.115219         4
         2         1        21        35     9        0.000000        0.002273         1
         2         1        21        35     9      180.000000        2.742686         2
         2         1        21        35     9        0.000000        0.080396         3
         2         1        21        35     9      180.000000       -0.176304         4
         2         4         6         7     9        0.000000        0.006740         1
         2         4         6         7     9      180.000000       18.375536         2
         2         4         6         7     9        0.000000       -0.956938         3
         2         4         6         7     9      180.000000       -0.524286         4
         2         4         6        10     9        0.000000        0.476255         1
         2         4         6        10     9      180.000000       20.073690         2
         2         4         6        10     9        0.000000        0.732133         3
         2         4         6        10     9      180.000000       -0.566266         4
         3         2         1         8     9        0.000000       -0.154690         1
         3         2         1         8     9      180.000000       14.039997         2
         3         2         1         8     9        0.000000       -0.811585         3
         3         2         1         8     9      180.000000        0.061811         4
         3         2         1        21     9        0.000000       -0.110508         1
         3         2         1        21     9      180.000000       13.253778         2
         3         2         1        21     9        0.000000       -0.309711         3
         3         2         1        21     9      180.000000        0.110363         4
         3         2         4         5     9        0.000000       -0.099928         1
         3         2         4         5     9      180.000000       12.238243         2
         3         2         4         5     9        0.000000       -0.697002         3
         3         2         4         5     9      180.000000        0.360314         4
         3         2         4         6     9        0.000000        0.131256         1
         3         2         4         6     9      180.000000       14.644040         2
         3         2         4         6     9        0.000000       -0.531598         3
         3         2         4         6     9      180.000000        0.129726         4
         4         2         1         8     9        0.000000       -0.165756         1
         4         2         1         8     9      180.000000       18.217691         2
         4         2         1         8     9        0.000000       -1.610894         3
         4         2         1         8     9      180.000000       -0.332932         4
         4         2         1        21     9        0.000000        0.220889         1
         4         2         1        21     9      180.000000       16.312307         2
         4         2         1        21     9        0.000000       -0.256711         3
         4         2         1        21     9      180.000000       -0.355985         4
         4         6         7         8     9        0.000000       -0.095826         1
         4         6         7         8     9      180.000000       15.373859         2
         4         6         7         8     9        0.000000       -0.812716         3
         4         6         7         8     9      180.000000       -0.309478         4
         4         6         7        15     9        0.000000        0.317601         1
         4         6         7        15     9      180.000000       12.594617         2
         4         6         7        15     9        0.000000        0.140950         3
         4         6         7        15     9      180.000000       -0.263644         4
         4         6        10        11     9        0.000000       -0.524440         1
         4         6        10        11     9      180.000000        0.965350         2
         4         6        10        11     9        0.000000        0.127626         3
         4         6        10        11     9      180.000000        0.274670         4
         5         4         6         7     9        0.000000        0.029945         1
         5         4         6         7     9      180.000000       13.435392         2
         5         4         6         7     9        0.000000       -0.361852         3
         5         4         6         7     9      180.000000       -0.014588         4
         5         4         6        10     9        0.000000        0.018714         1
         5         4         6        10     9      180.000000       16.055862         2
         5         4         6        10     9        0.000000        0.173212         3
         5         4         6        10     9      180.000000        0.104013         4
         6         7         8         9     9        0.000000        0.257708         1
         6         7         8         9     9      180.000000       14.607370         2
         6         7         8         9     9        0.000000       -0.267585         3
         6         7         8         9     9      180.000000        0.022047         4
         6         7        15        12     9        0.000000        0.442429         1
         6         7        15        12     9      180.000000       -0.582160         2
         6         7        15        12     9        0.000000        0.566510         3
         6         7        15        12     9      180.000000        0.177976         4
         6         7        15        16     9        0.000000        0.102814         1
         6         7        15        16     9      180.000000       -0.121196         2
         6         7        15        16     9        0.000000       -0.091766         3
         6         7        15        16     9      180.000000        0.098350         4
         6         7        15        19     9        0.000000       -1.211495         1
         6         7        15        19     9      180.000000        1.208789         2
         6         7        15        19     9        0.000000        0.479329         3
         6         7        15        19     9      180.000000       -0.237524         4
         6        10        11        12     9        0.000000        6.552491         1
         6        10        11        12     9      180.000000       -3.144803         2
         6        10        11        12     9        0.000000       -0.417738         3
         6        10        11        12     9      180.000000        0.734854         4
         6        10        11        38     9        0.000000       -0.601020         1
         6        10        11        38     9      180.000000        0.475002         2
         6        10        11        38     9        0.000000        0.451956         3
         6        10        11        38     9      180.000000        0.038632         4
         6        10        11        42     9        0.000000       -0.601019         1
         6        10        11        42     9      180.000000        0.475001         2
         6        10        11        42     9        0.000000        0.451956         3
         6        10        11        42     9      180.000000        0.038632         4
         7         6        10        11     9        0.000000        1.640771         1
         7         6        10        11     9      180.000000        0.065588         2
         7         6        10        11     9        0.000000       -0.117565         3
         7         6        10        11     9      180.000000        0.605195         4
         7         8         1        21     9        0.000000        0.056256         1
         7         8         1        21     9      180.000000       17.189725         2
         7         8         1        21     9        0.000000       -0.262407         3
         7         8         1        21     9      180.000000       -0.535010         4
         7        15        12        11     9        0.000000        1.224939         1
         7        15        12        11     9      180.000000       -1.112698         2
         7        15        12        11     9        0.000000        0.379613         3
         7        15        12        11     9      180.000000        0.212213         4
         7        15        12        13     9        0.000000        0.060303         1
         7        15        12        13     9      180.000000        0.038717         2
         7        15        12        13     9        0.000000        0.531071         3
         7        15        12        13     9      180.000000        0.004443         4
         7        15        12        14     9        0.000000        0.060303         1
         7        15        12        14     9      180.000000        0.038717         2
         7        15        12        14     9        0.000000        0.531071         3
         7        15        12        14     9      180.000000        0.004443         4
         7        15        16        17     9        0.000000        0.204138         1
         7        15        16        17     9      180.000000        2.054007         2
         7        15        16        17     9        0.000000        0.314617         3
         7        15        16        17     9      180.000000        0.636535         4
         7        15        16        37     9        0.000000       -1.028428         1
         7        15        16        37     9      180.000000        1.994956         2
         7        15        16        37     9        0.000000       -0.383168         3
         7        15        16        37     9      180.000000        0.534449         4
         7        15        19        18     9        0.000000        1.475577         1
         7        15        19        18     9      180.000000        0.330887         2
         7        15        19        18     9        0.000000        0.426833         3
         7        15        19        18     9      180.000000        0.176206         4
         7        15        19        20     9        0.000000        1.133225         1
         7        15        19        20     9      180.000000       -0.176846         2
         7        15        19        20     9        0.000000        0.307694         3
         7        15        19        20     9      180.000000        0.155610         4
         8         1        21        29     9        0.000000       -0.002374         1
         8         1        21        29     9      180.000000        3.262886         2
         8         1        21        29     9        0.000000        0.050318         3
         8         1        21        29     9      180.000000       -0.140581         4
         8         1        21        35     9        0.000000       -0.034306         1
         8         1        21        35     9      180.000000        2.921235         2
         8         1        21        35     9        0.000000        0.110645         3
         8         1        21        35     9      180.000000       -0.197164         4
         8         7         6        10     9        0.000000        0.081325         1
         8         7         6        10     9      180.000000       16.854432         2
         8         7         6        10     9        0.000000        0.620140         3
         8         7         6        10     9      180.000000       -0.438171         4
         8         7        15        12     9        0.000000       -0.406409         1
         8         7        15        12     9      180.000000        0.653538         2
         8         7        15        12     9        0.000000       -0.255390         3
         8         7        15        12     9      180.000000        0.240537         4
         8         7        15        16     9        0.000000       -0.840165         1
         8         7        15        16     9      180.000000       -0.271277         2
         8         7        15        16     9        0.000000       -0.294592         3
         8         7        15        16     9      180.000000        0.220637         4
         8         7        15        19     9        0.000000       -0.256939         1
         8         7        15        19     9      180.000000        1.910004         2
         8         7        15        19     9        0.000000       -0.161648         3
         8         7        15        19     9      180.000000       -0.006959         4
         9         8         1        21     9        0.000000       -0.084319         1
         9         8         1        21     9      180.000000       13.272415         2
         9         8         1        21     9        0.000000       -0.212804         3
         9         8         1        21     9      180.000000        0.153905         4
         9         8         7        15     9        0.000000       -0.089390         1
         9         8         7        15     9      180.000000       13.499754         2
         9         8         7        15     9        0.000000       -0.225839         3
         9         8         7        15     9      180.000000        0.074571         4
        10         6         7        15     9        0.000000        0.652877         1
        10         6         7        15     9      180.000000       13.735837         2
        10         6         7        15     9        0.000000        0.969375         3
        10         6         7        15     9      180.000000       -0.661470         4
        10        11        12        13     9        0.000000        0.010187         1
        10        11        12        13     9      180.000000        0.032223         2
        10        11        12        13     9        0.000000        0.118020         3
        10        11        12        13     9      180.000000        0.005280         4
        10        11        12        14     9        0.000000        0.010187         1
        10        11        12        14     9      180.000000        0.032223         2
        10        11        12        14     9        0.000000        0.118020         3
        10        11        12        14     9      180.000000        0.005280         4
        10        11        12        15     9        0.000000        6.398275         1
        10        11        12        15     9      180.000000       -3.171040         2
        10        11        12        15     9        0.000000       -0.812227         3
        10        11        12        15     9      180.000000        0.264324         4
        10        11        38        39     9        0.000000        0.022756         1
        10        11        38        39     9      180.000000       -0.106326         2
        10        11        38        39     9        0.000000        0.371208         3
        10        11        38        39     9      180.000000        0.017378         4
        10        11        38        40     9        0.000000        0.022757         1
        10        11        38        40     9      180.000000       -0.106326         2
        10        11        38        40     9        0.000000        0.371208         3
        10        11        38        40     9      180.000000        0.017378         4
        10        11        38        41     9        0.000000        0.022757         1
        10        11        38        41     9      180.000000       -0.106326         2
        10        11        38        41     9        0.000000        0.371208         3
        10        11        38        41     9      180.000000        0.017378         4
        10        11        42        43     9        0.000000        0.022757         1
        10        11        42        43     9      180.000000       -0.106326         2
        10        11        42        43     9        0.000000        0.371208         3
        10        11        42        43     9      180.000000        0.017378         4
        10        11        42        44     9        0.000000        0.022757         1
        10        11        42        44     9      180.000000       -0.106326         2
        10        11        42        44     9        0.000000        0.371208         3
        10        11        42        44     9      180.000000        0.017378         4
        10        11        42        45     9        0.000000        0.022757         1
        10        11        42        45     9      180.000000       -0.106326         2
        10        11        42        45     9        0.000000        0.371208         3
        10        11        42        45     9      180.000000        0.017378         4
        11        12        15        16     9        0.000000       -0.158489         1
        11        12        15        16     9      180.000000        0.109710         2
        11        12        15        16     9        0.000000        0.008060         3
        11        12        15        16     9      180.000000        0.059205         4
        11        12        15        19     9        0.000000       -1.376753         1
        11        12        15        19     9      180.000000       -0.656378         2
        11        12        15        19     9        0.000000        0.372563         3
        11        12        15        19     9      180.000000        0.291438         4
        12        11        38        39     9        0.000000       -0.089920         1
        12        11        38        39     9      180.000000        0.000423         2
        12        11        38        39     9        0.000000        0.433042         3
        12        11        38        39     9      180.000000        0.019250         4
        12        11        38        40     9        0.000000       -0.089920         1
        12        11        38        40     9      180.000000        0.000424         2
        12        11        38        40     9        0.000000        0.433042         3
        12        11        38        40     9      180.000000        0.019251         4
        12        11        38        41     9        0.000000       -0.089920         1
        12        11        38        41     9      180.000000        0.000424         2
        12        11        38        41     9        0.000000        0.433042         3
        12        11        38        41     9      180.000000        0.019251         4
        12        11        42        43     9        0.000000       -0.089919         1
        12        11        42        43     9      180.000000        0.000423         2
        12        11        42        43     9        0.000000        0.433042         3
        12        11        42        43     9      180.000000        0.019250         4
        12        11        42        44     9        0.000000       -0.089919         1
        12        11        42        44     9      180.000000        0.000423         2
        12        11        42        44     9        0.000000        0.433042         3
        12        11        42        44     9      180.000000        0.019250         4
        12        11        42        45     9        0.000000       -0.089919         1
        12        11        42        45     9      180.000000        0.000423         2
        12        11        42        45     9        0.000000        0.433042         3
        12        11        42        45     9      180.000000        0.019250         4
        12        15        16        17     9        0.000000       -0.141660         1
        12        15        16        17     9      180.000000        3.066579         2
        12        15        16        17     9        0.000000        0.134318         3
        12        15        16        17     9      180.000000        0.386088         4
        12        15        16        37     9        0.000000        1.080605         1
        12        15        16        37     9      180.000000        2.732703         2
        12        15        16        37     9        0.000000       -0.579963         3
        12        15        16        37     9      180.000000        0.528780         4
        12        15        19        18     9        0.000000       -0.582310         1
        12        15        19        18     9      180.000000        0.755302         2
        12        15        19        18     9        0.000000        0.351235         3
        12        15        19        18     9      180.000000        0.157736         4
        12        15        19        20     9        0.000000        0.171427         1
        12        15        19        20     9      180.000000       -0.174988         2
        12        15        19        20     9        0.000000        0.231541         3
        12        15        19        20     9      180.000000       -0.054083         4
        13        12        11        38     9        0.000000       -0.021980         1
        13        12        11        38     9      180.000000       -0.009422         2
        13        12        11        38     9        0.000000        0.356718         3
        13        12        11        38     9      180.000000       -0.000954         4
        13        12        11        42     9        0.000000       -0.021980         1
        13        12        11        42     9      180.000000       -0.009422         2
        13        12        11        42     9        0.000000        0.356718         3
        13        12        11        42     9      180.000000       -0.000954         4
        13        12        15        16     9        0.000000       -0.120531         1
        13        12        15        16     9      180.000000        0.006259         2
        13        12        15        16     9        0.000000        0.249160         3
        13        12        15        16     9      180.000000        0.015556         4
        13        12        15        19     9        0.000000        0.048077         1
        13        12        15        19     9      180.000000        0.031139         2
        13        12        15        19     9        0.000000        0.441342         3
        13        12        15        19     9      180.000000       -0.090829         4
        14        12        11        38     9        0.000000       -0.021980         1
        14        12        11        38     9      180.000000       -0.009422         2
        14        12        11        38     9        0.000000        0.356718         3
        14        12        11        38     9      180.000000       -0.000954         4
        14        12        11        42     9        0.000000       -0.021980         1
        14        12        11        42     9      180.000000       -0.009422         2
        14        12        11        42     9        0.000000        0.356718         3
        14        12        11        42     9      180.000000       -0.000954         4
        14        12        15        16     9        0.000000       -0.120531         1
        14        12        15        16     9      180.000000        0.006259         2
        14        12        15        16     9        0.000000        0.249160         3
        14        12        15        16     9      180.000000        0.015556         4
        14        12        15        19     9        0.000000        0.048077         1
        14        12        15        19     9      180.000000        0.031139         2
        14        12        15        19     9        0.000000        0.441342         3
        14        12        15        19     9      180.000000       -0.090829         4
        15        12        11        38     9        0.000000       -0.491720         1
        15        12        11        38     9      180.000000        0.610387         2
        15        12        11        38     9        0.000000        0.252005         3
        15        12        11        38     9      180.000000       -0.014027         4
        15        12        11        42     9        0.000000       -0.491719         1
        15        12        11        42     9      180.000000        0.610387         2
        15        12        11        42     9        0.000000        0.252005         3
        15        12        11        42     9      180.000000       -0.014027         4
        15        16        17        18     9        0.000000       -2.621426         1
        15        16        17        18     9      180.000000       12.608727         2
        15        16        17        18     9        0.000000       -1.689385         3
        15        16        17        18     9      180.000000       -0.516965         4
        15        16        17        22     9        0.000000       -1.161959         1
        15        16        17        22     9      180.000000        6.523790         2
        15        16        17        22     9        0.000000        0.171203         3
        15        16        17        22     9      180.000000       -0.171941         4
        15        19        18        17     9        0.000000       -1.486140         1
        15        19        18        17     9      180.000000       26.058799         2
        15        19        18        17     9        0.000000       -2.115652         3
        15        19        18        17     9      180.000000       -2.999679         4
        15        19        18        26     9        0.000000        1.704035         1
        15        19        18        26     9      180.000000       19.771991         2
        15        19        18        26     9        0.000000        0.715132         3
        15        19        18        26     9      180.000000       -2.025611         4
        16        15        19        18     9        0.000000       -3.202930         1
        16        15        19        18     9      180.000000        3.675471         2
        16        15        19        18     9        0.000000       -0.128940         3
        16        15        19        18     9      180.000000       -0.635128         4
        16        15        19        20     9        0.000000       -0.882341         1
        16        15        19        20     9      180.000000       -0.826404         2
        16        15        19        20     9        0.000000        0.165262         3
        16        15        19        20     9      180.000000        0.141885         4
        16        17        18        19     9        0.000000       -2.490328         1
        16        17        18        19     9      180.000000       13.834040         2
        16        17        18        19     9        0.000000       -2.378247         3
        16        17        18        19     9      180.000000       -1.280421         4
        16        17        18        26     9        0.000000        1.935113         1
        16        17        18        26     9      180.000000       11.081020         2
        16        17        18        26     9        0.000000       -0.210528         3
        16        17        18        26     9      180.000000       -0.637296         4
        16        17        22        23     9        0.000000       -0.046462         1
        16        17        22        23     9      180.000000       -0.089247         2
        16        17        22        23     9        0.000000       -0.283225         3
        16        17        22        23     9      180.000000        0.030104         4
        16        17        22        24     9        0.000000       -0.046462         1
        16        17        22        24     9      180.000000       -0.089247         2
        16        17        22        24     9        0.000000       -0.283225         3
        16        17        22        24     9      180.000000        0.030104         4
        16        17        22        25     9        0.000000       -0.046462         1
        16        17        22        25     9      180.000000       -0.089247         2
        16        17        22        25     9        0.000000       -0.283225         3
        16        17        22        25     9      180.000000        0.030104         4
        17        16        15        19     9        0.000000        0.490408         1
        17        16        15        19     9      180.000000        7.821340         2
        17        16        15        19     9        0.000000       -0.339097         3
        17        16        15        19     9      180.000000       -0.046198         4
        17        18        19        20     9        0.000000        0.456219         1
        17        18        19        20     9      180.000000       11.615587         2
        17        18        19        20     9        0.000000        0.224486         3
        17        18        19        20     9      180.000000       -0.965494         4
        17        18        26        27     9        0.000000       -0.170243         1
        17        18        26        27     9      180.000000        6.404526         2
        17        18        26        27     9        0.000000        0.524424         3
        17        18        26        27     9      180.000000       -0.541232         4
        17        18        26        28     9        0.000000       -0.170243         1
        17        18        26        28     9      180.000000        6.404526         2
        17        18        26        28     9        0.000000        0.524424         3
        17        18        26        28     9      180.000000       -0.541232         4
        18        17        16        37     9        0.000000        1.168480         1
        18        17        16        37     9      180.000000       20.631698         2
        18        17        16        37     9        0.000000       -0.713106         3
        18        17        16        37     9      180.000000       -0.822735         4
        18        17        22        23     9        0.000000        0.029063         1
        18        17        22        23     9      180.000000        0.021416         2
        18        17        22        23     9        0.000000        0.188894         3
        18        17        22        23     9      180.000000       -0.011671         4
        18        17        22        24     9        0.000000        0.029063         1
        18        17        22        24     9      180.000000        0.021416         2
        18        17        22        24     9        0.000000        0.188894         3
        18        17        22        24     9      180.000000       -0.011671         4
        18        17        22        25     9        0.000000        0.029063         1
        18        17        22        25     9      180.000000        0.021416         2
        18        17        22        25     9        0.000000        0.188894         3
        18        17        22        25     9      180.000000       -0.011671         4
        19        15        16        37     9        0.000000        7.981295         1
        19        15        16        37     9      180.000000        7.024952         2
        19        15        16        37     9        0.000000       -0.163171         3
        19        15        16        37     9      180.000000        0.325120         4
        19        18        17        22     9        0.000000       -3.776014         1
        19        18        17        22     9      180.000000        5.458345         2
        19        18        17        22     9        0.000000       -0.154527         3
        19        18        17        22     9      180.000000        0.081931         4
        19        18        26        27     9        0.000000       -1.696699         1
        19        18        26        27     9      180.000000        6.696569         2
        19        18        26        27     9        0.000000        0.180424         3
        19        18        26        27     9      180.000000       -0.442659         4
        19        18        26        28     9        0.000000       -1.696699         1
        19        18        26        28     9      180.000000        6.696569         2
        19        18        26        28     9        0.000000        0.180424         3
        19        18        26        28     9      180.000000       -0.442659         4
        20        19        18        26     9        0.000000        0.829726         1
        20        19        18        26     9      180.000000        7.727450         2
        20        19        18        26     9        0.000000        0.246606         3
        20        19        18        26     9      180.000000       -0.383134         4
        21        29        31        32     9        0.000000        0.054050         1
        21        29        31        32     9      180.000000       17.597315         2
        21        29        31        32     9        0.000000       -1.725898         3
        21        29        31        32     9      180.000000       -0.408785         4
        21        29        31        46     9        0.000000        0.149306         1
        21        29        31        46     9      180.000000       18.353251         2
        21        29        31        46     9        0.000000       -0.115018         3
        21        29        31        46     9      180.000000       -0.493914         4
        21        35        34        32     9        0.000000        0.152969         1
        21        35        34        32     9      180.000000       22.131560         2
        21        35        34        32     9        0.000000       -0.664843         3
        21        35        34        32     9      180.000000       -0.161850         4
        22        17        16        37     9        0.000000       -0.327769         1
        22        17        16        37     9      180.000000        9.752935         2
        22        17        16        37     9        0.000000       -0.183563         3
        22        17        16        37     9      180.000000        0.446364         4
        22        17        18        26     9        0.000000        1.331771         1
        22        17        18        26     9      180.000000        6.631611         2
        22        17        18        26     9        0.000000        0.055652         3
        22        17        18        26     9      180.000000       -0.063283         4
        29        21        35        34     9        0.000000       -0.030961         1
        29        21        35        34     9      180.000000       16.279465         2
        29        21        35        34     9        0.000000       -0.618730         3
        29        21        35        34     9      180.000000       -0.276695         4
        29        21        35        36     9        0.000000       -0.140212         1
        29        21        35        36     9      180.000000       13.070424         2
        29        21        35        36     9        0.000000       -0.399307         3
        29        21        35        36     9      180.000000        0.088392         4
        29        31        32        33     9        0.000000       -0.078392         1
        29        31        32        33     9      180.000000       12.644054         2
        29        31        32        33     9        0.000000       -0.373081         3
        29        31        32        33     9      180.000000        0.033879         4
        29        31        32        34     9        0.000000       -0.065813         1
        29        31        32        34     9      180.000000       15.289887         2
        29        31        32        34     9        0.000000       -0.726181         3
        29        31        32        34     9      180.000000       -0.285517         4
        29        31        46        47     9        0.000000        0.000000         1
        29        31        46        47     9      180.000000        0.000000         2
        29        31        46        47     9        0.000000        0.000000         3
        29        31        46        47     9      180.000000        0.000000         4
        30        29        21        35     9        0.000000       -0.058967         1
        30        29        21        35     9      180.000000       13.597845         2
        30        29        21        35     9        0.000000       -0.659447         3
        30        29        21        35     9      180.000000        0.119642         4
        30        29        31        32     9        0.000000        0.026727         1
        30        29        31        32     9      180.000000       13.632552         2
        30        29        31        32     9        0.000000       -0.658822         3
        30        29        31        32     9      180.000000        0.156018         4
        30        29        31        46     9        0.000000        0.011358         1
        30        29        31        46     9      180.000000       13.920440         2
        30        29        31        46     9        0.000000       -0.250710         3
        30        29        31        46     9      180.000000        0.215693         4
        31        29        21        35     9        0.000000       -0.284611         1
        31        29        21        35     9      180.000000       17.909536         2
        31        29        21        35     9        0.000000       -1.763442         3
        31        29        21        35     9      180.000000       -0.416484         4
        31        32        34        35     9        0.000000        0.049762         1
        31        32        34        35     9      180.000000       22.688078         2
        31        32        34        35     9        0.000000       -0.613075         3
        31        32        34        35     9      180.000000       -0.179645         4
        31        46        47        48     9        0.000000        0.000000         1
        31        46        47        48     9      180.000000        0.000000         2
        31        46        47        48     9        0.000000        0.000000         3
        31        46        47        48     9      180.000000        0.000000         4
        32        31        46        47     9        0.000000        0.000000         1
        32        31        46        47     9      180.000000        0.000000         2
        32        31        46        47     9        0.000000        0.000000         3
        32        31        46        47     9      180.000000        0.000000         4
        32        34        35        36     9        0.000000        1.102410         1
        32        34        35        36     9      180.000000       20.422727         2
        32        34        35        36     9        0.000000        0.145877         3
        32        34        35        36     9      180.000000       -0.219716         4
        33        32        31        46     9        0.000000        0.065239         1
        33        32        31        46     9      180.000000       13.596447         2
        33        32        31        46     9        0.000000       -0.138618         3
        33        32        31        46     9      180.000000        0.166523         4
        33        32        34        35     9        0.000000        0.932349         1
        33        32        34        35     9      180.000000       20.641787         2
        33        32        34        35     9        0.000000        0.239949         3
        33        32        34        35     9      180.000000       -0.342528         4
        34        32        31        46     9        0.000000       -0.178033         1
        34        32        31        46     9      180.000000       16.355813         2
        34        32        31        46     9        0.000000       -0.092238         3
        34        32        31        46     9      180.000000       -0.547798         4
        38        11        42        43     9        0.000000       -0.082665         1
        38        11        42        43     9      180.000000        0.011908         2
        38        11        42        43     9        0.000000        0.531652         3
        38        11        42        43     9      180.000000        0.044562         4
        38        11        42        44     9        0.000000       -0.082665         1
        38        11        42        44     9      180.000000        0.011908         2
        38        11        42        44     9        0.000000        0.531652         3
        38        11        42        44     9      180.000000        0.044562         4
        38        11        42        45     9        0.000000       -0.082665         1
        38        11        42        45     9      180.000000        0.011908         2
        38        11        42        45     9        0.000000        0.531652         3
        38        11        42        45     9      180.000000        0.044562         4
        39        38        11        42     9        0.000000       -0.082665         1
        39        38        11        42     9      180.000000        0.011908         2
        39        38        11        42     9        0.000000        0.531652         3
        39        38        11        42     9      180.000000        0.044562         4
        40        38        11        42     9        0.000000       -0.082665         1
        40        38        11        42     9      180.000000        0.011907         2
        40        38        11        42     9        0.000000        0.531652         3
        40        38        11        42     9      180.000000        0.044561         4
        41        38        11        42     9        0.000000       -0.082665         1
        41        38        11        42     9      180.000000        0.011907         2
        41        38        11        42     9        0.000000        0.531652         3
        41        38        11        42     9      180.000000        0.044561         4
        46        47        48        49     9        0.000000        0.000000         1
        46        47        48        49     9      180.000000        0.000000         2
        46        47        48        49     9        0.000000        0.000000         3
        46        47        48        49     9      180.000000        0.000000         4
        46        47        48        50     9        0.000000        0.000000         1
        46        47        48        50     9      180.000000        0.000000         2
        46        47        48        50     9        0.000000        0.000000         3
        46        47        48        50     9      180.000000        0.000000         4
        46        47        48        51     9        0.000000        0.000000         1
        46        47        48        51     9      180.000000        0.000000         2
        46        47        48        51     9        0.000000        0.000000         3
        46        47        48        51     9      180.000000        0.000000         4

[ dihedrals ] ; impropers
;       ai        aj        ak        al funct           phase               k        pn
        16        15        17        37     4      180.000000       26.920056         2
        16        17        37        15     4      180.000000       26.920056         2
        16        37        15        17     4      180.000000       26.920056         2
        18        17        19        26     4      180.000000       10.189569         2
        18        19        26        17     4      180.000000       10.189569         2
        18        26        17        19     4      180.000000       10.189569         2
        32        31        33        34     4      180.000000        5.940900         2
        32        33        34        31     4      180.000000        5.940900         2
        32        34        31        33     4      180.000000        5.940900         2
        35        21        34        36     4      180.000000        2.602435         2
        35        34        36        21     4      180.000000        2.602435         2
        35        36        21        34     4      180.000000        2.602435         2

[ pairs ]
;       ai        aj funct
         1         5     1
         1         6     1
         1        15     1
         1        30     1
         1        31     1
         1        34     1
         1        36     1
         2         7     1
         2         9     1
         2        10     1
         2        29     1
         2        35     1
         3         5     1
         3         6     1
         3         8     1
         3        21     1
         4         8     1
         4        11     1
         4        15     1
         4        21     1
         5         7     1
         5        10     1
         6         9     1
         6        12     1
         6        16     1
         6        19     1
         6        38     1
         6        42     1
         7        11     1
         7        13     1
         7        14     1
         7        17     1
         7        18     1
         7        20     1
         7        21     1
         7        37     1
         8        10     1
         8        12     1
         8        16     1
         8        19     1
         8        29     1
         8        35     1
         9        15     1
         9        21     1
        10        13     1
        10        14     1
        10        15     1
        10        39     1
        10        40     1
        10        41     1
        10        43     1
        10        44     1
        10        45     1
        11        16     1
        11        19     1
        12        17     1
        12        18     1
        12        20     1
        12        37     1
        12        39     1
        12        40     1
        12        41     1
        12        43     1
        12        44     1
        12        45     1
        13        16     1
        13        19     1
        13        38     1
        13        42     1
        14        16     1
        14        19     1
        14        38     1
        14        42     1
        15        22     1
        15        26     1
        15        38     1
        15        42     1
        16        20     1
        16        23     1
        16        24     1
        16        25     1
        16        26     1
        17        20     1
        17        27     1
        17        28     1
        18        23     1
        18        24     1
        18        25     1
        18        37     1
        19        22     1
        19        27     1
        19        28     1
        19        37     1
        20        26     1
        21        32     1
        21        46     1
        22        26     1
        22        37     1
        29        33     1
        29        34     1
        29        36     1
        29        47     1
        30        32     1
        30        35     1
        30        46     1
        31        35     1
        31        48     1
        32        36     1
        32        47     1
        33        35     1
        33        46     1
        34        46     1
        38        43     1
        38        44     1
        38        45     1
        39        42     1
        40        42     1
        41        42     1
        46        49     1
        46        50     1
        46        51     1
