; ITP file created by ByteFF-ML, 2026-03-14 15:26:42.089699

[ atomtypes ]
;name           bonded.type        at.num        mass        charge   ptype           sigma         epsilon
 c0bf                                   6      0.0000       0.00000       A     3.31425e-01     4.09887e-01
 c1bf                                   6      0.0000       0.00000       A     3.31537e-01     4.13411e-01
 h2bf                                   1      0.0000       0.00000       A     2.62485e-01     6.75153e-02
 c3bf                                   6      0.0000       0.00000       A     3.31523e-01     4.12056e-01
 h4bf                                   1      0.0000       0.00000       A     2.62405e-01     6.67253e-02
 c5bf                                   6      0.0000       0.00000       A     3.31279e-01     4.11283e-01
 c6bf                                   6      0.0000       0.00000       A     3.31150e-01     4.13198e-01
 c7bf                                   6      0.0000       0.00000       A     3.31375e-01     4.12849e-01
 h8bf                                   1      0.0000       0.00000       A     2.62592e-01     6.73030e-02
 o9bf                                   8      0.0000       0.00000       A     3.15529e-01     3.02270e-01
 c10bf                                  6      0.0000       0.00000       A     3.39880e-01     4.53386e-01
 c11bf                                  6      0.0000       0.00000       A     3.39567e-01     4.51771e-01
 h12bf                                  1      0.0000       0.00000       A     2.59417e-01     8.63170e-02
 h13bf                                  1      0.0000       0.00000       A     2.59417e-01     8.63170e-02
 c14bf                                  6      0.0000       0.00000       A     3.39917e-01     4.52880e-01
 c15bf                                  6      0.0000       0.00000       A     3.31525e-01     4.13256e-01
 n16bf                                  7      0.0000       0.00000       A     3.18147e-01     7.08350e-01
 c17bf                                  6      0.0000       0.00000       A     3.31173e-01     4.11985e-01
 n18bf                                  7      0.0000       0.00000       A     3.26363e-01     6.55753e-01
 h19bf                                  1      0.0000       0.00000       A     1.10240e-01     4.07109e-02
 c20bf                                  6      0.0000       0.00000       A     3.31463e-01     4.12866e-01
 c21bf                                  6      0.0000       0.00000       A     3.39925e-01     4.53383e-01
 h22bf                                  1      0.0000       0.00000       A     2.42238e-01     8.60936e-02
 h23bf                                  1      0.0000       0.00000       A     2.42238e-01     8.60936e-02
 h24bf                                  1      0.0000       0.00000       A     2.42238e-01     8.60936e-02
 n25bf                                  7      0.0000       0.00000       A     3.36693e-01     4.77150e-01
 h26bf                                  1      0.0000       0.00000       A     1.10539e-01     3.88978e-02
 h27bf                                  1      0.0000       0.00000       A     1.10539e-01     3.88978e-02
 c28bf                                  6      0.0000       0.00000       A     3.31509e-01     4.12761e-01
 h29bf                                  1      0.0000       0.00000       A     2.62473e-01     6.72919e-02
 c30bf                                  6      0.0000       0.00000       A     3.31475e-01     4.12716e-01
 h31bf                                  1      0.0000       0.00000       A     2.62496e-01     6.73302e-02
 c32bf                                  6      0.0000       0.00000       A     3.31474e-01     4.13235e-01
 h33bf                                  1      0.0000       0.00000       A     2.53542e-01     6.68466e-02
 n34bf                                  7      0.0000       0.00000       A     3.38483e-01     3.91133e-01
 c35bf                                  6      0.0000       0.00000       A     3.31454e-01     4.11360e-01
 f36bf                                  9      0.0000       0.00000       A     3.02898e-01     3.43240e-01
 o37bf                                  8      0.0000       0.00000       A     3.04358e-01     6.10575e-01
 c38bf                                  6      0.0000       0.00000       A     3.39798e-01     4.50250e-01
 h39bf                                  1      0.0000       0.00000       A     2.59893e-01     8.82802e-02
 h40bf                                  1      0.0000       0.00000       A     2.59893e-01     8.82802e-02
 h41bf                                  1      0.0000       0.00000       A     2.59893e-01     8.82802e-02
 c42bf                                  6      0.0000       0.00000       A     3.39798e-01     4.50250e-01
 h43bf                                  1      0.0000       0.00000       A     2.59893e-01     8.82802e-02
 h44bf                                  1      0.0000       0.00000       A     2.59893e-01     8.82802e-02
 h45bf                                  1      0.0000       0.00000       A     2.59893e-01     8.82802e-02

[ moleculetype ]
;name             nrexcl
 37                    3

[ atoms ]
;       nr            type      resi   res      atom      cgnr      charge          mass ; qtot
         1            c0bf         1   UNL        c0         1    -0.04891       12.0110 ; qtot   -0.049
         2            c1bf         1   UNL        c1         2    -0.05580       12.0110 ; qtot   -0.105
         3            h2bf         1   UNL        h2         3     0.12138        1.0080 ; qtot    0.017
         4            c3bf         1   UNL        c3         4    -0.13657       12.0110 ; qtot   -0.120
         5            h4bf         1   UNL        h4         5     0.13342        1.0080 ; qtot    0.014
         6            c5bf         1   UNL        c5         6     0.17007       12.0110 ; qtot    0.184
         7            c6bf         1   UNL        c6         7    -0.18256       12.0110 ; qtot    0.001
         8            c7bf         1   UNL        c7         8    -0.03263       12.0110 ; qtot   -0.032
         9            h8bf         1   UNL        h8         9     0.13243        1.0080 ; qtot    0.101
        10            o9bf         1   UNL        o9        10    -0.35834       15.9990 ; qtot   -0.258
        11           c10bf         1   UNL       c10        11     0.18141       12.0110 ; qtot   -0.076
        12           c11bf         1   UNL       c11        12    -0.08115       12.0110 ; qtot   -0.157
        13           h12bf         1   UNL       h12        13     0.08348        1.0080 ; qtot   -0.074
        14           h13bf         1   UNL       h13        14     0.08348        1.0080 ; qtot    0.010
        15           c14bf         1   UNL       c14        15     0.10827       12.0110 ; qtot    0.118
        16           c15bf         1   UNL       c15        16     0.55024       12.0110 ; qtot    0.668
        17           n16bf         1   UNL       n16        17    -0.64651       14.0070 ; qtot    0.022
        18           c17bf         1   UNL       c17        18     0.99722       12.0110 ; qtot    1.019
        19           n18bf         1   UNL       n18        19    -0.63159       14.0070 ; qtot    0.387
        20           h19bf         1   UNL       h19        20     0.41427        1.0080 ; qtot    0.802
        21           c20bf         1   UNL       c20        21    -0.10247       12.0110 ; qtot    0.699
        22           c21bf         1   UNL       c21        22     0.07086       12.0110 ; qtot    0.770
        23           h22bf         1   UNL       h22        23     0.09037        1.0080 ; qtot    0.860
        24           h23bf         1   UNL       h23        24     0.09037        1.0080 ; qtot    0.951
        25           h24bf         1   UNL       h24        25     0.09037        1.0080 ; qtot    1.041
        26           n25bf         1   UNL       n25        26    -0.57853       14.0070 ; qtot    0.463
        27           h26bf         1   UNL       h26        27     0.38249        1.0080 ; qtot    0.845
        28           h27bf         1   UNL       h27        28     0.38249        1.0080 ; qtot    1.228
        29           c28bf         1   UNL       c28        29    -0.04468       12.0110 ; qtot    1.183
        30           h29bf         1   UNL       h29        30     0.12740        1.0080 ; qtot    1.310
        31           c30bf         1   UNL       c30        31    -0.17986       12.0110 ; qtot    1.130
        32           h31bf         1   UNL       h31        32     0.13291        1.0080 ; qtot    1.263
        33           c32bf         1   UNL       c32        33     0.36212       12.0110 ; qtot    1.625
        34           h33bf         1   UNL       h33        34     0.03130        1.0080 ; qtot    1.657
        35           n34bf         1   UNL       n34        35    -0.69443       14.0070 ; qtot    0.962
        36           c35bf         1   UNL       c35        36     0.56786       12.0110 ; qtot    1.530
        37           f36bf         1   UNL       f36        37    -0.22462       18.9980 ; qtot    1.306
        38           o37bf         1   UNL       o37        38    -0.39811       15.9990 ; qtot    0.907
        39           c38bf         1   UNL       c38        39    -0.10005       12.0110 ; qtot    0.807
        40           h39bf         1   UNL       h39        40     0.04877        1.0080 ; qtot    0.856
        41           h40bf         1   UNL       h40        41     0.04877        1.0080 ; qtot    0.905
        42           h41bf         1   UNL       h41        42     0.04877        1.0080 ; qtot    0.954
        43           c42bf         1   UNL       c42        43    -0.10005       12.0110 ; qtot    0.854
        44           h43bf         1   UNL       h43        44     0.04877        1.0080 ; qtot    0.902
        45           h44bf         1   UNL       h44        45     0.04877        1.0080 ; qtot    0.951
        46           h45bf         1   UNL       h45        46     0.04880        1.0080 ; qtot    1.000

[ bonds ]
;       ai        aj funct               r               k
         1         2     1        0.140687   283821.604248
         1         8     1        0.139950   293015.602051
         1        21     1        0.148073   216768.050049
         2         3     1        0.108548   320134.837500
         2         4     1        0.139029   333940.045605
         4         5     1        0.108562   321104.966748
         4         6     1        0.140026   288678.966748
         6         7     1        0.140470   276536.760742
         6        10     1        0.136436   267339.417578
         7         8     1        0.139938   299557.724268
         7        15     1        0.151265   181133.452710
         8         9     1        0.108470   320732.303711
        10        11     1        0.145731   141482.468188
        11        12     1        0.154147   164699.186426
        11        39     1        0.152988   183033.962695
        11        43     1        0.152988   183033.962695
        12        13     1        0.109298   301656.951270
        12        14     1        0.109298   301656.951270
        12        15     1        0.154171   160537.276025
        15        16     1        0.154381   128485.484058
        15        19     1        0.148548   146191.332397
        16        17     1        0.141843   159362.683911
        16        38     1        0.120598   711921.900781
        17        18     1        0.135797   301738.465723
        17        22     1        0.146668   196952.070361
        18        19     1        0.133090   390989.539355
        18        26     1        0.133332   412686.071777
        19        20     1        0.101348   425202.319824
        21        29     1        0.140264   292892.538721
        21        36     1        0.140797   248447.830176
        22        23     1        0.109031   312124.791162
        22        24     1        0.109031   312124.791162
        22        25     1        0.109031   312124.816699
        26        27     1        0.101316   425666.584473
        26        28     1        0.101316   425666.584473
        29        30     1        0.108568   320428.156738
        29        31     1        0.139597   319891.034717
        31        32     1        0.108513   324443.458594
        31        33     1        0.139519   300525.350879
        33        34     1        0.108731   318683.640186
        33        35     1        0.134326   311775.801025
        35        36     1        0.131229   338717.323730
        36        37     1        0.135108   274776.589941
        39        40     1        0.109316   303222.120703
        39        41     1        0.109316   303222.120703
        39        42     1        0.109316   303222.120703
        43        44     1        0.109316   303222.120703
        43        45     1        0.109316   303222.120703
        43        46     1        0.109316   303222.120703

[ angles ]
;       ai        aj        ak funct           theta             cth
         1         2         3     1      119.715744      436.650446
         1         2         4     1      120.771484      688.316010
         1         8         7     1      121.672409      639.607740
         1         8         9     1      119.147324      427.892144
         1        21        29     1      121.679359      487.997050
         1        21        36     1      123.764481      481.226205
         2         1         8     1      117.900620      628.808033
         2         1        21     1      121.049110      541.329388
         2         4         5     1      121.226845      430.161946
         2         4         6     1      120.131836      737.751704
         3         2         4     1      119.346115      420.428604
         4         6         7     1      119.925880      589.802844
         4         6        10     1      116.437744      551.331380
         5         4         6     1      118.621658      435.820746
         6         7         8     1      118.873001      743.268166
         6         7        15     1      119.745766      586.516281
         6        10        11     1      117.993736      500.028604
         7         6        10     1      123.637672      514.558357
         7         8         9     1      119.216019      419.453470
         7        15        12     1      111.733620      557.947853
         7        15        16     1      112.067848      601.546658
         7        15        19     1      111.488197      598.667668
         8         1        21     1      120.975060      417.681386
         8         7        15     1      121.317772      443.148332
        10        11        12     1      109.078835      556.881551
        10        11        39     1      106.645714      604.086579
        10        11        43     1      106.645714      604.086579
        11        12        13     1      109.154335      466.471374
        11        12        14     1      109.154335      466.471374
        11        12        15     1      113.052734      640.250254
        11        39        40     1      110.474686      475.605615
        11        39        41     1      110.474686      475.605615
        11        39        42     1      110.474686      475.605615
        11        43        44     1      110.474686      475.605615
        11        43        45     1      110.474686      475.605615
        11        43        46     1      110.474686      475.605615
        12        11        39     1      111.385193      575.618575
        12        11        43     1      111.385193      575.618575
        12        15        16     1      110.797043      616.450307
        12        15        19     1      110.620262      611.566526
        13        12        14     1      107.420326      358.221546
        13        12        15     1      108.621048      474.551156
        14        12        15     1      108.621048      474.551156
        15        16        17     1      106.500320      167.360000
        15        16        38     1      127.583961      359.223303
        15        19        18     1      111.587624      619.880132
        15        19        20     1      121.368065      359.917625
        16        15        19     1      100.386848      329.498044
        16        17        18     1      109.401268      854.894893
        16        17        22     1      123.309692      531.050510
        17        16        38     1      124.771469      662.663728
        17        18        19     1      111.171402      582.762773
        17        18        26     1      123.442459      642.331720
        17        22        23     1      109.308334      484.616097
        17        22        24     1      109.308334      484.616097
        17        22        25     1      109.308334      484.616097
        18        17        22     1      126.712746      464.666028
        18        19        20     1      123.566017      425.702688
        18        26        27     1      120.916794      453.685646
        18        26        28     1      120.916794      453.685646
        19        18        26     1      125.735672      609.105451
        21        29        30     1      119.219955      429.045144
        21        29        31     1      120.521362      754.776082
        21        36        35     1      126.469948      655.995670
        21        36        37     1      118.473648      406.738639
        23        22        24     1      109.761864      350.063653
        23        22        25     1      109.761864      350.063653
        24        22        25     1      109.761864      350.063653
        27        26        28     1      117.283279      315.513827
        29        21        36     1      114.615517      563.123012
        29        31        32     1      121.119179      442.777916
        29        31        33     1      118.375587      763.942435
        30        29        31     1      120.319740      430.958640
        31        33        34     1      121.195862      406.190644
        31        33        35     1      122.752892      672.787787
        32        31        33     1      120.536011      450.377919
        33        35        36     1      117.400734      669.502949
        34        33        35     1      116.084435      355.753449
        35        36        37     1      114.965248      577.314623
        39        11        43     1      111.043091      610.311568
        40        39        41     1      108.427734      360.868117
        40        39        42     1      108.427734      360.868117
        41        39        42     1      108.427734      360.868117
        44        43        45     1      108.427734      360.868117
        44        43        46     1      108.427734      360.868117
        45        43        46     1      108.427734      360.868117

[ dihedrals ] ; propers for gromacs 4.5 or higher, use funct 9
;       ai        aj        ak        al funct           phase               k        pn
         1         2         4         5     9        0.000000       -0.025751         1
         1         2         4         5     9      180.000000       14.568589         2
         1         2         4         5     9        0.000000       -0.469351         3
         1         2         4         5     9      180.000000        0.119542         4
         1         2         4         6     9        0.000000        0.007108         1
         1         2         4         6     9      180.000000       19.005988         2
         1         2         4         6     9        0.000000       -1.535368         3
         1         2         4         6     9      180.000000       -0.487912         4
         1         8         7         6     9        0.000000        0.036962         1
         1         8         7         6     9      180.000000       19.035702         2
         1         8         7         6     9        0.000000       -1.373621         3
         1         8         7         6     9      180.000000       -0.471642         4
         1         8         7        15     9        0.000000        0.256672         1
         1         8         7        15     9      180.000000       16.668992         2
         1         8         7        15     9        0.000000       -0.159684         3
         1         8         7        15     9      180.000000       -0.390299         4
         1        21        29        30     9        0.000000       -0.047002         1
         1        21        29        30     9      180.000000       13.557196         2
         1        21        29        30     9        0.000000       -0.159006         3
         1        21        29        30     9      180.000000        0.178050         4
         1        21        29        31     9        0.000000        0.282283         1
         1        21        29        31     9      180.000000       16.465658         2
         1        21        29        31     9        0.000000        0.129076         3
         1        21        29        31     9      180.000000       -0.347389         4
         1        21        36        35     9        0.000000        0.044577         1
         1        21        36        35     9      180.000000       11.449808         2
         1        21        36        35     9        0.000000       -0.232216         3
         1        21        36        35     9      180.000000       -0.300806         4
         1        21        36        37     9        0.000000       -0.064497         1
         1        21        36        37     9      180.000000       16.325373         2
         1        21        36        37     9        0.000000        0.272703         3
         1        21        36        37     9      180.000000       -0.705089         4
         2         1         8         7     9        0.000000       -0.084968         1
         2         1         8         7     9      180.000000       18.298175         2
         2         1         8         7     9        0.000000       -1.811203         3
         2         1         8         7     9      180.000000       -0.403259         4
         2         1         8         9     9        0.000000        0.000891         1
         2         1         8         9     9      180.000000       14.405129         2
         2         1         8         9     9        0.000000       -0.619240         3
         2         1         8         9     9      180.000000        0.098635         4
         2         1        21        29     9        0.000000       -0.082897         1
         2         1        21        29     9      180.000000        3.622748         2
         2         1        21        29     9        0.000000        0.104730         3
         2         1        21        29     9      180.000000        0.270171         4
         2         1        21        36     9        0.000000        0.130989         1
         2         1        21        36     9      180.000000        3.617452         2
         2         1        21        36     9        0.000000       -0.168220         3
         2         1        21        36     9      180.000000        0.615387         4
         2         4         6         7     9        0.000000       -0.001609         1
         2         4         6         7     9      180.000000       18.266130         2
         2         4         6         7     9        0.000000       -0.933743         3
         2         4         6         7     9      180.000000       -0.513067         4
         2         4         6        10     9        0.000000        0.474110         1
         2         4         6        10     9      180.000000       20.066955         2
         2         4         6        10     9        0.000000        0.731057         3
         2         4         6        10     9      180.000000       -0.568974         4
         3         2         1         8     9        0.000000       -0.055410         1
         3         2         1         8     9      180.000000       14.037124         2
         3         2         1         8     9        0.000000       -0.720811         3
         3         2         1         8     9      180.000000        0.090815         4
         3         2         1        21     9        0.000000       -0.088792         1
         3         2         1        21     9      180.000000       13.002861         2
         3         2         1        21     9        0.000000       -0.258455         3
         3         2         1        21     9      180.000000        0.217732         4
         3         2         4         5     9        0.000000       -0.107117         1
         3         2         4         5     9      180.000000       12.253889         2
         3         2         4         5     9        0.000000       -0.700330         3
         3         2         4         5     9      180.000000        0.352193         4
         3         2         4         6     9        0.000000        0.132928         1
         3         2         4         6     9      180.000000       14.732334         2
         3         2         4         6     9        0.000000       -0.520832         3
         3         2         4         6     9      180.000000        0.114109         4
         4         2         1         8     9        0.000000       -0.142792         1
         4         2         1         8     9      180.000000       18.320707         2
         4         2         1         8     9        0.000000       -1.511384         3
         4         2         1         8     9      180.000000       -0.334323         4
         4         2         1        21     9        0.000000        0.288661         1
         4         2         1        21     9      180.000000       15.897451         2
         4         2         1        21     9        0.000000       -0.194114         3
         4         2         1        21     9      180.000000       -0.250506         4
         4         6         7         8     9        0.000000       -0.105752         1
         4         6         7         8     9      180.000000       15.314487         2
         4         6         7         8     9        0.000000       -0.822321         3
         4         6         7         8     9      180.000000       -0.291459         4
         4         6         7        15     9        0.000000        0.317601         1
         4         6         7        15     9      180.000000       12.594617         2
         4         6         7        15     9        0.000000        0.140950         3
         4         6         7        15     9      180.000000       -0.263644         4
         4         6        10        11     9        0.000000       -0.524440         1
         4         6        10        11     9      180.000000        0.965350         2
         4         6        10        11     9        0.000000        0.127626         3
         4         6        10        11     9      180.000000        0.274670         4
         5         4         6         7     9        0.000000        0.029945         1
         5         4         6         7     9      180.000000       13.435392         2
         5         4         6         7     9        0.000000       -0.361852         3
         5         4         6         7     9      180.000000       -0.014588         4
         5         4         6        10     9        0.000000        0.018714         1
         5         4         6        10     9      180.000000       16.055862         2
         5         4         6        10     9        0.000000        0.173212         3
         5         4         6        10     9      180.000000        0.104013         4
         6         7         8         9     9        0.000000        0.232739         1
         6         7         8         9     9      180.000000       14.644691         2
         6         7         8         9     9        0.000000       -0.261112         3
         6         7         8         9     9      180.000000        0.013028         4
         6         7        15        12     9        0.000000        0.442429         1
         6         7        15        12     9      180.000000       -0.582160         2
         6         7        15        12     9        0.000000        0.566510         3
         6         7        15        12     9      180.000000        0.177976         4
         6         7        15        16     9        0.000000        0.102814         1
         6         7        15        16     9      180.000000       -0.121196         2
         6         7        15        16     9        0.000000       -0.091766         3
         6         7        15        16     9      180.000000        0.098350         4
         6         7        15        19     9        0.000000       -1.211495         1
         6         7        15        19     9      180.000000        1.208789         2
         6         7        15        19     9        0.000000        0.479329         3
         6         7        15        19     9      180.000000       -0.237524         4
         6        10        11        12     9        0.000000        6.552491         1
         6        10        11        12     9      180.000000       -3.144803         2
         6        10        11        12     9        0.000000       -0.417738         3
         6        10        11        12     9      180.000000        0.734854         4
         6        10        11        39     9        0.000000       -0.601019         1
         6        10        11        39     9      180.000000        0.475001         2
         6        10        11        39     9        0.000000        0.451956         3
         6        10        11        39     9      180.000000        0.038632         4
         6        10        11        43     9        0.000000       -0.601019         1
         6        10        11        43     9      180.000000        0.475001         2
         6        10        11        43     9        0.000000        0.451956         3
         6        10        11        43     9      180.000000        0.038632         4
         7         6        10        11     9        0.000000        1.640771         1
         7         6        10        11     9      180.000000        0.065588         2
         7         6        10        11     9        0.000000       -0.117565         3
         7         6        10        11     9      180.000000        0.605195         4
         7         8         1        21     9        0.000000        0.036608         1
         7         8         1        21     9      180.000000       16.617063         2
         7         8         1        21     9        0.000000       -0.255566         3
         7         8         1        21     9      180.000000       -0.448445         4
         7        15        12        11     9        0.000000        1.224939         1
         7        15        12        11     9      180.000000       -1.112698         2
         7        15        12        11     9        0.000000        0.379613         3
         7        15        12        11     9      180.000000        0.212213         4
         7        15        12        13     9        0.000000        0.060303         1
         7        15        12        13     9      180.000000        0.038717         2
         7        15        12        13     9        0.000000        0.531071         3
         7        15        12        13     9      180.000000        0.004443         4
         7        15        12        14     9        0.000000        0.060303         1
         7        15        12        14     9      180.000000        0.038717         2
         7        15        12        14     9        0.000000        0.531071         3
         7        15        12        14     9      180.000000        0.004443         4
         7        15        16        17     9        0.000000        0.204138         1
         7        15        16        17     9      180.000000        2.054007         2
         7        15        16        17     9        0.000000        0.314617         3
         7        15        16        17     9      180.000000        0.636535         4
         7        15        16        38     9        0.000000       -1.028429         1
         7        15        16        38     9      180.000000        1.994955         2
         7        15        16        38     9        0.000000       -0.383167         3
         7        15        16        38     9      180.000000        0.534449         4
         7        15        19        18     9        0.000000        1.475577         1
         7        15        19        18     9      180.000000        0.330887         2
         7        15        19        18     9        0.000000        0.426833         3
         7        15        19        18     9      180.000000        0.176206         4
         7        15        19        20     9        0.000000        1.133225         1
         7        15        19        20     9      180.000000       -0.176846         2
         7        15        19        20     9        0.000000        0.307694         3
         7        15        19        20     9      180.000000        0.155610         4
         8         1        21        29     9        0.000000       -0.252486         1
         8         1        21        29     9      180.000000        3.810374         2
         8         1        21        29     9        0.000000        0.062634         3
         8         1        21        29     9      180.000000        0.264584         4
         8         1        21        36     9        0.000000        0.215157         1
         8         1        21        36     9      180.000000        3.810284         2
         8         1        21        36     9        0.000000       -0.257337         3
         8         1        21        36     9      180.000000        0.692905         4
         8         7         6        10     9        0.000000        0.104718         1
         8         7         6        10     9      180.000000       16.729491         2
         8         7         6        10     9        0.000000        0.588272         3
         8         7         6        10     9      180.000000       -0.413442         4
         8         7        15        12     9        0.000000       -0.433470         1
         8         7        15        12     9      180.000000        0.663860         2
         8         7        15        12     9        0.000000       -0.261494         3
         8         7        15        12     9      180.000000        0.239656         4
         8         7        15        16     9        0.000000       -0.714735         1
         8         7        15        16     9      180.000000       -0.318687         2
         8         7        15        16     9        0.000000       -0.295486         3
         8         7        15        16     9      180.000000        0.223879         4
         8         7        15        19     9        0.000000       -0.374994         1
         8         7        15        19     9      180.000000        1.974419         2
         8         7        15        19     9        0.000000       -0.186051         3
         8         7        15        19     9      180.000000        0.009511         4
         9         8         1        21     9        0.000000       -0.124947         1
         9         8         1        21     9      180.000000       13.107729         2
         9         8         1        21     9        0.000000       -0.149460         3
         9         8         1        21     9      180.000000        0.219388         4
         9         8         7        15     9        0.000000       -0.096503         1
         9         8         7        15     9      180.000000       13.507963         2
         9         8         7        15     9        0.000000       -0.222947         3
         9         8         7        15     9      180.000000        0.075791         4
        10         6         7        15     9        0.000000        0.652877         1
        10         6         7        15     9      180.000000       13.735837         2
        10         6         7        15     9        0.000000        0.969375         3
        10         6         7        15     9      180.000000       -0.661470         4
        10        11        12        13     9        0.000000        0.010187         1
        10        11        12        13     9      180.000000        0.032223         2
        10        11        12        13     9        0.000000        0.118020         3
        10        11        12        13     9      180.000000        0.005280         4
        10        11        12        14     9        0.000000        0.010187         1
        10        11        12        14     9      180.000000        0.032223         2
        10        11        12        14     9        0.000000        0.118020         3
        10        11        12        14     9      180.000000        0.005280         4
        10        11        12        15     9        0.000000        6.398275         1
        10        11        12        15     9      180.000000       -3.171040         2
        10        11        12        15     9        0.000000       -0.812227         3
        10        11        12        15     9      180.000000        0.264324         4
        10        11        39        40     9        0.000000        0.022757         1
        10        11        39        40     9      180.000000       -0.106326         2
        10        11        39        40     9        0.000000        0.371208         3
        10        11        39        40     9      180.000000        0.017378         4
        10        11        39        41     9        0.000000        0.022757         1
        10        11        39        41     9      180.000000       -0.106326         2
        10        11        39        41     9        0.000000        0.371208         3
        10        11        39        41     9      180.000000        0.017378         4
        10        11        39        42     9        0.000000        0.022757         1
        10        11        39        42     9      180.000000       -0.106326         2
        10        11        39        42     9        0.000000        0.371208         3
        10        11        39        42     9      180.000000        0.017378         4
        10        11        43        44     9        0.000000        0.022757         1
        10        11        43        44     9      180.000000       -0.106326         2
        10        11        43        44     9        0.000000        0.371208         3
        10        11        43        44     9      180.000000        0.017378         4
        10        11        43        45     9        0.000000        0.022757         1
        10        11        43        45     9      180.000000       -0.106326         2
        10        11        43        45     9        0.000000        0.371208         3
        10        11        43        45     9      180.000000        0.017378         4
        10        11        43        46     9        0.000000        0.022757         1
        10        11        43        46     9      180.000000       -0.106326         2
        10        11        43        46     9        0.000000        0.371208         3
        10        11        43        46     9      180.000000        0.017378         4
        11        12        15        16     9        0.000000       -0.158489         1
        11        12        15        16     9      180.000000        0.109710         2
        11        12        15        16     9        0.000000        0.008060         3
        11        12        15        16     9      180.000000        0.059205         4
        11        12        15        19     9        0.000000       -1.376753         1
        11        12        15        19     9      180.000000       -0.656378         2
        11        12        15        19     9        0.000000        0.372563         3
        11        12        15        19     9      180.000000        0.291438         4
        12        11        39        40     9        0.000000       -0.089919         1
        12        11        39        40     9      180.000000        0.000423         2
        12        11        39        40     9        0.000000        0.433042         3
        12        11        39        40     9      180.000000        0.019250         4
        12        11        39        41     9        0.000000       -0.089919         1
        12        11        39        41     9      180.000000        0.000423         2
        12        11        39        41     9        0.000000        0.433042         3
        12        11        39        41     9      180.000000        0.019250         4
        12        11        39        42     9        0.000000       -0.089919         1
        12        11        39        42     9      180.000000        0.000423         2
        12        11        39        42     9        0.000000        0.433042         3
        12        11        39        42     9      180.000000        0.019250         4
        12        11        43        44     9        0.000000       -0.089919         1
        12        11        43        44     9      180.000000        0.000423         2
        12        11        43        44     9        0.000000        0.433042         3
        12        11        43        44     9      180.000000        0.019250         4
        12        11        43        45     9        0.000000       -0.089919         1
        12        11        43        45     9      180.000000        0.000423         2
        12        11        43        45     9        0.000000        0.433042         3
        12        11        43        45     9      180.000000        0.019250         4
        12        11        43        46     9        0.000000       -0.089919         1
        12        11        43        46     9      180.000000        0.000423         2
        12        11        43        46     9        0.000000        0.433042         3
        12        11        43        46     9      180.000000        0.019250         4
        12        15        16        17     9        0.000000       -0.141660         1
        12        15        16        17     9      180.000000        3.066579         2
        12        15        16        17     9        0.000000        0.134318         3
        12        15        16        17     9      180.000000        0.386088         4
        12        15        16        38     9        0.000000        1.080604         1
        12        15        16        38     9      180.000000        2.732702         2
        12        15        16        38     9        0.000000       -0.579963         3
        12        15        16        38     9      180.000000        0.528779         4
        12        15        19        18     9        0.000000       -0.582310         1
        12        15        19        18     9      180.000000        0.755302         2
        12        15        19        18     9        0.000000        0.351235         3
        12        15        19        18     9      180.000000        0.157736         4
        12        15        19        20     9        0.000000        0.171427         1
        12        15        19        20     9      180.000000       -0.174988         2
        12        15        19        20     9        0.000000        0.231541         3
        12        15        19        20     9      180.000000       -0.054083         4
        13        12        11        39     9        0.000000       -0.021980         1
        13        12        11        39     9      180.000000       -0.009422         2
        13        12        11        39     9        0.000000        0.356718         3
        13        12        11        39     9      180.000000       -0.000954         4
        13        12        11        43     9        0.000000       -0.021980         1
        13        12        11        43     9      180.000000       -0.009422         2
        13        12        11        43     9        0.000000        0.356718         3
        13        12        11        43     9      180.000000       -0.000954         4
        13        12        15        16     9        0.000000       -0.120531         1
        13        12        15        16     9      180.000000        0.006259         2
        13        12        15        16     9        0.000000        0.249160         3
        13        12        15        16     9      180.000000        0.015556         4
        13        12        15        19     9        0.000000        0.048077         1
        13        12        15        19     9      180.000000        0.031139         2
        13        12        15        19     9        0.000000        0.441342         3
        13        12        15        19     9      180.000000       -0.090829         4
        14        12        11        39     9        0.000000       -0.021980         1
        14        12        11        39     9      180.000000       -0.009422         2
        14        12        11        39     9        0.000000        0.356718         3
        14        12        11        39     9      180.000000       -0.000954         4
        14        12        11        43     9        0.000000       -0.021980         1
        14        12        11        43     9      180.000000       -0.009422         2
        14        12        11        43     9        0.000000        0.356718         3
        14        12        11        43     9      180.000000       -0.000954         4
        14        12        15        16     9        0.000000       -0.120531         1
        14        12        15        16     9      180.000000        0.006259         2
        14        12        15        16     9        0.000000        0.249160         3
        14        12        15        16     9      180.000000        0.015556         4
        14        12        15        19     9        0.000000        0.048077         1
        14        12        15        19     9      180.000000        0.031139         2
        14        12        15        19     9        0.000000        0.441342         3
        14        12        15        19     9      180.000000       -0.090829         4
        15        12        11        39     9        0.000000       -0.491719         1
        15        12        11        39     9      180.000000        0.610387         2
        15        12        11        39     9        0.000000        0.252005         3
        15        12        11        39     9      180.000000       -0.014027         4
        15        12        11        43     9        0.000000       -0.491719         1
        15        12        11        43     9      180.000000        0.610387         2
        15        12        11        43     9        0.000000        0.252005         3
        15        12        11        43     9      180.000000       -0.014027         4
        15        16        17        18     9        0.000000       -2.621426         1
        15        16        17        18     9      180.000000       12.608727         2
        15        16        17        18     9        0.000000       -1.689385         3
        15        16        17        18     9      180.000000       -0.516965         4
        15        16        17        22     9        0.000000       -1.161959         1
        15        16        17        22     9      180.000000        6.523790         2
        15        16        17        22     9        0.000000        0.171203         3
        15        16        17        22     9      180.000000       -0.171941         4
        15        19        18        17     9        0.000000       -1.486140         1
        15        19        18        17     9      180.000000       26.058799         2
        15        19        18        17     9        0.000000       -2.115652         3
        15        19        18        17     9      180.000000       -2.999679         4
        15        19        18        26     9        0.000000        1.704033         1
        15        19        18        26     9      180.000000       19.771991         2
        15        19        18        26     9        0.000000        0.715132         3
        15        19        18        26     9      180.000000       -2.025611         4
        16        15        19        18     9        0.000000       -3.202930         1
        16        15        19        18     9      180.000000        3.675471         2
        16        15        19        18     9        0.000000       -0.128940         3
        16        15        19        18     9      180.000000       -0.635128         4
        16        15        19        20     9        0.000000       -0.882341         1
        16        15        19        20     9      180.000000       -0.826404         2
        16        15        19        20     9        0.000000        0.165262         3
        16        15        19        20     9      180.000000        0.141885         4
        16        17        18        19     9        0.000000       -2.490328         1
        16        17        18        19     9      180.000000       13.834040         2
        16        17        18        19     9        0.000000       -2.378247         3
        16        17        18        19     9      180.000000       -1.280421         4
        16        17        18        26     9        0.000000        1.935113         1
        16        17        18        26     9      180.000000       11.081021         2
        16        17        18        26     9        0.000000       -0.210529         3
        16        17        18        26     9      180.000000       -0.637296         4
        16        17        22        23     9        0.000000       -0.046462         1
        16        17        22        23     9      180.000000       -0.089247         2
        16        17        22        23     9        0.000000       -0.283225         3
        16        17        22        23     9      180.000000        0.030104         4
        16        17        22        24     9        0.000000       -0.046462         1
        16        17        22        24     9      180.000000       -0.089247         2
        16        17        22        24     9        0.000000       -0.283225         3
        16        17        22        24     9      180.000000        0.030104         4
        16        17        22        25     9        0.000000       -0.046462         1
        16        17        22        25     9      180.000000       -0.089247         2
        16        17        22        25     9        0.000000       -0.283225         3
        16        17        22        25     9      180.000000        0.030104         4
        17        16        15        19     9        0.000000        0.490408         1
        17        16        15        19     9      180.000000        7.821340         2
        17        16        15        19     9        0.000000       -0.339097         3
        17        16        15        19     9      180.000000       -0.046198         4
        17        18        19        20     9        0.000000        0.456219         1
        17        18        19        20     9      180.000000       11.615587         2
        17        18        19        20     9        0.000000        0.224486         3
        17        18        19        20     9      180.000000       -0.965494         4
        17        18        26        27     9        0.000000       -0.170244         1
        17        18        26        27     9      180.000000        6.404527         2
        17        18        26        27     9        0.000000        0.524424         3
        17        18        26        27     9      180.000000       -0.541232         4
        17        18        26        28     9        0.000000       -0.170244         1
        17        18        26        28     9      180.000000        6.404527         2
        17        18        26        28     9        0.000000        0.524424         3
        17        18        26        28     9      180.000000       -0.541232         4
        18        17        16        38     9        0.000000        1.168478         1
        18        17        16        38     9      180.000000       20.631698         2
        18        17        16        38     9        0.000000       -0.713105         3
        18        17        16        38     9      180.000000       -0.822735         4
        18        17        22        23     9        0.000000        0.029063         1
        18        17        22        23     9      180.000000        0.021416         2
        18        17        22        23     9        0.000000        0.188894         3
        18        17        22        23     9      180.000000       -0.011671         4
        18        17        22        24     9        0.000000        0.029063         1
        18        17        22        24     9      180.000000        0.021416         2
        18        17        22        24     9        0.000000        0.188894         3
        18        17        22        24     9      180.000000       -0.011671         4
        18        17        22        25     9        0.000000        0.029063         1
        18        17        22        25     9      180.000000        0.021417         2
        18        17        22        25     9        0.000000        0.188894         3
        18        17        22        25     9      180.000000       -0.011671         4
        19        15        16        38     9        0.000000        7.981292         1
        19        15        16        38     9      180.000000        7.024952         2
        19        15        16        38     9        0.000000       -0.163171         3
        19        15        16        38     9      180.000000        0.325120         4
        19        18        17        22     9        0.000000       -3.776014         1
        19        18        17        22     9      180.000000        5.458345         2
        19        18        17        22     9        0.000000       -0.154527         3
        19        18        17        22     9      180.000000        0.081931         4
        19        18        26        27     9        0.000000       -1.696700         1
        19        18        26        27     9      180.000000        6.696568         2
        19        18        26        27     9        0.000000        0.180424         3
        19        18        26        27     9      180.000000       -0.442659         4
        19        18        26        28     9        0.000000       -1.696700         1
        19        18        26        28     9      180.000000        6.696568         2
        19        18        26        28     9        0.000000        0.180424         3
        19        18        26        28     9      180.000000       -0.442659         4
        20        19        18        26     9        0.000000        0.829726         1
        20        19        18        26     9      180.000000        7.727449         2
        20        19        18        26     9        0.000000        0.246605         3
        20        19        18        26     9      180.000000       -0.383134         4
        21        29        31        32     9        0.000000       -0.009479         1
        21        29        31        32     9      180.000000       14.983123         2
        21        29        31        32     9        0.000000       -0.687663         3
        21        29        31        32     9      180.000000       -0.000447         4
        21        29        31        33     9        0.000000        0.071432         1
        21        29        31        33     9      180.000000       18.356485         2
        21        29        31        33     9        0.000000       -1.758342         3
        21        29        31        33     9      180.000000       -0.425615         4
        21        36        35        33     9        0.000000        0.066092         1
        21        36        35        33     9      180.000000       22.814028         2
        21        36        35        33     9        0.000000       -0.062821         3
        21        36        35        33     9      180.000000       -0.203986         4
        22        17        16        38     9        0.000000       -0.327768         1
        22        17        16        38     9      180.000000        9.752935         2
        22        17        16        38     9        0.000000       -0.183564         3
        22        17        16        38     9      180.000000        0.446364         4
        22        17        18        26     9        0.000000        1.331771         1
        22        17        18        26     9      180.000000        6.631611         2
        22        17        18        26     9        0.000000        0.055652         3
        22        17        18        26     9      180.000000       -0.063283         4
        29        21        36        35     9        0.000000        0.043727         1
        29        21        36        35     9      180.000000       12.002591         2
        29        21        36        35     9        0.000000       -0.364253         3
        29        21        36        35     9      180.000000       -0.184315         4
        29        21        36        37     9        0.000000        0.616635         1
        29        21        36        37     9      180.000000       17.346463         2
        29        21        36        37     9        0.000000        0.495628         3
        29        21        36        37     9      180.000000       -0.340670         4
        29        31        33        34     9        0.000000        0.135437         1
        29        31        33        34     9      180.000000       14.050952         2
        29        31        33        34     9        0.000000       -0.597455         3
        29        31        33        34     9      180.000000        0.076916         4
        29        31        33        35     9        0.000000       -0.100543         1
        29        31        33        35     9      180.000000       19.377786         2
        29        31        33        35     9        0.000000       -1.077789         3
        29        31        33        35     9      180.000000       -0.585332         4
        30        29        21        36     9        0.000000        0.068484         1
        30        29        21        36     9      180.000000       14.075001         2
        30        29        21        36     9        0.000000       -0.535593         3
        30        29        21        36     9      180.000000        0.173796         4
        30        29        31        32     9        0.000000       -0.281737         1
        30        29        31        32     9      180.000000       12.048296         2
        30        29        31        32     9        0.000000       -0.673977         3
        30        29        31        32     9      180.000000        0.311122         4
        30        29        31        33     9        0.000000        0.043034         1
        30        29        31        33     9      180.000000       14.171681         2
        30        29        31        33     9        0.000000       -0.727181         3
        30        29        31        33     9      180.000000        0.178887         4
        31        29        21        36     9        0.000000       -0.132181         1
        31        29        21        36     9      180.000000       18.301588         2
        31        29        21        36     9        0.000000       -1.534608         3
        31        29        21        36     9      180.000000       -0.396666         4
        31        33        35        36     9        0.000000        0.148841         1
        31        33        35        36     9      180.000000       22.052437         2
        31        33        35        36     9        0.000000       -0.954205         3
        31        33        35        36     9      180.000000       -0.277001         4
        32        31        33        34     9        0.000000       -0.118381         1
        32        31        33        34     9      180.000000       11.479162         2
        32        31        33        34     9        0.000000       -0.681649         3
        32        31        33        34     9      180.000000        0.284738         4
        32        31        33        35     9        0.000000        0.080695         1
        32        31        33        35     9      180.000000       14.465147         2
        32        31        33        35     9        0.000000       -0.290570         3
        32        31        33        35     9      180.000000       -0.080593         4
        33        35        36        37     9        0.000000        0.744930         1
        33        35        36        37     9      180.000000       32.302043         2
        33        35        36        37     9        0.000000        0.864431         3
        33        35        36        37     9      180.000000       -0.872672         4
        34        33        35        36     9        0.000000        0.756589         1
        34        33        35        36     9      180.000000       20.154030         2
        34        33        35        36     9        0.000000        0.251111         3
        34        33        35        36     9      180.000000       -0.576415         4
        39        11        43        44     9        0.000000       -0.082665         1
        39        11        43        44     9      180.000000        0.011908         2
        39        11        43        44     9        0.000000        0.531653         3
        39        11        43        44     9      180.000000        0.044561         4
        39        11        43        45     9        0.000000       -0.082665         1
        39        11        43        45     9      180.000000        0.011908         2
        39        11        43        45     9        0.000000        0.531653         3
        39        11        43        45     9      180.000000        0.044561         4
        39        11        43        46     9        0.000000       -0.082665         1
        39        11        43        46     9      180.000000        0.011908         2
        39        11        43        46     9        0.000000        0.531653         3
        39        11        43        46     9      180.000000        0.044561         4
        40        39        11        43     9        0.000000       -0.082665         1
        40        39        11        43     9      180.000000        0.011908         2
        40        39        11        43     9        0.000000        0.531653         3
        40        39        11        43     9      180.000000        0.044561         4
        41        39        11        43     9        0.000000       -0.082665         1
        41        39        11        43     9      180.000000        0.011908         2
        41        39        11        43     9        0.000000        0.531653         3
        41        39        11        43     9      180.000000        0.044561         4
        42        39        11        43     9        0.000000       -0.082665         1
        42        39        11        43     9      180.000000        0.011908         2
        42        39        11        43     9        0.000000        0.531653         3
        42        39        11        43     9      180.000000        0.044561         4

[ dihedrals ] ; impropers
;       ai        aj        ak        al funct           phase               k        pn
        16        15        17        38     4      180.000000       26.920058         2
        16        17        38        15     4      180.000000       26.920058         2
        16        38        15        17     4      180.000000       26.920058         2
        18        17        19        26     4      180.000000       10.189569         2
        18        19        26        17     4      180.000000       10.189569         2
        18        26        17        19     4      180.000000       10.189569         2
        33        31        34        35     4      180.000000        3.065921         2
        33        34        35        31     4      180.000000        3.065921         2
        33        35        31        34     4      180.000000        3.065921         2
        36        21        35        37     4      180.000000        3.638472         2
        36        35        37        21     4      180.000000        3.638472         2
        36        37        21        35     4      180.000000        3.638472         2

[ pairs ]
;       ai        aj funct
         1         5     1
         1         6     1
         1        15     1
         1        30     1
         1        31     1
         1        35     1
         1        37     1
         2         7     1
         2         9     1
         2        10     1
         2        29     1
         2        36     1
         3         5     1
         3         6     1
         3         8     1
         3        21     1
         4         8     1
         4        11     1
         4        15     1
         4        21     1
         5         7     1
         5        10     1
         6         9     1
         6        12     1
         6        16     1
         6        19     1
         6        39     1
         6        43     1
         7        11     1
         7        13     1
         7        14     1
         7        17     1
         7        18     1
         7        20     1
         7        21     1
         7        38     1
         8        10     1
         8        12     1
         8        16     1
         8        19     1
         8        29     1
         8        36     1
         9        15     1
         9        21     1
        10        13     1
        10        14     1
        10        15     1
        10        40     1
        10        41     1
        10        42     1
        10        44     1
        10        45     1
        10        46     1
        11        16     1
        11        19     1
        12        17     1
        12        18     1
        12        20     1
        12        38     1
        12        40     1
        12        41     1
        12        42     1
        12        44     1
        12        45     1
        12        46     1
        13        16     1
        13        19     1
        13        39     1
        13        43     1
        14        16     1
        14        19     1
        14        39     1
        14        43     1
        15        22     1
        15        26     1
        15        39     1
        15        43     1
        16        20     1
        16        23     1
        16        24     1
        16        25     1
        16        26     1
        17        20     1
        17        27     1
        17        28     1
        18        23     1
        18        24     1
        18        25     1
        18        38     1
        19        22     1
        19        27     1
        19        28     1
        19        38     1
        20        26     1
        21        32     1
        21        33     1
        22        26     1
        22        38     1
        29        34     1
        29        35     1
        29        37     1
        30        32     1
        30        33     1
        30        36     1
        31        36     1
        32        34     1
        32        35     1
        33        37     1
        34        36     1
        39        44     1
        39        45     1
        39        46     1
        40        43     1
        41        43     1
        42        43     1
