; ITP file created by ByteFF-ML, 2026-03-14 15:27:10.303212

[ atomtypes ]
;name           bonded.type        at.num        mass        charge   ptype           sigma         epsilon
 c0bf                                   6      0.0000       0.00000       A     3.31416e-01     4.11245e-01
 c1bf                                   6      0.0000       0.00000       A     3.31567e-01     4.13331e-01
 h2bf                                   1      0.0000       0.00000       A     2.62485e-01     6.75153e-02
 c3bf                                   6      0.0000       0.00000       A     3.31523e-01     4.12056e-01
 h4bf                                   1      0.0000       0.00000       A     2.62405e-01     6.67253e-02
 c5bf                                   6      0.0000       0.00000       A     3.31279e-01     4.11283e-01
 c6bf                                   6      0.0000       0.00000       A     3.31150e-01     4.13198e-01
 c7bf                                   6      0.0000       0.00000       A     3.31460e-01     4.13532e-01
 h8bf                                   1      0.0000       0.00000       A     2.62592e-01     6.73030e-02
 o9bf                                   8      0.0000       0.00000       A     3.15529e-01     3.02270e-01
 c10bf                                  6      0.0000       0.00000       A     3.39880e-01     4.53386e-01
 c11bf                                  6      0.0000       0.00000       A     3.39567e-01     4.51771e-01
 h12bf                                  1      0.0000       0.00000       A     2.59417e-01     8.63170e-02
 h13bf                                  1      0.0000       0.00000       A     2.59417e-01     8.63170e-02
 c14bf                                  6      0.0000       0.00000       A     3.39917e-01     4.52880e-01
 c15bf                                  6      0.0000       0.00000       A     3.31525e-01     4.13256e-01
 n16bf                                  7      0.0000       0.00000       A     3.18147e-01     7.08350e-01
 c17bf                                  6      0.0000       0.00000       A     3.31173e-01     4.11985e-01
 n18bf                                  7      0.0000       0.00000       A     3.26363e-01     6.55753e-01
 h19bf                                  1      0.0000       0.00000       A     1.10240e-01     4.07109e-02
 c20bf                                  6      0.0000       0.00000       A     3.31218e-01     4.13053e-01
 c21bf                                  6      0.0000       0.00000       A     3.39925e-01     4.53383e-01
 h22bf                                  1      0.0000       0.00000       A     2.42238e-01     8.60936e-02
 h23bf                                  1      0.0000       0.00000       A     2.42238e-01     8.60936e-02
 h24bf                                  1      0.0000       0.00000       A     2.42238e-01     8.60936e-02
 n25bf                                  7      0.0000       0.00000       A     3.36693e-01     4.77150e-01
 h26bf                                  1      0.0000       0.00000       A     1.10539e-01     3.88978e-02
 h27bf                                  1      0.0000       0.00000       A     1.10539e-01     3.88978e-02
 c28bf                                  6      0.0000       0.00000       A     3.31518e-01     4.13115e-01
 h29bf                                  1      0.0000       0.00000       A     2.62445e-01     6.74674e-02
 c30bf                                  6      0.0000       0.00000       A     3.31586e-01     4.14146e-01
 f31bf                                  9      0.0000       0.00000       A     3.03331e-01     3.48569e-01
 c32bf                                  6      0.0000       0.00000       A     3.31550e-01     4.12586e-01
 h33bf                                  1      0.0000       0.00000       A     2.53614e-01     6.68466e-02
 n34bf                                  7      0.0000       0.00000       A     3.38302e-01     3.92446e-01
 c35bf                                  6      0.0000       0.00000       A     3.31514e-01     4.14032e-01
 h36bf                                  1      0.0000       0.00000       A     2.53647e-01     6.70142e-02
 o37bf                                  8      0.0000       0.00000       A     3.04358e-01     6.10575e-01
 c38bf                                  6      0.0000       0.00000       A     3.39798e-01     4.50250e-01
 h39bf                                  1      0.0000       0.00000       A     2.59893e-01     8.82802e-02
 h40bf                                  1      0.0000       0.00000       A     2.59893e-01     8.82802e-02
 h41bf                                  1      0.0000       0.00000       A     2.59893e-01     8.82802e-02
 c42bf                                  6      0.0000       0.00000       A     3.39798e-01     4.50250e-01
 h43bf                                  1      0.0000       0.00000       A     2.59893e-01     8.82802e-02
 h44bf                                  1      0.0000       0.00000       A     2.59893e-01     8.82802e-02
 h45bf                                  1      0.0000       0.00000       A     2.59893e-01     8.82802e-02

[ moleculetype ]
;name             nrexcl
 38                    3

[ atoms ]
;       nr            type      resi   res      atom      cgnr      charge          mass ; qtot
         1            c0bf         1   UNL        c0         1    -0.05593       12.0110 ; qtot   -0.056
         2            c1bf         1   UNL        c1         2    -0.06142       12.0110 ; qtot   -0.117
         3            h2bf         1   UNL        h2         3     0.11881        1.0080 ; qtot    0.001
         4            c3bf         1   UNL        c3         4    -0.13391       12.0110 ; qtot   -0.132
         5            h4bf         1   UNL        h4         5     0.13342        1.0080 ; qtot    0.001
         6            c5bf         1   UNL        c5         6     0.17007       12.0110 ; qtot    0.171
         7            c6bf         1   UNL        c6         7    -0.18135       12.0110 ; qtot   -0.010
         8            c7bf         1   UNL        c7         8    -0.03812       12.0110 ; qtot   -0.048
         9            h8bf         1   UNL        h8         9     0.12903        1.0080 ; qtot    0.081
        10            o9bf         1   UNL        o9        10    -0.35834       15.9990 ; qtot   -0.278
        11           c10bf         1   UNL       c10        11     0.18141       12.0110 ; qtot   -0.096
        12           c11bf         1   UNL       c11        12    -0.08115       12.0110 ; qtot   -0.177
        13           h12bf         1   UNL       h12        13     0.08348        1.0080 ; qtot   -0.094
        14           h13bf         1   UNL       h13        14     0.08348        1.0080 ; qtot   -0.011
        15           c14bf         1   UNL       c14        15     0.10827       12.0110 ; qtot    0.098
        16           c15bf         1   UNL       c15        16     0.55024       12.0110 ; qtot    0.648
        17           n16bf         1   UNL       n16        17    -0.64651       14.0070 ; qtot    0.001
        18           c17bf         1   UNL       c17        18     0.99722       12.0110 ; qtot    0.999
        19           n18bf         1   UNL       n18        19    -0.63159       14.0070 ; qtot    0.367
        20           h19bf         1   UNL       h19        20     0.41427        1.0080 ; qtot    0.781
        21           c20bf         1   UNL       c20        21    -0.05353       12.0110 ; qtot    0.728
        22           c21bf         1   UNL       c21        22     0.07086       12.0110 ; qtot    0.799
        23           h22bf         1   UNL       h22        23     0.09037        1.0080 ; qtot    0.889
        24           h23bf         1   UNL       h23        24     0.09037        1.0080 ; qtot    0.979
        25           h24bf         1   UNL       h24        25     0.09037        1.0080 ; qtot    1.070
        26           n25bf         1   UNL       n25        26    -0.57853       14.0070 ; qtot    0.491
        27           h26bf         1   UNL       h26        27     0.38249        1.0080 ; qtot    0.874
        28           h27bf         1   UNL       h27        28     0.38249        1.0080 ; qtot    1.256
        29           c28bf         1   UNL       c28        29    -0.10632       12.0110 ; qtot    1.150
        30           h29bf         1   UNL       h29        30     0.14168        1.0080 ; qtot    1.292
        31           c30bf         1   UNL       c30        31     0.11236       12.0110 ; qtot    1.404
        32           f31bf         1   UNL       f31        32    -0.16703       18.9980 ; qtot    1.237
        33           c32bf         1   UNL       c32        33     0.30504       12.0110 ; qtot    1.542
        34           h33bf         1   UNL       h33        34     0.04327        1.0080 ; qtot    1.585
        35           n34bf         1   UNL       n34        35    -0.63674       14.0070 ; qtot    0.949
        36           c35bf         1   UNL       c35        36     0.32917       12.0110 ; qtot    1.278
        37           h36bf         1   UNL       h36        37     0.02788        1.0080 ; qtot    1.306
        38           o37bf         1   UNL       o37        38    -0.39811       15.9990 ; qtot    0.907
        39           c38bf         1   UNL       c38        39    -0.10005       12.0110 ; qtot    0.807
        40           h39bf         1   UNL       h39        40     0.04877        1.0080 ; qtot    0.856
        41           h40bf         1   UNL       h40        41     0.04877        1.0080 ; qtot    0.905
        42           h41bf         1   UNL       h41        42     0.04877        1.0080 ; qtot    0.954
        43           c42bf         1   UNL       c42        43    -0.10005       12.0110 ; qtot    0.854
        44           h43bf         1   UNL       h43        44     0.04877        1.0080 ; qtot    0.902
        45           h44bf         1   UNL       h44        45     0.04877        1.0080 ; qtot    0.951
        46           h45bf         1   UNL       h45        46     0.04878        1.0080 ; qtot    1.000

[ bonds ]
;       ai        aj funct               r               k
         1         2     1        0.140723   282325.257324
         1         8     1        0.139963   291482.405078
         1        21     1        0.147954   216660.513281
         2         3     1        0.108598   318401.531738
         2         4     1        0.139068   333178.886523
         4         5     1        0.108562   321104.966748
         4         6     1        0.140026   288678.966748
         6         7     1        0.140470   276536.760742
         6        10     1        0.136436   267339.417578
         7         8     1        0.139998   298416.189941
         7        15     1        0.151265   181133.452710
         8         9     1        0.108513   319331.440039
        10        11     1        0.145731   141482.468188
        11        12     1        0.154147   164699.186426
        11        39     1        0.152988   183033.962695
        11        43     1        0.152988   183033.962695
        12        13     1        0.109298   301656.951270
        12        14     1        0.109298   301656.951270
        12        15     1        0.154171   160537.276025
        15        16     1        0.154381   128485.484058
        15        19     1        0.148548   146191.332397
        16        17     1        0.141843   159362.683911
        16        38     1        0.120598   711921.900781
        17        18     1        0.135797   301738.465723
        17        22     1        0.146668   196952.070361
        18        19     1        0.133090   390989.539355
        18        26     1        0.133332   412686.071777
        19        20     1        0.101348   425202.319824
        21        29     1        0.140394   291042.400684
        21        36     1        0.140824   270300.751855
        22        23     1        0.109031   312124.791162
        22        24     1        0.109031   312124.791162
        22        25     1        0.109031   312124.816699
        26        27     1        0.101316   425666.584473
        26        28     1        0.101316   425666.584473
        29        30     1        0.108497   323753.037305
        29        31     1        0.138712   318626.054004
        31        32     1        0.135312   296964.098828
        31        33     1        0.139402   285966.951270
        33        34     1        0.108694   320889.791064
        33        35     1        0.133787   319636.812793
        35        36     1        0.133695   326141.855127
        36        37     1        0.108771   316200.692578
        39        40     1        0.109316   303222.120703
        39        41     1        0.109316   303222.120703
        39        42     1        0.109316   303222.120703
        43        44     1        0.109316   303222.120703
        43        45     1        0.109316   303222.120703
        43        46     1        0.109316   303222.120703

[ angles ]
;       ai        aj        ak funct           theta             cth
         1         2         3     1      119.826660      431.552952
         1         2         4     1      120.822571      689.230111
         1         8         7     1      121.691025      641.948025
         1         8         9     1      119.236229      423.799120
         1        21        29     1      121.501724      477.933993
         1        21        36     1      121.341125      542.528866
         2         1         8     1      117.842911      625.729854
         2         1        21     1      121.072998      566.703251
         2         4         5     1      121.219238      430.675242
         2         4         6     1      120.151649      735.766002
         3         2         4     1      119.133568      427.063113
         4         6         7     1      119.925880      589.802844
         4         6        10     1      116.437744      551.331380
         5         4         6     1      118.621658      435.820746
         6         7         8     1      118.902161      739.905440
         6         7        15     1      119.745766      586.516281
         6        10        11     1      117.993736      500.028604
         7         6        10     1      123.637672      514.558357
         7         8         9     1      119.080528      422.363806
         7        15        12     1      111.733620      557.947853
         7        15        16     1      112.067848      601.546658
         7        15        19     1      111.488197      598.667668
         8         1        21     1      121.013268      432.221290
         8         7        15     1      121.313820      441.561743
        10        11        12     1      109.078835      556.881551
        10        11        39     1      106.645714      604.086579
        10        11        43     1      106.645714      604.086579
        11        12        13     1      109.154335      466.471374
        11        12        14     1      109.154335      466.471374
        11        12        15     1      113.052734      640.250254
        11        39        40     1      110.474686      475.605615
        11        39        41     1      110.474686      475.605615
        11        39        42     1      110.474686      475.605615
        11        43        44     1      110.474686      475.605615
        11        43        45     1      110.474686      475.605615
        11        43        46     1      110.474686      475.605615
        12        11        39     1      111.385193      575.618575
        12        11        43     1      111.385193      575.618575
        12        15        16     1      110.797043      616.450307
        12        15        19     1      110.620262      611.566526
        13        12        14     1      107.420326      358.221546
        13        12        15     1      108.621048      474.551156
        14        12        15     1      108.621048      474.551156
        15        16        17     1      106.500320      167.360000
        15        16        38     1      127.583961      359.223303
        15        19        18     1      111.587624      619.880132
        15        19        20     1      121.368065      359.917625
        16        15        19     1      100.386848      329.498044
        16        17        18     1      109.401268      854.894893
        16        17        22     1      123.309692      531.050510
        17        16        38     1      124.771469      662.663728
        17        18        19     1      111.171402      582.762773
        17        18        26     1      123.442459      642.331720
        17        22        23     1      109.308334      484.616097
        17        22        24     1      109.308334      484.616097
        17        22        25     1      109.308334      484.616097
        18        17        22     1      126.712746      464.666028
        18        19        20     1      123.566017      425.702688
        18        26        27     1      120.916794      453.685646
        18        26        28     1      120.916794      453.685646
        19        18        26     1      125.735672      609.105451
        21        29        30     1      122.096985      415.781967
        21        29        31     1      117.963303      752.205005
        21        36        35     1      124.195175      729.547716
        21        36        37     1      119.954323      409.854549
        23        22        24     1      109.761864      350.063653
        23        22        25     1      109.761864      350.063653
        24        22        25     1      109.761864      350.063653
        27        26        28     1      117.283279      315.513827
        29        21        36     1      117.083618      611.278595
        29        31        32     1      119.496399      537.501248
        29        31        33     1      121.146286      665.557721
        30        29        31     1      120.068222      440.935893
        31        33        34     1      120.459518      412.336820
        31        33        35     1      121.311607      662.169202
        32        31        33     1      119.311478      550.638941
        33        35        36     1      118.344925      679.865461
        34        33        35     1      118.054970      349.548346
        35        36        37     1      116.000755      330.535074
        39        11        43     1      111.043091      610.311568
        40        39        41     1      108.427734      360.868117
        40        39        42     1      108.427734      360.868117
        41        39        42     1      108.427734      360.868117
        44        43        45     1      108.427734      360.868117
        44        43        46     1      108.427734      360.868117
        45        43        46     1      108.427734      360.868117

[ dihedrals ] ; propers for gromacs 4.5 or higher, use funct 9
;       ai        aj        ak        al funct           phase               k        pn
         1         2         4         5     9        0.000000       -0.034302         1
         1         2         4         5     9      180.000000       14.610652         2
         1         2         4         5     9        0.000000       -0.481570         3
         1         2         4         5     9      180.000000        0.120507         4
         1         2         4         6     9        0.000000        0.058261         1
         1         2         4         6     9      180.000000       19.060918         2
         1         2         4         6     9        0.000000       -1.439729         3
         1         2         4         6     9      180.000000       -0.500372         4
         1         8         7         6     9        0.000000        0.044371         1
         1         8         7         6     9      180.000000       19.068809         2
         1         8         7         6     9        0.000000       -1.278138         3
         1         8         7         6     9      180.000000       -0.496113         4
         1         8         7        15     9        0.000000        0.218053         1
         1         8         7        15     9      180.000000       16.550120         2
         1         8         7        15     9        0.000000       -0.113503         3
         1         8         7        15     9      180.000000       -0.383386         4
         1        21        29        30     9        0.000000        0.014569         1
         1        21        29        30     9      180.000000       13.135536         2
         1        21        29        30     9        0.000000       -0.224822         3
         1        21        29        30     9      180.000000        0.128163         4
         1        21        29        31     9        0.000000        0.315173         1
         1        21        29        31     9      180.000000       16.885380         2
         1        21        29        31     9        0.000000       -0.116738         3
         1        21        29        31     9      180.000000       -0.520957         4
         1        21        36        35     9        0.000000        0.420128         1
         1        21        36        35     9      180.000000       15.194674         2
         1        21        36        35     9        0.000000        0.036422         3
         1        21        36        35     9      180.000000       -0.481825         4
         1        21        36        37     9        0.000000        0.080327         1
         1        21        36        37     9      180.000000       12.981502         2
         1        21        36        37     9        0.000000       -0.189092         3
         1        21        36        37     9      180.000000        0.142332         4
         2         1         8         7     9        0.000000       -0.092187         1
         2         1         8         7     9      180.000000       18.471183         2
         2         1         8         7     9        0.000000       -1.847968         3
         2         1         8         7     9      180.000000       -0.436909         4
         2         1         8         9     9        0.000000       -0.053440         1
         2         1         8         9     9      180.000000       14.475884         2
         2         1         8         9     9        0.000000       -0.591756         3
         2         1         8         9     9      180.000000        0.063211         4
         2         1        21        29     9        0.000000        0.064874         1
         2         1        21        29     9      180.000000        3.169704         2
         2         1        21        29     9        0.000000        0.036320         3
         2         1        21        29     9      180.000000       -0.117079         4
         2         1        21        36     9        0.000000       -0.036859         1
         2         1        21        36     9      180.000000        2.789428         2
         2         1        21        36     9        0.000000        0.066187         3
         2         1        21        36     9      180.000000       -0.169726         4
         2         4         6         7     9        0.000000        0.006740         1
         2         4         6         7     9      180.000000       18.375536         2
         2         4         6         7     9        0.000000       -0.956938         3
         2         4         6         7     9      180.000000       -0.524286         4
         2         4         6        10     9        0.000000        0.476255         1
         2         4         6        10     9      180.000000       20.073690         2
         2         4         6        10     9        0.000000        0.732133         3
         2         4         6        10     9      180.000000       -0.566266         4
         3         2         1         8     9        0.000000       -0.151664         1
         3         2         1         8     9      180.000000       14.036571         2
         3         2         1         8     9        0.000000       -0.785595         3
         3         2         1         8     9      180.000000        0.059132         4
         3         2         1        21     9        0.000000       -0.136025         1
         3         2         1        21     9      180.000000       13.247788         2
         3         2         1        21     9        0.000000       -0.315833         3
         3         2         1        21     9      180.000000        0.114941         4
         3         2         4         5     9        0.000000       -0.099928         1
         3         2         4         5     9      180.000000       12.238243         2
         3         2         4         5     9        0.000000       -0.697002         3
         3         2         4         5     9      180.000000        0.360314         4
         3         2         4         6     9        0.000000        0.131256         1
         3         2         4         6     9      180.000000       14.644040         2
         3         2         4         6     9        0.000000       -0.531598         3
         3         2         4         6     9      180.000000        0.129726         4
         4         2         1         8     9        0.000000       -0.158206         1
         4         2         1         8     9      180.000000       18.229921         2
         4         2         1         8     9        0.000000       -1.609242         3
         4         2         1         8     9      180.000000       -0.333467         4
         4         2         1        21     9        0.000000        0.181987         1
         4         2         1        21     9      180.000000       16.183473         2
         4         2         1        21     9        0.000000       -0.295217         3
         4         2         1        21     9      180.000000       -0.337464         4
         4         6         7         8     9        0.000000       -0.095826         1
         4         6         7         8     9      180.000000       15.373859         2
         4         6         7         8     9        0.000000       -0.812716         3
         4         6         7         8     9      180.000000       -0.309478         4
         4         6         7        15     9        0.000000        0.317601         1
         4         6         7        15     9      180.000000       12.594617         2
         4         6         7        15     9        0.000000        0.140950         3
         4         6         7        15     9      180.000000       -0.263644         4
         4         6        10        11     9        0.000000       -0.524440         1
         4         6        10        11     9      180.000000        0.965350         2
         4         6        10        11     9        0.000000        0.127626         3
         4         6        10        11     9      180.000000        0.274670         4
         5         4         6         7     9        0.000000        0.029945         1
         5         4         6         7     9      180.000000       13.435392         2
         5         4         6         7     9        0.000000       -0.361852         3
         5         4         6         7     9      180.000000       -0.014588         4
         5         4         6        10     9        0.000000        0.018714         1
         5         4         6        10     9      180.000000       16.055862         2
         5         4         6        10     9        0.000000        0.173212         3
         5         4         6        10     9      180.000000        0.104013         4
         6         7         8         9     9        0.000000        0.257708         1
         6         7         8         9     9      180.000000       14.607370         2
         6         7         8         9     9        0.000000       -0.267585         3
         6         7         8         9     9      180.000000        0.022047         4
         6         7        15        12     9        0.000000        0.442429         1
         6         7        15        12     9      180.000000       -0.582160         2
         6         7        15        12     9        0.000000        0.566510         3
         6         7        15        12     9      180.000000        0.177976         4
         6         7        15        16     9        0.000000        0.102814         1
         6         7        15        16     9      180.000000       -0.121196         2
         6         7        15        16     9        0.000000       -0.091766         3
         6         7        15        16     9      180.000000        0.098350         4
         6         7        15        19     9        0.000000       -1.211495         1
         6         7        15        19     9      180.000000        1.208789         2
         6         7        15        19     9        0.000000        0.479329         3
         6         7        15        19     9      180.000000       -0.237524         4
         6        10        11        12     9        0.000000        6.552491         1
         6        10        11        12     9      180.000000       -3.144803         2
         6        10        11        12     9        0.000000       -0.417738         3
         6        10        11        12     9      180.000000        0.734854         4
         6        10        11        39     9        0.000000       -0.601019         1
         6        10        11        39     9      180.000000        0.475001         2
         6        10        11        39     9        0.000000        0.451956         3
         6        10        11        39     9      180.000000        0.038632         4
         6        10        11        43     9        0.000000       -0.601019         1
         6        10        11        43     9      180.000000        0.475001         2
         6        10        11        43     9        0.000000        0.451956         3
         6        10        11        43     9      180.000000        0.038632         4
         7         6        10        11     9        0.000000        1.640771         1
         7         6        10        11     9      180.000000        0.065588         2
         7         6        10        11     9        0.000000       -0.117565         3
         7         6        10        11     9      180.000000        0.605195         4
         7         8         1        21     9        0.000000        0.040927         1
         7         8         1        21     9      180.000000       17.032276         2
         7         8         1        21     9        0.000000       -0.259393         3
         7         8         1        21     9      180.000000       -0.508728         4
         7        15        12        11     9        0.000000        1.224939         1
         7        15        12        11     9      180.000000       -1.112698         2
         7        15        12        11     9        0.000000        0.379613         3
         7        15        12        11     9      180.000000        0.212213         4
         7        15        12        13     9        0.000000        0.060303         1
         7        15        12        13     9      180.000000        0.038717         2
         7        15        12        13     9        0.000000        0.531071         3
         7        15        12        13     9      180.000000        0.004443         4
         7        15        12        14     9        0.000000        0.060303         1
         7        15        12        14     9      180.000000        0.038717         2
         7        15        12        14     9        0.000000        0.531071         3
         7        15        12        14     9      180.000000        0.004443         4
         7        15        16        17     9        0.000000        0.204138         1
         7        15        16        17     9      180.000000        2.054007         2
         7        15        16        17     9        0.000000        0.314617         3
         7        15        16        17     9      180.000000        0.636535         4
         7        15        16        38     9        0.000000       -1.028429         1
         7        15        16        38     9      180.000000        1.994955         2
         7        15        16        38     9        0.000000       -0.383167         3
         7        15        16        38     9      180.000000        0.534449         4
         7        15        19        18     9        0.000000        1.475577         1
         7        15        19        18     9      180.000000        0.330887         2
         7        15        19        18     9        0.000000        0.426833         3
         7        15        19        18     9      180.000000        0.176206         4
         7        15        19        20     9        0.000000        1.133225         1
         7        15        19        20     9      180.000000       -0.176846         2
         7        15        19        20     9        0.000000        0.307694         3
         7        15        19        20     9      180.000000        0.155610         4
         8         1        21        29     9        0.000000        0.002232         1
         8         1        21        29     9      180.000000        3.265516         2
         8         1        21        29     9        0.000000        0.024998         3
         8         1        21        29     9      180.000000       -0.134597         4
         8         1        21        36     9        0.000000       -0.059579         1
         8         1        21        36     9      180.000000        2.964068         2
         8         1        21        36     9        0.000000        0.099390         3
         8         1        21        36     9      180.000000       -0.187002         4
         8         7         6        10     9        0.000000        0.081325         1
         8         7         6        10     9      180.000000       16.854432         2
         8         7         6        10     9        0.000000        0.620140         3
         8         7         6        10     9      180.000000       -0.438171         4
         8         7        15        12     9        0.000000       -0.406409         1
         8         7        15        12     9      180.000000        0.653538         2
         8         7        15        12     9        0.000000       -0.255390         3
         8         7        15        12     9      180.000000        0.240537         4
         8         7        15        16     9        0.000000       -0.840165         1
         8         7        15        16     9      180.000000       -0.271277         2
         8         7        15        16     9        0.000000       -0.294592         3
         8         7        15        16     9      180.000000        0.220637         4
         8         7        15        19     9        0.000000       -0.256939         1
         8         7        15        19     9      180.000000        1.910004         2
         8         7        15        19     9        0.000000       -0.161648         3
         8         7        15        19     9      180.000000       -0.006959         4
         9         8         1        21     9        0.000000       -0.088111         1
         9         8         1        21     9      180.000000       13.250305         2
         9         8         1        21     9        0.000000       -0.217261         3
         9         8         1        21     9      180.000000        0.156824         4
         9         8         7        15     9        0.000000       -0.089390         1
         9         8         7        15     9      180.000000       13.499754         2
         9         8         7        15     9        0.000000       -0.225839         3
         9         8         7        15     9      180.000000        0.074571         4
        10         6         7        15     9        0.000000        0.652877         1
        10         6         7        15     9      180.000000       13.735837         2
        10         6         7        15     9        0.000000        0.969375         3
        10         6         7        15     9      180.000000       -0.661470         4
        10        11        12        13     9        0.000000        0.010187         1
        10        11        12        13     9      180.000000        0.032223         2
        10        11        12        13     9        0.000000        0.118020         3
        10        11        12        13     9      180.000000        0.005280         4
        10        11        12        14     9        0.000000        0.010187         1
        10        11        12        14     9      180.000000        0.032223         2
        10        11        12        14     9        0.000000        0.118020         3
        10        11        12        14     9      180.000000        0.005280         4
        10        11        12        15     9        0.000000        6.398275         1
        10        11        12        15     9      180.000000       -3.171040         2
        10        11        12        15     9        0.000000       -0.812227         3
        10        11        12        15     9      180.000000        0.264324         4
        10        11        39        40     9        0.000000        0.022757         1
        10        11        39        40     9      180.000000       -0.106326         2
        10        11        39        40     9        0.000000        0.371208         3
        10        11        39        40     9      180.000000        0.017378         4
        10        11        39        41     9        0.000000        0.022757         1
        10        11        39        41     9      180.000000       -0.106326         2
        10        11        39        41     9        0.000000        0.371208         3
        10        11        39        41     9      180.000000        0.017378         4
        10        11        39        42     9        0.000000        0.022757         1
        10        11        39        42     9      180.000000       -0.106326         2
        10        11        39        42     9        0.000000        0.371208         3
        10        11        39        42     9      180.000000        0.017378         4
        10        11        43        44     9        0.000000        0.022757         1
        10        11        43        44     9      180.000000       -0.106326         2
        10        11        43        44     9        0.000000        0.371208         3
        10        11        43        44     9      180.000000        0.017378         4
        10        11        43        45     9        0.000000        0.022757         1
        10        11        43        45     9      180.000000       -0.106326         2
        10        11        43        45     9        0.000000        0.371208         3
        10        11        43        45     9      180.000000        0.017378         4
        10        11        43        46     9        0.000000        0.022757         1
        10        11        43        46     9      180.000000       -0.106326         2
        10        11        43        46     9        0.000000        0.371208         3
        10        11        43        46     9      180.000000        0.017378         4
        11        12        15        16     9        0.000000       -0.158489         1
        11        12        15        16     9      180.000000        0.109710         2
        11        12        15        16     9        0.000000        0.008060         3
        11        12        15        16     9      180.000000        0.059205         4
        11        12        15        19     9        0.000000       -1.376753         1
        11        12        15        19     9      180.000000       -0.656378         2
        11        12        15        19     9        0.000000        0.372563         3
        11        12        15        19     9      180.000000        0.291438         4
        12        11        39        40     9        0.000000       -0.089919         1
        12        11        39        40     9      180.000000        0.000423         2
        12        11        39        40     9        0.000000        0.433042         3
        12        11        39        40     9      180.000000        0.019250         4
        12        11        39        41     9        0.000000       -0.089919         1
        12        11        39        41     9      180.000000        0.000423         2
        12        11        39        41     9        0.000000        0.433042         3
        12        11        39        41     9      180.000000        0.019250         4
        12        11        39        42     9        0.000000       -0.089919         1
        12        11        39        42     9      180.000000        0.000423         2
        12        11        39        42     9        0.000000        0.433042         3
        12        11        39        42     9      180.000000        0.019250         4
        12        11        43        44     9        0.000000       -0.089919         1
        12        11        43        44     9      180.000000        0.000423         2
        12        11        43        44     9        0.000000        0.433042         3
        12        11        43        44     9      180.000000        0.019250         4
        12        11        43        45     9        0.000000       -0.089919         1
        12        11        43        45     9      180.000000        0.000423         2
        12        11        43        45     9        0.000000        0.433042         3
        12        11        43        45     9      180.000000        0.019250         4
        12        11        43        46     9        0.000000       -0.089919         1
        12        11        43        46     9      180.000000        0.000423         2
        12        11        43        46     9        0.000000        0.433042         3
        12        11        43        46     9      180.000000        0.019250         4
        12        15        16        17     9        0.000000       -0.141660         1
        12        15        16        17     9      180.000000        3.066579         2
        12        15        16        17     9        0.000000        0.134318         3
        12        15        16        17     9      180.000000        0.386088         4
        12        15        16        38     9        0.000000        1.080604         1
        12        15        16        38     9      180.000000        2.732702         2
        12        15        16        38     9        0.000000       -0.579963         3
        12        15        16        38     9      180.000000        0.528779         4
        12        15        19        18     9        0.000000       -0.582310         1
        12        15        19        18     9      180.000000        0.755302         2
        12        15        19        18     9        0.000000        0.351235         3
        12        15        19        18     9      180.000000        0.157736         4
        12        15        19        20     9        0.000000        0.171427         1
        12        15        19        20     9      180.000000       -0.174988         2
        12        15        19        20     9        0.000000        0.231541         3
        12        15        19        20     9      180.000000       -0.054083         4
        13        12        11        39     9        0.000000       -0.021980         1
        13        12        11        39     9      180.000000       -0.009422         2
        13        12        11        39     9        0.000000        0.356718         3
        13        12        11        39     9      180.000000       -0.000954         4
        13        12        11        43     9        0.000000       -0.021980         1
        13        12        11        43     9      180.000000       -0.009422         2
        13        12        11        43     9        0.000000        0.356718         3
        13        12        11        43     9      180.000000       -0.000954         4
        13        12        15        16     9        0.000000       -0.120531         1
        13        12        15        16     9      180.000000        0.006259         2
        13        12        15        16     9        0.000000        0.249160         3
        13        12        15        16     9      180.000000        0.015556         4
        13        12        15        19     9        0.000000        0.048077         1
        13        12        15        19     9      180.000000        0.031139         2
        13        12        15        19     9        0.000000        0.441342         3
        13        12        15        19     9      180.000000       -0.090829         4
        14        12        11        39     9        0.000000       -0.021980         1
        14        12        11        39     9      180.000000       -0.009422         2
        14        12        11        39     9        0.000000        0.356718         3
        14        12        11        39     9      180.000000       -0.000954         4
        14        12        11        43     9        0.000000       -0.021980         1
        14        12        11        43     9      180.000000       -0.009422         2
        14        12        11        43     9        0.000000        0.356718         3
        14        12        11        43     9      180.000000       -0.000954         4
        14        12        15        16     9        0.000000       -0.120531         1
        14        12        15        16     9      180.000000        0.006259         2
        14        12        15        16     9        0.000000        0.249160         3
        14        12        15        16     9      180.000000        0.015556         4
        14        12        15        19     9        0.000000        0.048077         1
        14        12        15        19     9      180.000000        0.031139         2
        14        12        15        19     9        0.000000        0.441342         3
        14        12        15        19     9      180.000000       -0.090829         4
        15        12        11        39     9        0.000000       -0.491719         1
        15        12        11        39     9      180.000000        0.610387         2
        15        12        11        39     9        0.000000        0.252005         3
        15        12        11        39     9      180.000000       -0.014027         4
        15        12        11        43     9        0.000000       -0.491719         1
        15        12        11        43     9      180.000000        0.610387         2
        15        12        11        43     9        0.000000        0.252005         3
        15        12        11        43     9      180.000000       -0.014027         4
        15        16        17        18     9        0.000000       -2.621426         1
        15        16        17        18     9      180.000000       12.608727         2
        15        16        17        18     9        0.000000       -1.689385         3
        15        16        17        18     9      180.000000       -0.516965         4
        15        16        17        22     9        0.000000       -1.161959         1
        15        16        17        22     9      180.000000        6.523790         2
        15        16        17        22     9        0.000000        0.171203         3
        15        16        17        22     9      180.000000       -0.171941         4
        15        19        18        17     9        0.000000       -1.486140         1
        15        19        18        17     9      180.000000       26.058799         2
        15        19        18        17     9        0.000000       -2.115652         3
        15        19        18        17     9      180.000000       -2.999679         4
        15        19        18        26     9        0.000000        1.704033         1
        15        19        18        26     9      180.000000       19.771991         2
        15        19        18        26     9        0.000000        0.715132         3
        15        19        18        26     9      180.000000       -2.025611         4
        16        15        19        18     9        0.000000       -3.202930         1
        16        15        19        18     9      180.000000        3.675471         2
        16        15        19        18     9        0.000000       -0.128940         3
        16        15        19        18     9      180.000000       -0.635128         4
        16        15        19        20     9        0.000000       -0.882341         1
        16        15        19        20     9      180.000000       -0.826404         2
        16        15        19        20     9        0.000000        0.165262         3
        16        15        19        20     9      180.000000        0.141885         4
        16        17        18        19     9        0.000000       -2.490328         1
        16        17        18        19     9      180.000000       13.834040         2
        16        17        18        19     9        0.000000       -2.378247         3
        16        17        18        19     9      180.000000       -1.280421         4
        16        17        18        26     9        0.000000        1.935113         1
        16        17        18        26     9      180.000000       11.081021         2
        16        17        18        26     9        0.000000       -0.210529         3
        16        17        18        26     9      180.000000       -0.637296         4
        16        17        22        23     9        0.000000       -0.046462         1
        16        17        22        23     9      180.000000       -0.089247         2
        16        17        22        23     9        0.000000       -0.283225         3
        16        17        22        23     9      180.000000        0.030104         4
        16        17        22        24     9        0.000000       -0.046462         1
        16        17        22        24     9      180.000000       -0.089247         2
        16        17        22        24     9        0.000000       -0.283225         3
        16        17        22        24     9      180.000000        0.030104         4
        16        17        22        25     9        0.000000       -0.046462         1
        16        17        22        25     9      180.000000       -0.089247         2
        16        17        22        25     9        0.000000       -0.283225         3
        16        17        22        25     9      180.000000        0.030104         4
        17        16        15        19     9        0.000000        0.490408         1
        17        16        15        19     9      180.000000        7.821340         2
        17        16        15        19     9        0.000000       -0.339097         3
        17        16        15        19     9      180.000000       -0.046198         4
        17        18        19        20     9        0.000000        0.456219         1
        17        18        19        20     9      180.000000       11.615587         2
        17        18        19        20     9        0.000000        0.224486         3
        17        18        19        20     9      180.000000       -0.965494         4
        17        18        26        27     9        0.000000       -0.170244         1
        17        18        26        27     9      180.000000        6.404527         2
        17        18        26        27     9        0.000000        0.524424         3
        17        18        26        27     9      180.000000       -0.541232         4
        17        18        26        28     9        0.000000       -0.170244         1
        17        18        26        28     9      180.000000        6.404527         2
        17        18        26        28     9        0.000000        0.524424         3
        17        18        26        28     9      180.000000       -0.541232         4
        18        17        16        38     9        0.000000        1.168478         1
        18        17        16        38     9      180.000000       20.631698         2
        18        17        16        38     9        0.000000       -0.713105         3
        18        17        16        38     9      180.000000       -0.822735         4
        18        17        22        23     9        0.000000        0.029063         1
        18        17        22        23     9      180.000000        0.021416         2
        18        17        22        23     9        0.000000        0.188894         3
        18        17        22        23     9      180.000000       -0.011671         4
        18        17        22        24     9        0.000000        0.029063         1
        18        17        22        24     9      180.000000        0.021416         2
        18        17        22        24     9        0.000000        0.188894         3
        18        17        22        24     9      180.000000       -0.011671         4
        18        17        22        25     9        0.000000        0.029063         1
        18        17        22        25     9      180.000000        0.021417         2
        18        17        22        25     9        0.000000        0.188894         3
        18        17        22        25     9      180.000000       -0.011671         4
        19        15        16        38     9        0.000000        7.981292         1
        19        15        16        38     9      180.000000        7.024952         2
        19        15        16        38     9        0.000000       -0.163171         3
        19        15        16        38     9      180.000000        0.325120         4
        19        18        17        22     9        0.000000       -3.776014         1
        19        18        17        22     9      180.000000        5.458345         2
        19        18        17        22     9        0.000000       -0.154527         3
        19        18        17        22     9      180.000000        0.081931         4
        19        18        26        27     9        0.000000       -1.696700         1
        19        18        26        27     9      180.000000        6.696568         2
        19        18        26        27     9        0.000000        0.180424         3
        19        18        26        27     9      180.000000       -0.442659         4
        19        18        26        28     9        0.000000       -1.696700         1
        19        18        26        28     9      180.000000        6.696568         2
        19        18        26        28     9        0.000000        0.180424         3
        19        18        26        28     9      180.000000       -0.442659         4
        20        19        18        26     9        0.000000        0.829726         1
        20        19        18        26     9      180.000000        7.727449         2
        20        19        18        26     9        0.000000        0.246605         3
        20        19        18        26     9      180.000000       -0.383134         4
        21        29        31        32     9        0.000000        0.342919         1
        21        29        31        32     9      180.000000       23.486442         2
        21        29        31        32     9        0.000000        0.613956         3
        21        29        31        32     9      180.000000       -0.859535         4
        21        29        31        33     9        0.000000       -0.023557         1
        21        29        31        33     9      180.000000       17.241320         2
        21        29        31        33     9        0.000000       -1.280110         3
        21        29        31        33     9      180.000000       -0.385184         4
        21        36        35        33     9        0.000000        0.142517         1
        21        36        35        33     9      180.000000       23.239071         2
        21        36        35        33     9        0.000000       -0.815176         3
        21        36        35        33     9      180.000000       -0.151729         4
        22        17        16        38     9        0.000000       -0.327768         1
        22        17        16        38     9      180.000000        9.752935         2
        22        17        16        38     9        0.000000       -0.183564         3
        22        17        16        38     9      180.000000        0.446364         4
        22        17        18        26     9        0.000000        1.331771         1
        22        17        18        26     9      180.000000        6.631611         2
        22        17        18        26     9        0.000000        0.055652         3
        22        17        18        26     9      180.000000       -0.063283         4
        29        21        36        35     9        0.000000       -0.104375         1
        29        21        36        35     9      180.000000       17.401501         2
        29        21        36        35     9        0.000000       -0.767310         3
        29        21        36        35     9      180.000000       -0.380938         4
        29        21        36        37     9        0.000000       -0.121823         1
        29        21        36        37     9      180.000000       13.528368         2
        29        21        36        37     9        0.000000       -0.389751         3
        29        21        36        37     9      180.000000        0.091514         4
        29        31        33        34     9        0.000000        0.258218         1
        29        31        33        34     9      180.000000       12.591421         2
        29        31        33        34     9        0.000000       -0.384979         3
        29        31        33        34     9      180.000000        0.043504         4
        29        31        33        35     9        0.000000       -0.066085         1
        29        31        33        35     9      180.000000       15.518505         2
        29        31        33        35     9        0.000000       -0.733723         3
        29        31        33        35     9      180.000000       -0.337103         4
        30        29        21        36     9        0.000000       -0.035584         1
        30        29        21        36     9      180.000000       13.038927         2
        30        29        21        36     9        0.000000       -0.647234         3
        30        29        21        36     9      180.000000        0.099768         4
        30        29        31        32     9        0.000000        0.372022         1
        30        29        31        32     9      180.000000       16.070295         2
        30        29        31        32     9        0.000000        0.288164         3
        30        29        31        32     9      180.000000        0.168786         4
        30        29        31        33     9        0.000000        0.104117         1
        30        29        31        33     9      180.000000       12.733337         2
        30        29        31        33     9        0.000000       -0.515736         3
        30        29        31        33     9      180.000000        0.158975         4
        31        29        21        36     9        0.000000       -0.233190         1
        31        29        21        36     9      180.000000       18.200340         2
        31        29        21        36     9        0.000000       -1.815163         3
        31        29        21        36     9      180.000000       -0.380871         4
        31        33        35        36     9        0.000000        0.043811         1
        31        33        35        36     9      180.000000       22.521314         2
        31        33        35        36     9        0.000000       -0.650710         3
        31        33        35        36     9      180.000000       -0.105379         4
        32        31        33        34     9        0.000000        0.357492         1
        32        31        33        34     9      180.000000       15.533966         2
        32        31        33        34     9        0.000000        0.259986         3
        32        31        33        34     9      180.000000        0.147955         4
        32        31        33        35     9        0.000000        0.167382         1
        32        31        33        35     9      180.000000       22.231474         2
        32        31        33        35     9        0.000000        0.540698         3
        32        31        33        35     9      180.000000       -1.057061         4
        33        35        36        37     9        0.000000        1.165018         1
        33        35        36        37     9      180.000000       21.606260         2
        33        35        36        37     9        0.000000        0.176763         3
        33        35        36        37     9      180.000000       -0.232740         4
        34        33        35        36     9        0.000000        0.890491         1
        34        33        35        36     9      180.000000       19.984231         2
        34        33        35        36     9        0.000000        0.218515         3
        34        33        35        36     9      180.000000       -0.401087         4
        39        11        43        44     9        0.000000       -0.082665         1
        39        11        43        44     9      180.000000        0.011908         2
        39        11        43        44     9        0.000000        0.531653         3
        39        11        43        44     9      180.000000        0.044561         4
        39        11        43        45     9        0.000000       -0.082665         1
        39        11        43        45     9      180.000000        0.011908         2
        39        11        43        45     9        0.000000        0.531653         3
        39        11        43        45     9      180.000000        0.044561         4
        39        11        43        46     9        0.000000       -0.082665         1
        39        11        43        46     9      180.000000        0.011908         2
        39        11        43        46     9        0.000000        0.531653         3
        39        11        43        46     9      180.000000        0.044561         4
        40        39        11        43     9        0.000000       -0.082665         1
        40        39        11        43     9      180.000000        0.011908         2
        40        39        11        43     9        0.000000        0.531653         3
        40        39        11        43     9      180.000000        0.044561         4
        41        39        11        43     9        0.000000       -0.082665         1
        41        39        11        43     9      180.000000        0.011908         2
        41        39        11        43     9        0.000000        0.531653         3
        41        39        11        43     9      180.000000        0.044561         4
        42        39        11        43     9        0.000000       -0.082665         1
        42        39        11        43     9      180.000000        0.011908         2
        42        39        11        43     9        0.000000        0.531653         3
        42        39        11        43     9      180.000000        0.044561         4

[ dihedrals ] ; impropers
;       ai        aj        ak        al funct           phase               k        pn
        16        15        17        38     4      180.000000       26.920058         2
        16        17        38        15     4      180.000000       26.920058         2
        16        38        15        17     4      180.000000       26.920058         2
        18        17        19        26     4      180.000000       10.189569         2
        18        19        26        17     4      180.000000       10.189569         2
        18        26        17        19     4      180.000000       10.189569         2
        33        31        34        35     4      180.000000        2.510607         2
        33        34        35        31     4      180.000000        2.510607         2
        33        35        31        34     4      180.000000        2.510607         2
        36        21        35        37     4      180.000000        1.163926         2
        36        35        37        21     4      180.000000        1.163926         2
        36        37        21        35     4      180.000000        1.163926         2

[ pairs ]
;       ai        aj funct
         1         5     1
         1         6     1
         1        15     1
         1        30     1
         1        31     1
         1        35     1
         1        37     1
         2         7     1
         2         9     1
         2        10     1
         2        29     1
         2        36     1
         3         5     1
         3         6     1
         3         8     1
         3        21     1
         4         8     1
         4        11     1
         4        15     1
         4        21     1
         5         7     1
         5        10     1
         6         9     1
         6        12     1
         6        16     1
         6        19     1
         6        39     1
         6        43     1
         7        11     1
         7        13     1
         7        14     1
         7        17     1
         7        18     1
         7        20     1
         7        21     1
         7        38     1
         8        10     1
         8        12     1
         8        16     1
         8        19     1
         8        29     1
         8        36     1
         9        15     1
         9        21     1
        10        13     1
        10        14     1
        10        15     1
        10        40     1
        10        41     1
        10        42     1
        10        44     1
        10        45     1
        10        46     1
        11        16     1
        11        19     1
        12        17     1
        12        18     1
        12        20     1
        12        38     1
        12        40     1
        12        41     1
        12        42     1
        12        44     1
        12        45     1
        12        46     1
        13        16     1
        13        19     1
        13        39     1
        13        43     1
        14        16     1
        14        19     1
        14        39     1
        14        43     1
        15        22     1
        15        26     1
        15        39     1
        15        43     1
        16        20     1
        16        23     1
        16        24     1
        16        25     1
        16        26     1
        17        20     1
        17        27     1
        17        28     1
        18        23     1
        18        24     1
        18        25     1
        18        38     1
        19        22     1
        19        27     1
        19        28     1
        19        38     1
        20        26     1
        21        32     1
        21        33     1
        22        26     1
        22        38     1
        29        34     1
        29        35     1
        29        37     1
        30        32     1
        30        33     1
        30        36     1
        31        36     1
        32        34     1
        32        35     1
        33        37     1
        34        36     1
        39        44     1
        39        45     1
        39        46     1
        40        43     1
        41        43     1
        42        43     1
