; ITP file created by ByteFF-ML, 2026-03-14 15:28:03.099120

[ atomtypes ]
;name           bonded.type        at.num        mass        charge   ptype           sigma         epsilon
 c0bf                                   6      0.0000       0.00000       A     3.31306e-01     4.11132e-01
 c1bf                                   6      0.0000       0.00000       A     3.31527e-01     4.12517e-01
 h2bf                                   1      0.0000       0.00000       A     2.62492e-01     6.74180e-02
 c3bf                                   6      0.0000       0.00000       A     3.31535e-01     4.11824e-01
 h4bf                                   1      0.0000       0.00000       A     2.62407e-01     6.68546e-02
 c5bf                                   6      0.0000       0.00000       A     3.31207e-01     4.11124e-01
 c6bf                                   6      0.0000       0.00000       A     3.31210e-01     4.12084e-01
 c7bf                                   6      0.0000       0.00000       A     3.31356e-01     4.12226e-01
 h8bf                                   1      0.0000       0.00000       A     2.62518e-01     6.74531e-02
 o9bf                                   8      0.0000       0.00000       A     3.15529e-01     3.02270e-01
 c10bf                                  6      0.0000       0.00000       A     3.39880e-01     4.53386e-01
 c11bf                                  6      0.0000       0.00000       A     3.39567e-01     4.51771e-01
 h12bf                                  1      0.0000       0.00000       A     2.59417e-01     8.63170e-02
 h13bf                                  1      0.0000       0.00000       A     2.59417e-01     8.63170e-02
 c14bf                                  6      0.0000       0.00000       A     3.39898e-01     4.52988e-01
 c15bf                                  6      0.0000       0.00000       A     3.31525e-01     4.13256e-01
 n16bf                                  7      0.0000       0.00000       A     3.18147e-01     7.08350e-01
 c17bf                                  6      0.0000       0.00000       A     3.31173e-01     4.11985e-01
 n18bf                                  7      0.0000       0.00000       A     3.26363e-01     6.55753e-01
 h19bf                                  1      0.0000       0.00000       A     1.10240e-01     4.07109e-02
 c20bf                                  6      0.0000       0.00000       A     3.39925e-01     4.53383e-01
 h21bf                                  1      0.0000       0.00000       A     2.42238e-01     8.60936e-02
 h22bf                                  1      0.0000       0.00000       A     2.42238e-01     8.60936e-02
 h23bf                                  1      0.0000       0.00000       A     2.42238e-01     8.60936e-02
 n24bf                                  7      0.0000       0.00000       A     3.36693e-01     4.77150e-01
 h25bf                                  1      0.0000       0.00000       A     1.10539e-01     3.88978e-02
 h26bf                                  1      0.0000       0.00000       A     1.10539e-01     3.88978e-02
 o27bf                                  8      0.0000       0.00000       A     3.04358e-01     6.10575e-01
 c28bf                                  6      0.0000       0.00000       A     3.39798e-01     4.50250e-01
 h29bf                                  1      0.0000       0.00000       A     2.59893e-01     8.82802e-02
 h30bf                                  1      0.0000       0.00000       A     2.59893e-01     8.82802e-02
 h31bf                                  1      0.0000       0.00000       A     2.59893e-01     8.82802e-02
 c32bf                                  6      0.0000       0.00000       A     3.39798e-01     4.50250e-01
 h33bf                                  1      0.0000       0.00000       A     2.59893e-01     8.82802e-02
 h34bf                                  1      0.0000       0.00000       A     2.59893e-01     8.82802e-02
 h35bf                                  1      0.0000       0.00000       A     2.59893e-01     8.82802e-02
 c36bf                                  6      0.0000       0.00000       A     3.31416e-01     4.14959e-01
 o37bf                                  8      0.0000       0.00000       A     3.04761e-01     6.11459e-01
 n38bf                                  7      0.0000       0.00000       A     3.27243e-01     4.88242e-01
 h39bf                                  1      0.0000       0.00000       A     1.10596e-01     4.08929e-02
 c40bf                                  6      0.0000       0.00000       A     3.31455e-01     4.12933e-01
 h41bf                                  1      0.0000       0.00000       A     2.62801e-01     6.75600e-02
 c42bf                                  6      0.0000       0.00000       A     3.31367e-01     4.13473e-01
 h43bf                                  1      0.0000       0.00000       A     2.62789e-01     6.75377e-02
 c44bf                                  6      0.0000       0.00000       A     3.31388e-01     4.13163e-01
 o45bf                                  8      0.0000       0.00000       A     3.15381e-01     3.04370e-01
 c46bf                                  6      0.0000       0.00000       A     3.31509e-01     4.11850e-01
 c47bf                                  6      0.0000       0.00000       A     3.39819e-01     4.51555e-01
 h48bf                                  1      0.0000       0.00000       A     2.60012e-01     8.74997e-02
 h49bf                                  1      0.0000       0.00000       A     2.60012e-01     8.74997e-02
 h50bf                                  1      0.0000       0.00000       A     2.60012e-01     8.74997e-02

[ moleculetype ]
;name             nrexcl
 41                    3

[ atoms ]
;       nr            type      resi   res      atom      cgnr      charge          mass ; qtot
         1            c0bf         1   UNL        c0         1    -0.03969       12.0110 ; qtot   -0.040
         2            c1bf         1   UNL        c1         2    -0.11615       12.0110 ; qtot   -0.156
         3            h2bf         1   UNL        h2         3     0.13363        1.0080 ; qtot   -0.022
         4            c3bf         1   UNL        c3         4    -0.10527       12.0110 ; qtot   -0.127
         5            h4bf         1   UNL        h4         5     0.13365        1.0080 ; qtot    0.006
         6            c5bf         1   UNL        c5         6     0.14391       12.0110 ; qtot    0.150
         7            c6bf         1   UNL        c6         7    -0.16297       12.0110 ; qtot   -0.013
         8            c7bf         1   UNL        c7         8    -0.08201       12.0110 ; qtot   -0.095
         9            h8bf         1   UNL        h8         9     0.14258        1.0080 ; qtot    0.048
        10            o9bf         1   UNL        o9        10    -0.35953       15.9990 ; qtot   -0.312
        11           c10bf         1   UNL       c10        11     0.18141       12.0110 ; qtot   -0.130
        12           c11bf         1   UNL       c11        12    -0.08164       12.0110 ; qtot   -0.212
        13           h12bf         1   UNL       h12        13     0.08348        1.0080 ; qtot   -0.129
        14           h13bf         1   UNL       h13        14     0.08348        1.0080 ; qtot   -0.045
        15           c14bf         1   UNL       c14        15     0.11037       12.0110 ; qtot    0.065
        16           c15bf         1   UNL       c15        16     0.54992       12.0110 ; qtot    0.615
        17           n16bf         1   UNL       n16        17    -0.64651       14.0070 ; qtot   -0.031
        18           c17bf         1   UNL       c17        18     0.99722       12.0110 ; qtot    0.966
        19           n18bf         1   UNL       n18        19    -0.63179       14.0070 ; qtot    0.334
        20           h19bf         1   UNL       h19        20     0.41427        1.0080 ; qtot    0.748
        21           c20bf         1   UNL       c20        21     0.07086       12.0110 ; qtot    0.819
        22           h21bf         1   UNL       h21        22     0.09037        1.0080 ; qtot    0.910
        23           h22bf         1   UNL       h22        23     0.09037        1.0080 ; qtot    1.000
        24           h23bf         1   UNL       h23        24     0.09037        1.0080 ; qtot    1.090
        25           n24bf         1   UNL       n24        25    -0.57853       14.0070 ; qtot    0.512
        26           h25bf         1   UNL       h25        26     0.38249        1.0080 ; qtot    0.894
        27           h26bf         1   UNL       h26        27     0.38249        1.0080 ; qtot    1.277
        28           o27bf         1   UNL       o27        28    -0.39811       15.9990 ; qtot    0.879
        29           c28bf         1   UNL       c28        29    -0.10005       12.0110 ; qtot    0.779
        30           h29bf         1   UNL       h29        30     0.04877        1.0080 ; qtot    0.827
        31           h30bf         1   UNL       h30        31     0.04877        1.0080 ; qtot    0.876
        32           h31bf         1   UNL       h31        32     0.04877        1.0080 ; qtot    0.925
        33           c32bf         1   UNL       c32        33    -0.10005       12.0110 ; qtot    0.825
        34           h33bf         1   UNL       h33        34     0.04877        1.0080 ; qtot    0.874
        35           h34bf         1   UNL       h34        35     0.04877        1.0080 ; qtot    0.922
        36           h35bf         1   UNL       h35        36     0.04877        1.0080 ; qtot    0.971
        37           c36bf         1   UNL       c36        37     0.54703       12.0110 ; qtot    1.518
        38           o37bf         1   UNL       o37        38    -0.56625       15.9990 ; qtot    0.952
        39           n38bf         1   UNL       n38        39    -0.14212       14.0070 ; qtot    0.810
        40           h39bf         1   UNL       h39        40     0.15982        1.0080 ; qtot    0.970
        41           c40bf         1   UNL       c40        41    -0.19724       12.0110 ; qtot    0.772
        42           h41bf         1   UNL       h41        42     0.14552        1.0080 ; qtot    0.918
        43           c42bf         1   UNL       c42        43    -0.10388       12.0110 ; qtot    0.814
        44           h43bf         1   UNL       h43        44     0.15225        1.0080 ; qtot    0.966
        45           c44bf         1   UNL       c44        45     0.05467       12.0110 ; qtot    1.021
        46           o45bf         1   UNL       o45        46    -0.23589       15.9990 ; qtot    0.785
        47           c46bf         1   UNL       c46        47     0.17537       12.0110 ; qtot    0.960
        48           c47bf         1   UNL       c47        48    -0.12868       12.0110 ; qtot    0.832
        49           h48bf         1   UNL       h48        49     0.05606        1.0080 ; qtot    0.888
        50           h49bf         1   UNL       h49        50     0.05606        1.0080 ; qtot    0.944
        51           h50bf         1   UNL       h50        51     0.05609        1.0080 ; qtot    1.000

[ bonds ]
;       ai        aj funct               r               k
         1         2     1        0.140584   283276.106055
         1         8     1        0.139934   290032.254785
         1        39     1        0.141104   246657.678809
         2         3     1        0.108406   324939.746777
         2         4     1        0.139165   333556.401611
         4         5     1        0.108557   321271.392090
         4         6     1        0.139929   289762.327539
         6         7     1        0.140399   277282.137891
         6        10     1        0.136964   260470.190527
         7         8     1        0.140015   299317.854199
         7        15     1        0.151275   180542.051562
         8         9     1        0.108329   325315.550879
        10        11     1        0.145731   141482.468188
        11        12     1        0.154147   164699.186426
        11        29     1        0.152988   183033.962695
        11        33     1        0.152988   183033.962695
        12        13     1        0.109298   301656.951270
        12        14     1        0.109298   301656.951270
        12        15     1        0.154166   160773.787964
        15        16     1        0.154371   128602.980298
        15        19     1        0.148568   146055.321753
        16        17     1        0.141843   159362.683911
        16        28     1        0.120598   711921.798633
        17        18     1        0.135797   301738.465723
        17        21     1        0.146668   196952.070361
        18        19     1        0.133090   390989.564893
        18        25     1        0.133332   412686.097314
        19        20     1        0.101348   425202.319824
        21        22     1        0.109031   312124.791162
        21        23     1        0.109031   312124.791162
        21        24     1        0.109031   312124.791162
        25        26     1        0.101316   425666.584473
        25        27     1        0.101316   425666.584473
        29        30     1        0.109316   303222.120703
        29        31     1        0.109316   303222.120703
        29        32     1        0.109316   303222.120703
        33        34     1        0.109316   303222.120703
        33        35     1        0.109316   303222.120703
        33        36     1        0.109316   303222.120703
        37        38     1        0.122980   600270.032324
        37        39     1        0.138072   257181.981250
        37        45     1        0.147670   199652.875049
        39        40     1        0.101118   420261.272217
        41        42     1        0.108134   338031.575732
        41        43     1        0.142982   266323.627979
        41        47     1        0.137344   371943.299219
        43        44     1        0.108084   339974.490088
        43        45     1        0.137248   375796.491504
        45        46     1        0.137588   217476.960205
        46        47     1        0.136595   231204.254590
        47        48     1        0.148921   232883.677051
        48        49     1        0.109396   302515.764258
        48        50     1        0.109396   302515.764258
        48        51     1        0.109396   302515.764258

[ angles ]
;       ai        aj        ak funct           theta             cth
         1         2         3     1      119.856918      450.664095
         1         2         4     1      119.835938      731.078538
         1         8         7     1      120.906296      672.870528
         1         8         9     1      119.332687      433.444773
         1        39        37     1      128.805344      470.212912
         1        39        40     1      115.204712      447.998723
         2         1         8     1      118.999107      539.882583
         2         1        39     1      120.544945      666.657349
         2         4         5     1      120.733131      426.957645
         2         4         6     1      120.606750      721.602802
         3         2         4     1      120.124496      389.146954
         4         6         7     1      119.782516      572.168448
         4         6        10     1      116.679222      556.084411
         5         4         6     1      118.570755      433.348402
         6         7         8     1      119.434669      718.895613
         6         7        15     1      119.620323      585.340489
         6        10        11     1      117.573624      503.290204
         7         6        10     1      123.697693      521.551120
         7         8         9     1      119.677322      403.864469
         7        15        12     1      111.786171      558.188732
         7        15        16     1      112.008522      604.454377
         7        15        19     1      111.453171      597.994191
         8         1        39     1      120.479553      505.972462
         8         7        15     1      121.075073      436.601479
        10        11        12     1      109.078835      556.881551
        10        11        29     1      106.645714      604.086579
        10        11        33     1      106.645714      604.086579
        11        12        13     1      109.154335      466.471374
        11        12        14     1      109.154335      466.471374
        11        12        15     1      113.053879      640.641355
        11        29        30     1      110.474686      475.605679
        11        29        31     1      110.474686      475.605679
        11        29        32     1      110.474686      475.605679
        11        33        34     1      110.474686      475.605679
        11        33        35     1      110.474686      475.605679
        11        33        36     1      110.474686      475.605679
        12        11        29     1      111.385193      575.618575
        12        11        33     1      111.385193      575.618575
        12        15        16     1      110.810081      616.090361
        12        15        19     1      110.624023      611.419368
        13        12        14     1      107.420326      358.221546
        13        12        15     1      108.621399      474.573277
        14        12        15     1      108.621399      474.573309
        15        16        17     1      106.501602      167.360000
        15        16        28     1      127.623680      358.875201
        15        19        18     1      111.599503      620.548183
        15        19        20     1      121.354553      360.041736
        16        15        19     1      100.381195      330.389417
        16        17        18     1      109.401268      854.894893
        16        17        21     1      123.309692      531.050510
        17        16        28     1      124.771469      662.663664
        17        18        19     1      111.171402      582.762773
        17        18        25     1      123.442459      642.331720
        17        21        22     1      109.308334      484.616097
        17        21        23     1      109.308334      484.616097
        17        21        24     1      109.308334      484.616097
        18        17        21     1      126.712746      464.666028
        18        19        20     1      123.566017      425.702688
        18        25        26     1      120.916794      453.685646
        18        25        27     1      120.916794      453.685646
        19        18        25     1      125.735672      609.105387
        22        21        23     1      109.761864      350.063621
        22        21        24     1      109.761864      350.063621
        23        21        24     1      109.761864      350.063621
        26        25        27     1      117.283279      315.513795
        29        11        33     1      111.043091      610.311568
        30        29        31     1      108.427734      360.868117
        30        29        32     1      108.427734      360.868117
        31        29        32     1      108.427734      360.868117
        34        33        35     1      108.427734      360.868117
        34        33        36     1      108.427734      360.868117
        35        33        36     1      108.427734      360.868117
        37        39        40     1      115.853050      450.372110
        37        45        43     1      133.031464      400.884161
        37        45        46     1      117.364182      504.442374
        38        37        39     1      124.740128      601.918797
        38        37        45     1      121.850937      557.140689
        39        37        45     1      113.421021      443.142554
        41        43        44     1      127.767471      385.705924
        41        43        45     1      106.500572      178.253572
        41        47        46     1      109.649818      201.526945
        41        47        48     1      133.603729      404.838167
        42        41        43     1      127.521973      408.655997
        42        41        47     1      125.871170      376.888120
        43        41        47     1      106.639694      421.503461
        43        45        46     1      109.542702      167.360000
        44        43        45     1      125.979904      359.518417
        45        46        47     1      107.632812      427.581389
        46        47        48     1      116.724709      595.736455
        47        48        49     1      110.715904      495.373253
        47        48        50     1      110.715904      495.373253
        47        48        51     1      110.715904      495.373253
        49        48        50     1      108.194130      359.754443
        49        48        51     1      108.194130      359.754443
        50        48        51     1      108.194130      359.754443

[ dihedrals ] ; propers for gromacs 4.5 or higher, use funct 9
;       ai        aj        ak        al funct           phase               k        pn
         1         2         4         5     9        0.000000        0.091004         1
         1         2         4         5     9      180.000000       14.661767         2
         1         2         4         5     9        0.000000       -0.500599         3
         1         2         4         5     9      180.000000        0.014828         4
         1         2         4         6     9        0.000000        0.126193         1
         1         2         4         6     9      180.000000       18.518418         2
         1         2         4         6     9        0.000000       -1.606772         3
         1         2         4         6     9      180.000000       -0.489457         4
         1         8         7         6     9        0.000000        0.080368         1
         1         8         7         6     9      180.000000       18.225045         2
         1         8         7         6     9        0.000000       -1.446485         3
         1         8         7         6     9      180.000000       -0.379078         4
         1         8         7        15     9        0.000000        0.494137         1
         1         8         7        15     9      180.000000       16.252902         2
         1         8         7        15     9        0.000000       -0.049740         3
         1         8         7        15     9      180.000000       -0.438413         4
         1        39        37        38     9        0.000000       -3.029371         1
         1        39        37        38     9      180.000000        7.571122         2
         1        39        37        38     9        0.000000        0.151566         3
         1        39        37        38     9      180.000000       -0.540886         4
         1        39        37        45     9        0.000000        3.340291         1
         1        39        37        45     9      180.000000        7.005514         2
         1        39        37        45     9        0.000000        0.562434         3
         1        39        37        45     9      180.000000       -0.458389         4
         2         1         8         7     9        0.000000        0.112869         1
         2         1         8         7     9      180.000000       16.399679         2
         2         1         8         7     9        0.000000       -1.238261         3
         2         1         8         7     9      180.000000       -0.301554         4
         2         1         8         9     9        0.000000        0.148933         1
         2         1         8         9     9      180.000000       12.789226         2
         2         1         8         9     9        0.000000       -0.527304         3
         2         1         8         9     9      180.000000        0.151382         4
         2         1        39        37     9        0.000000       -0.009378         1
         2         1        39        37     9      180.000000        2.450383         2
         2         1        39        37     9        0.000000       -0.022745         3
         2         1        39        37     9      180.000000        0.236081         4
         2         1        39        40     9        0.000000        0.107504         1
         2         1        39        40     9      180.000000        1.980078         2
         2         1        39        40     9        0.000000        0.076111         3
         2         1        39        40     9      180.000000        0.201716         4
         2         4         6         7     9        0.000000        0.038377         1
         2         4         6         7     9      180.000000       18.327552         2
         2         4         6         7     9        0.000000       -1.026623         3
         2         4         6         7     9      180.000000       -0.577083         4
         2         4         6        10     9        0.000000        0.378957         1
         2         4         6        10     9      180.000000       20.041258         2
         2         4         6        10     9        0.000000        0.627027         3
         2         4         6        10     9      180.000000       -0.543828         4
         3         2         1         8     9        0.000000        0.154515         1
         3         2         1         8     9      180.000000       12.750151         2
         3         2         1         8     9        0.000000       -0.538988         3
         3         2         1         8     9      180.000000        0.188444         4
         3         2         1        39     9        0.000000       -0.103231         1
         3         2         1        39     9      180.000000       13.217255         2
         3         2         1        39     9        0.000000       -0.267072         3
         3         2         1        39     9      180.000000        0.223580         4
         3         2         4         5     9        0.000000       -0.111805         1
         3         2         4         5     9      180.000000       12.348802         2
         3         2         4         5     9        0.000000       -0.714100         3
         3         2         4         5     9      180.000000        0.309185         4
         3         2         4         6     9        0.000000        0.159147         1
         3         2         4         6     9      180.000000       14.758313         2
         3         2         4         6     9        0.000000       -0.355650         3
         3         2         4         6     9      180.000000        0.061223         4
         4         2         1         8     9        0.000000        0.039555         1
         4         2         1         8     9      180.000000       16.440861         2
         4         2         1         8     9        0.000000       -1.289733         3
         4         2         1         8     9      180.000000       -0.220179         4
         4         2         1        39     9        0.000000        0.270543         1
         4         2         1        39     9      180.000000       17.210090         2
         4         2         1        39     9        0.000000       -0.111465         3
         4         2         1        39     9      180.000000       -0.244769         4
         4         6         7         8     9        0.000000       -0.100331         1
         4         6         7         8     9      180.000000       15.506969         2
         4         6         7         8     9        0.000000       -0.820159         3
         4         6         7         8     9      180.000000       -0.272481         4
         4         6         7        15     9        0.000000        0.315918         1
         4         6         7        15     9      180.000000       12.697777         2
         4         6         7        15     9        0.000000        0.162193         3
         4         6         7        15     9      180.000000       -0.267056         4
         4         6        10        11     9        0.000000       -0.626102         1
         4         6        10        11     9      180.000000        0.420583         2
         4         6        10        11     9        0.000000        0.117655         3
         4         6        10        11     9      180.000000        0.282102         4
         5         4         6         7     9        0.000000        0.062558         1
         5         4         6         7     9      180.000000       13.292155         2
         5         4         6         7     9        0.000000       -0.393592         3
         5         4         6         7     9      180.000000        0.005615         4
         5         4         6        10     9        0.000000        0.021115         1
         5         4         6        10     9      180.000000       15.784671         2
         5         4         6        10     9        0.000000        0.151530         3
         5         4         6        10     9      180.000000        0.116271         4
         6         7         8         9     9        0.000000        0.159230         1
         6         7         8         9     9      180.000000       14.409069         2
         6         7         8         9     9        0.000000       -0.289798         3
         6         7         8         9     9      180.000000        0.118148         4
         6         7        15        12     9        0.000000        0.427065         1
         6         7        15        12     9      180.000000       -0.610916         2
         6         7        15        12     9        0.000000        0.559114         3
         6         7        15        12     9      180.000000        0.185474         4
         6         7        15        16     9        0.000000       -0.052809         1
         6         7        15        16     9      180.000000       -0.220736         2
         6         7        15        16     9        0.000000       -0.112740         3
         6         7        15        16     9      180.000000        0.122097         4
         6         7        15        19     9        0.000000       -1.310346         1
         6         7        15        19     9      180.000000        1.070889         2
         6         7        15        19     9        0.000000        0.463291         3
         6         7        15        19     9      180.000000       -0.236438         4
         6        10        11        12     9        0.000000        6.128432         1
         6        10        11        12     9      180.000000       -2.977328         2
         6        10        11        12     9        0.000000       -0.376489         3
         6        10        11        12     9      180.000000        0.700818         4
         6        10        11        29     9        0.000000       -0.684066         1
         6        10        11        29     9      180.000000        0.588104         2
         6        10        11        29     9        0.000000        0.467529         3
         6        10        11        29     9      180.000000        0.043655         4
         6        10        11        33     9        0.000000       -0.684066         1
         6        10        11        33     9      180.000000        0.588104         2
         6        10        11        33     9        0.000000        0.467529         3
         6        10        11        33     9      180.000000        0.043655         4
         7         6        10        11     9        0.000000        1.834762         1
         7         6        10        11     9      180.000000       -0.442977         2
         7         6        10        11     9        0.000000       -0.112107         3
         7         6        10        11     9      180.000000        0.667601         4
         7         8         1        39     9        0.000000        0.044565         1
         7         8         1        39     9      180.000000       17.625855         2
         7         8         1        39     9        0.000000       -0.126443         3
         7         8         1        39     9      180.000000       -0.434396         4
         7        15        12        11     9        0.000000        1.467616         1
         7        15        12        11     9      180.000000       -1.143866         2
         7        15        12        11     9        0.000000        0.385835         3
         7        15        12        11     9      180.000000        0.210658         4
         7        15        12        13     9        0.000000        0.061206         1
         7        15        12        13     9      180.000000        0.044433         2
         7        15        12        13     9        0.000000        0.539308         3
         7        15        12        13     9      180.000000        0.001433         4
         7        15        12        14     9        0.000000        0.061206         1
         7        15        12        14     9      180.000000        0.044433         2
         7        15        12        14     9        0.000000        0.539308         3
         7        15        12        14     9      180.000000        0.001433         4
         7        15        16        17     9        0.000000        0.162271         1
         7        15        16        17     9      180.000000        1.998537         2
         7        15        16        17     9        0.000000        0.291022         3
         7        15        16        17     9      180.000000        0.682042         4
         7        15        16        28     9        0.000000       -1.185975         1
         7        15        16        28     9      180.000000        1.899449         2
         7        15        16        28     9        0.000000       -0.392519         3
         7        15        16        28     9      180.000000        0.531986         4
         7        15        19        18     9        0.000000        1.778443         1
         7        15        19        18     9      180.000000        0.140916         2
         7        15        19        18     9        0.000000        0.437593         3
         7        15        19        18     9      180.000000        0.181306         4
         7        15        19        20     9        0.000000        1.218950         1
         7        15        19        20     9      180.000000       -0.258604         2
         7        15        19        20     9        0.000000        0.307031         3
         7        15        19        20     9      180.000000        0.135062         4
         8         1        39        37     9        0.000000       -0.237622         1
         8         1        39        37     9      180.000000        2.582419         2
         8         1        39        37     9        0.000000       -0.178989         3
         8         1        39        37     9      180.000000        0.269037         4
         8         1        39        40     9        0.000000        0.004197         1
         8         1        39        40     9      180.000000        2.162354         2
         8         1        39        40     9        0.000000        0.023022         3
         8         1        39        40     9      180.000000        0.182488         4
         8         7         6        10     9        0.000000        0.132225         1
         8         7         6        10     9      180.000000       17.020557         2
         8         7         6        10     9        0.000000        0.499463         3
         8         7         6        10     9      180.000000       -0.461128         4
         8         7        15        12     9        0.000000       -0.588728         1
         8         7        15        12     9      180.000000        0.624205         2
         8         7        15        12     9        0.000000       -0.293791         3
         8         7        15        12     9      180.000000        0.245546         4
         8         7        15        16     9        0.000000       -0.740873         1
         8         7        15        16     9      180.000000       -0.295274         2
         8         7        15        16     9        0.000000       -0.296920         3
         8         7        15        16     9      180.000000        0.207109         4
         8         7        15        19     9        0.000000       -0.326295         1
         8         7        15        19     9      180.000000        1.897526         2
         8         7        15        19     9        0.000000       -0.153847         3
         8         7        15        19     9      180.000000        0.028213         4
         9         8         1        39     9        0.000000       -0.187264         1
         9         8         1        39     9      180.000000       13.499094         2
         9         8         1        39     9        0.000000       -0.238639         3
         9         8         1        39     9      180.000000        0.246218         4
         9         8         7        15     9        0.000000       -0.103656         1
         9         8         7        15     9      180.000000       13.160299         2
         9         8         7        15     9        0.000000       -0.272831         3
         9         8         7        15     9      180.000000        0.123572         4
        10         6         7        15     9        0.000000        0.645783         1
        10         6         7        15     9      180.000000       13.573304         2
        10         6         7        15     9        0.000000        0.999806         3
        10         6         7        15     9      180.000000       -0.660953         4
        10        11        12        13     9        0.000000        0.010187         1
        10        11        12        13     9      180.000000        0.032223         2
        10        11        12        13     9        0.000000        0.118020         3
        10        11        12        13     9      180.000000        0.005280         4
        10        11        12        14     9        0.000000        0.010187         1
        10        11        12        14     9      180.000000        0.032223         2
        10        11        12        14     9        0.000000        0.118020         3
        10        11        12        14     9      180.000000        0.005280         4
        10        11        12        15     9        0.000000        6.285123         1
        10        11        12        15     9      180.000000       -3.182930         2
        10        11        12        15     9        0.000000       -0.796623         3
        10        11        12        15     9      180.000000        0.274103         4
        10        11        29        30     9        0.000000        0.022756         1
        10        11        29        30     9      180.000000       -0.106326         2
        10        11        29        30     9        0.000000        0.371208         3
        10        11        29        30     9      180.000000        0.017378         4
        10        11        29        31     9        0.000000        0.022756         1
        10        11        29        31     9      180.000000       -0.106326         2
        10        11        29        31     9        0.000000        0.371208         3
        10        11        29        31     9      180.000000        0.017378         4
        10        11        29        32     9        0.000000        0.022756         1
        10        11        29        32     9      180.000000       -0.106326         2
        10        11        29        32     9        0.000000        0.371208         3
        10        11        29        32     9      180.000000        0.017378         4
        10        11        33        34     9        0.000000        0.022756         1
        10        11        33        34     9      180.000000       -0.106326         2
        10        11        33        34     9        0.000000        0.371208         3
        10        11        33        34     9      180.000000        0.017378         4
        10        11        33        35     9        0.000000        0.022756         1
        10        11        33        35     9      180.000000       -0.106326         2
        10        11        33        35     9        0.000000        0.371208         3
        10        11        33        35     9      180.000000        0.017378         4
        10        11        33        36     9        0.000000        0.022756         1
        10        11        33        36     9      180.000000       -0.106326         2
        10        11        33        36     9        0.000000        0.371208         3
        10        11        33        36     9      180.000000        0.017378         4
        11        12        15        16     9        0.000000       -0.096940         1
        11        12        15        16     9      180.000000        0.081867         2
        11        12        15        16     9        0.000000        0.013247         3
        11        12        15        16     9      180.000000        0.064525         4
        11        12        15        19     9        0.000000       -1.345004         1
        11        12        15        19     9      180.000000       -0.669167         2
        11        12        15        19     9        0.000000        0.371828         3
        11        12        15        19     9      180.000000        0.288969         4
        12        11        29        30     9        0.000000       -0.089920         1
        12        11        29        30     9      180.000000        0.000423         2
        12        11        29        30     9        0.000000        0.433042         3
        12        11        29        30     9      180.000000        0.019250         4
        12        11        29        31     9        0.000000       -0.089920         1
        12        11        29        31     9      180.000000        0.000423         2
        12        11        29        31     9        0.000000        0.433042         3
        12        11        29        31     9      180.000000        0.019250         4
        12        11        29        32     9        0.000000       -0.089920         1
        12        11        29        32     9      180.000000        0.000423         2
        12        11        29        32     9        0.000000        0.433042         3
        12        11        29        32     9      180.000000        0.019250         4
        12        11        33        34     9        0.000000       -0.089920         1
        12        11        33        34     9      180.000000        0.000423         2
        12        11        33        34     9        0.000000        0.433042         3
        12        11        33        34     9      180.000000        0.019250         4
        12        11        33        35     9        0.000000       -0.089920         1
        12        11        33        35     9      180.000000        0.000423         2
        12        11        33        35     9        0.000000        0.433042         3
        12        11        33        35     9      180.000000        0.019250         4
        12        11        33        36     9        0.000000       -0.089920         1
        12        11        33        36     9      180.000000        0.000423         2
        12        11        33        36     9        0.000000        0.433042         3
        12        11        33        36     9      180.000000        0.019250         4
        12        15        16        17     9        0.000000       -0.146796         1
        12        15        16        17     9      180.000000        3.061671         2
        12        15        16        17     9        0.000000        0.139471         3
        12        15        16        17     9      180.000000        0.385359         4
        12        15        16        28     9        0.000000        1.085452         1
        12        15        16        28     9      180.000000        2.723876         2
        12        15        16        28     9        0.000000       -0.578900         3
        12        15        16        28     9      180.000000        0.521393         4
        12        15        19        18     9        0.000000       -0.555046         1
        12        15        19        18     9      180.000000        0.710248         2
        12        15        19        18     9        0.000000        0.347930         3
        12        15        19        18     9      180.000000        0.157311         4
        12        15        19        20     9        0.000000        0.143433         1
        12        15        19        20     9      180.000000       -0.214951         2
        12        15        19        20     9        0.000000        0.227710         3
        12        15        19        20     9      180.000000       -0.056374         4
        13        12        11        29     9        0.000000       -0.021980         1
        13        12        11        29     9      180.000000       -0.009422         2
        13        12        11        29     9        0.000000        0.356718         3
        13        12        11        29     9      180.000000       -0.000954         4
        13        12        11        33     9        0.000000       -0.021980         1
        13        12        11        33     9      180.000000       -0.009422         2
        13        12        11        33     9        0.000000        0.356718         3
        13        12        11        33     9      180.000000       -0.000954         4
        13        12        15        16     9        0.000000       -0.114319         1
        13        12        15        16     9      180.000000        0.006782         2
        13        12        15        16     9        0.000000        0.251647         3
        13        12        15        16     9      180.000000        0.014644         4
        13        12        15        19     9        0.000000        0.045485         1
        13        12        15        19     9      180.000000        0.021735         2
        13        12        15        19     9        0.000000        0.438000         3
        13        12        15        19     9      180.000000       -0.089785         4
        14        12        11        29     9        0.000000       -0.021980         1
        14        12        11        29     9      180.000000       -0.009422         2
        14        12        11        29     9        0.000000        0.356718         3
        14        12        11        29     9      180.000000       -0.000954         4
        14        12        11        33     9        0.000000       -0.021980         1
        14        12        11        33     9      180.000000       -0.009422         2
        14        12        11        33     9        0.000000        0.356718         3
        14        12        11        33     9      180.000000       -0.000954         4
        14        12        15        16     9        0.000000       -0.114319         1
        14        12        15        16     9      180.000000        0.006782         2
        14        12        15        16     9        0.000000        0.251647         3
        14        12        15        16     9      180.000000        0.014644         4
        14        12        15        19     9        0.000000        0.045485         1
        14        12        15        19     9      180.000000        0.021735         2
        14        12        15        19     9        0.000000        0.438000         3
        14        12        15        19     9      180.000000       -0.089785         4
        15        12        11        29     9        0.000000       -0.497181         1
        15        12        11        29     9      180.000000        0.617256         2
        15        12        11        29     9        0.000000        0.249259         3
        15        12        11        29     9      180.000000       -0.010939         4
        15        12        11        33     9        0.000000       -0.497181         1
        15        12        11        33     9      180.000000        0.617256         2
        15        12        11        33     9        0.000000        0.249259         3
        15        12        11        33     9      180.000000       -0.010939         4
        15        16        17        18     9        0.000000       -2.575858         1
        15        16        17        18     9      180.000000       12.641742         2
        15        16        17        18     9        0.000000       -1.698461         3
        15        16        17        18     9      180.000000       -0.515100         4
        15        16        17        21     9        0.000000       -1.156121         1
        15        16        17        21     9      180.000000        6.499782         2
        15        16        17        21     9        0.000000        0.170719         3
        15        16        17        21     9      180.000000       -0.166502         4
        15        19        18        17     9        0.000000       -1.499564         1
        15        19        18        17     9      180.000000       26.130438         2
        15        19        18        17     9        0.000000       -2.134517         3
        15        19        18        17     9      180.000000       -2.999059         4
        15        19        18        25     9        0.000000        1.683604         1
        15        19        18        25     9      180.000000       19.858285         2
        15        19        18        25     9        0.000000        0.713476         3
        15        19        18        25     9      180.000000       -2.032843         4
        16        15        19        18     9        0.000000       -3.160306         1
        16        15        19        18     9      180.000000        3.609150         2
        16        15        19        18     9        0.000000       -0.133197         3
        16        15        19        18     9      180.000000       -0.625194         4
        16        15        19        20     9        0.000000       -0.898188         1
        16        15        19        20     9      180.000000       -0.830693         2
        16        15        19        20     9        0.000000        0.163243         3
        16        15        19        20     9      180.000000        0.140230         4
        16        17        18        19     9        0.000000       -2.490328         1
        16        17        18        19     9      180.000000       13.834040         2
        16        17        18        19     9        0.000000       -2.378247         3
        16        17        18        19     9      180.000000       -1.280421         4
        16        17        18        25     9        0.000000        1.935113         1
        16        17        18        25     9      180.000000       11.081020         2
        16        17        18        25     9        0.000000       -0.210528         3
        16        17        18        25     9      180.000000       -0.637296         4
        16        17        21        22     9        0.000000       -0.046462         1
        16        17        21        22     9      180.000000       -0.089247         2
        16        17        21        22     9        0.000000       -0.283225         3
        16        17        21        22     9      180.000000        0.030104         4
        16        17        21        23     9        0.000000       -0.046462         1
        16        17        21        23     9      180.000000       -0.089247         2
        16        17        21        23     9        0.000000       -0.283225         3
        16        17        21        23     9      180.000000        0.030104         4
        16        17        21        24     9        0.000000       -0.046462         1
        16        17        21        24     9      180.000000       -0.089247         2
        16        17        21        24     9        0.000000       -0.283225         3
        16        17        21        24     9      180.000000        0.030104         4
        17        16        15        19     9        0.000000        0.473013         1
        17        16        15        19     9      180.000000        7.767258         2
        17        16        15        19     9        0.000000       -0.335260         3
        17        16        15        19     9      180.000000       -0.030377         4
        17        18        19        20     9        0.000000        0.456219         1
        17        18        19        20     9      180.000000       11.615587         2
        17        18        19        20     9        0.000000        0.224486         3
        17        18        19        20     9      180.000000       -0.965494         4
        17        18        25        26     9        0.000000       -0.170244         1
        17        18        25        26     9      180.000000        6.404528         2
        17        18        25        26     9        0.000000        0.524424         3
        17        18        25        26     9      180.000000       -0.541232         4
        17        18        25        27     9        0.000000       -0.170243         1
        17        18        25        27     9      180.000000        6.404526         2
        17        18        25        27     9        0.000000        0.524424         3
        17        18        25        27     9      180.000000       -0.541232         4
        18        17        16        28     9        0.000000        1.168480         1
        18        17        16        28     9      180.000000       20.631698         2
        18        17        16        28     9        0.000000       -0.713106         3
        18        17        16        28     9      180.000000       -0.822735         4
        18        17        21        22     9        0.000000        0.029063         1
        18        17        21        22     9      180.000000        0.021416         2
        18        17        21        22     9        0.000000        0.188894         3
        18        17        21        22     9      180.000000       -0.011671         4
        18        17        21        23     9        0.000000        0.029063         1
        18        17        21        23     9      180.000000        0.021416         2
        18        17        21        23     9        0.000000        0.188894         3
        18        17        21        23     9      180.000000       -0.011671         4
        18        17        21        24     9        0.000000        0.029063         1
        18        17        21        24     9      180.000000        0.021416         2
        18        17        21        24     9        0.000000        0.188894         3
        18        17        21        24     9      180.000000       -0.011671         4
        19        15        16        28     9        0.000000        7.955830         1
        19        15        16        28     9      180.000000        7.010628         2
        19        15        16        28     9        0.000000       -0.152606         3
        19        15        16        28     9      180.000000        0.339952         4
        19        18        17        21     9        0.000000       -3.776014         1
        19        18        17        21     9      180.000000        5.458345         2
        19        18        17        21     9        0.000000       -0.154527         3
        19        18        17        21     9      180.000000        0.081931         4
        19        18        25        26     9        0.000000       -1.696699         1
        19        18        25        26     9      180.000000        6.696567         2
        19        18        25        26     9        0.000000        0.180424         3
        19        18        25        26     9      180.000000       -0.442659         4
        19        18        25        27     9        0.000000       -1.696699         1
        19        18        25        27     9      180.000000        6.696569         2
        19        18        25        27     9        0.000000        0.180424         3
        19        18        25        27     9      180.000000       -0.442659         4
        20        19        18        25     9        0.000000        0.829726         1
        20        19        18        25     9      180.000000        7.727450         2
        20        19        18        25     9        0.000000        0.246606         3
        20        19        18        25     9      180.000000       -0.383134         4
        21        17        16        28     9        0.000000       -0.327769         1
        21        17        16        28     9      180.000000        9.752935         2
        21        17        16        28     9        0.000000       -0.183563         3
        21        17        16        28     9      180.000000        0.446364         4
        21        17        18        25     9        0.000000        1.331771         1
        21        17        18        25     9      180.000000        6.631611         2
        21        17        18        25     9        0.000000        0.055652         3
        21        17        18        25     9      180.000000       -0.063283         4
        29        11        33        34     9        0.000000       -0.082666         1
        29        11        33        34     9      180.000000        0.011907         2
        29        11        33        34     9        0.000000        0.531652         3
        29        11        33        34     9      180.000000        0.044562         4
        29        11        33        35     9        0.000000       -0.082666         1
        29        11        33        35     9      180.000000        0.011907         2
        29        11        33        35     9        0.000000        0.531652         3
        29        11        33        35     9      180.000000        0.044562         4
        29        11        33        36     9        0.000000       -0.082666         1
        29        11        33        36     9      180.000000        0.011907         2
        29        11        33        36     9        0.000000        0.531652         3
        29        11        33        36     9      180.000000        0.044562         4
        30        29        11        33     9        0.000000       -0.082666         1
        30        29        11        33     9      180.000000        0.011907         2
        30        29        11        33     9        0.000000        0.531652         3
        30        29        11        33     9      180.000000        0.044562         4
        31        29        11        33     9        0.000000       -0.082666         1
        31        29        11        33     9      180.000000        0.011907         2
        31        29        11        33     9        0.000000        0.531652         3
        31        29        11        33     9      180.000000        0.044562         4
        32        29        11        33     9        0.000000       -0.082666         1
        32        29        11        33     9      180.000000        0.011907         2
        32        29        11        33     9        0.000000        0.531652         3
        32        29        11        33     9      180.000000        0.044562         4
        37        45        43        41     9        0.000000        0.386858         1
        37        45        43        41     9      180.000000       14.886839         2
        37        45        43        41     9        0.000000       -0.800472         3
        37        45        43        41     9      180.000000       -0.758436         4
        37        45        43        44     9        0.000000        0.114875         1
        37        45        43        44     9      180.000000       11.070714         2
        37        45        43        44     9        0.000000       -0.361756         3
        37        45        43        44     9      180.000000       -0.153340         4
        37        45        46        47     9        0.000000        0.271503         1
        37        45        46        47     9      180.000000        6.475821         2
        37        45        46        47     9        0.000000        0.262700         3
        37        45        46        47     9      180.000000       -0.211917         4
        38        37        39        40     9        0.000000       -0.747544         1
        38        37        39        40     9      180.000000        8.825523         2
        38        37        39        40     9        0.000000        0.494033         3
        38        37        39        40     9      180.000000        0.140554         4
        38        37        45        43     9        0.000000        0.481316         1
        38        37        45        43     9      180.000000        3.586742         2
        38        37        45        43     9        0.000000        0.096923         3
        38        37        45        43     9      180.000000        0.379233         4
        38        37        45        46     9        0.000000       -1.931631         1
        38        37        45        46     9      180.000000        6.718933         2
        38        37        45        46     9        0.000000        0.299719         3
        38        37        45        46     9      180.000000        0.267441         4
        39        37        45        43     9        0.000000        0.604585         1
        39        37        45        43     9      180.000000        2.153701         2
        39        37        45        43     9        0.000000        0.191387         3
        39        37        45        43     9      180.000000       -0.216961         4
        39        37        45        46     9        0.000000        1.079802         1
        39        37        45        46     9      180.000000        4.588049         2
        39        37        45        46     9        0.000000        0.224244         3
        39        37        45        46     9      180.000000       -0.287946         4
        40        39        37        45     9        0.000000        1.063410         1
        40        39        37        45     9      180.000000        7.056672         2
        40        39        37        45     9        0.000000        0.093055         3
        40        39        37        45     9      180.000000        0.205625         4
        41        43        45        46     9        0.000000       -0.145426         1
        41        43        45        46     9      180.000000       35.421160         2
        41        43        45        46     9        0.000000       -7.550310         3
        41        43        45        46     9      180.000000       -0.191087         4
        41        47        46        45     9        0.000000        0.021457         1
        41        47        46        45     9      180.000000       26.641937         2
        41        47        46        45     9        0.000000       -5.955724         3
        41        47        46        45     9      180.000000       -0.244856         4
        41        47        48        49     9        0.000000        0.014842         1
        41        47        48        49     9      180.000000       -0.043451         2
        41        47        48        49     9        0.000000       -0.157478         3
        41        47        48        49     9      180.000000        0.007256         4
        41        47        48        50     9        0.000000        0.014842         1
        41        47        48        50     9      180.000000       -0.043451         2
        41        47        48        50     9        0.000000       -0.157478         3
        41        47        48        50     9      180.000000        0.007256         4
        41        47        48        51     9        0.000000        0.014842         1
        41        47        48        51     9      180.000000       -0.043451         2
        41        47        48        51     9        0.000000       -0.157478         3
        41        47        48        51     9      180.000000        0.007256         4
        42        41        43        44     9        0.000000       -0.344072         1
        42        41        43        44     9      180.000000        7.421112         2
        42        41        43        44     9        0.000000       -0.378483         3
        42        41        43        44     9      180.000000        0.259195         4
        42        41        43        45     9        0.000000        0.273402         1
        42        41        43        45     9      180.000000       11.007897         2
        42        41        43        45     9        0.000000       -0.490153         3
        42        41        43        45     9      180.000000       -0.185671         4
        42        41        47        46     9        0.000000        0.375007         1
        42        41        47        46     9      180.000000       17.146278         2
        42        41        47        46     9        0.000000       -0.570273         3
        42        41        47        46     9      180.000000       -0.424436         4
        42        41        47        48     9        0.000000       -0.166627         1
        42        41        47        48     9      180.000000       11.078687         2
        42        41        47        48     9        0.000000       -0.132832         3
        42        41        47        48     9      180.000000        0.073314         4
        43        41        47        46     9        0.000000       -0.002638         1
        43        41        47        46     9      180.000000       36.784239         2
        43        41        47        46     9        0.000000       -7.173153         3
        43        41        47        46     9      180.000000       -0.423177         4
        43        41        47        48     9        0.000000        0.753224         1
        43        41        47        48     9      180.000000       18.453997         2
        43        41        47        48     9        0.000000        0.262297         3
        43        41        47        48     9      180.000000       -1.228833         4
        43        45        46        47     9        0.000000        0.072819         1
        43        45        46        47     9      180.000000       23.145142         2
        43        45        46        47     9        0.000000       -6.820874         3
        43        45        46        47     9      180.000000       -0.018404         4
        44        43        41        47     9        0.000000        0.428856         1
        44        43        41        47     9      180.000000       12.137341         2
        44        43        41        47     9        0.000000       -0.339830         3
        44        43        41        47     9      180.000000       -0.298503         4
        44        43        45        46     9        0.000000        0.162748         1
        44        43        45        46     9      180.000000       16.970475         2
        44        43        45        46     9        0.000000       -1.351681         3
        44        43        45        46     9      180.000000       -0.119839         4
        45        43        41        47     9        0.000000       -0.098271         1
        45        43        41        47     9      180.000000       24.193843         2
        45        43        41        47     9        0.000000       -7.447867         3
        45        43        41        47     9      180.000000       -0.010450         4
        45        46        47        48     9        0.000000        0.708755         1
        45        46        47        48     9      180.000000       13.601663         2
        45        46        47        48     9        0.000000        0.693628         3
        45        46        47        48     9      180.000000       -0.618795         4
        46        47        48        49     9        0.000000       -0.038643         1
        46        47        48        49     9      180.000000        0.050902         2
        46        47        48        49     9        0.000000        0.503559         3
        46        47        48        49     9      180.000000        0.014383         4
        46        47        48        50     9        0.000000       -0.038643         1
        46        47        48        50     9      180.000000        0.050902         2
        46        47        48        50     9        0.000000        0.503559         3
        46        47        48        50     9      180.000000        0.014383         4
        46        47        48        51     9        0.000000       -0.038643         1
        46        47        48        51     9      180.000000        0.050902         2
        46        47        48        51     9        0.000000        0.503559         3
        46        47        48        51     9      180.000000        0.014383         4

[ dihedrals ] ; impropers
;       ai        aj        ak        al funct           phase               k        pn
        16        15        17        28     4      180.000000       27.098121         2
        16        17        28        15     4      180.000000       27.098121         2
        16        28        15        17     4      180.000000       27.098121         2
        18        17        19        25     4      180.000000       10.189567         2
        18        19        25        17     4      180.000000       10.189567         2
        18        25        17        19     4      180.000000       10.189567         2
        37        38        39        45     4      180.000000       27.893333         2
        37        39        45        38     4      180.000000       27.893333         2
        37        45        38        39     4      180.000000       27.893333         2

[ pairs ]
;       ai        aj funct
         1         5     1
         1         6     1
         1        15     1
         1        38     1
         1        45     1
         2         7     1
         2         9     1
         2        10     1
         2        37     1
         2        40     1
         3         5     1
         3         6     1
         3         8     1
         3        39     1
         4         8     1
         4        11     1
         4        15     1
         4        39     1
         5         7     1
         5        10     1
         6         9     1
         6        12     1
         6        16     1
         6        19     1
         6        29     1
         6        33     1
         7        11     1
         7        13     1
         7        14     1
         7        17     1
         7        18     1
         7        20     1
         7        28     1
         7        39     1
         8        10     1
         8        12     1
         8        16     1
         8        19     1
         8        37     1
         8        40     1
         9        15     1
         9        39     1
        10        13     1
        10        14     1
        10        15     1
        10        30     1
        10        31     1
        10        32     1
        10        34     1
        10        35     1
        10        36     1
        11        16     1
        11        19     1
        12        17     1
        12        18     1
        12        20     1
        12        28     1
        12        30     1
        12        31     1
        12        32     1
        12        34     1
        12        35     1
        12        36     1
        13        16     1
        13        19     1
        13        29     1
        13        33     1
        14        16     1
        14        19     1
        14        29     1
        14        33     1
        15        21     1
        15        25     1
        15        29     1
        15        33     1
        16        20     1
        16        22     1
        16        23     1
        16        24     1
        16        25     1
        17        20     1
        17        26     1
        17        27     1
        18        22     1
        18        23     1
        18        24     1
        18        28     1
        19        21     1
        19        26     1
        19        27     1
        19        28     1
        20        25     1
        21        25     1
        21        28     1
        29        34     1
        29        35     1
        29        36     1
        30        33     1
        31        33     1
        32        33     1
        37        41     1
        37        44     1
        37        47     1
        38        40     1
        38        43     1
        38        46     1
        39        43     1
        39        46     1
        40        45     1
        41        49     1
        41        50     1
        41        51     1
        42        44     1
        42        45     1
        42        46     1
        42        48     1
        43        48     1
        44        46     1
        44        47     1
        45        48     1
        46        49     1
        46        50     1
        46        51     1
