; ITP file created by ByteFF-joint-25, 2025-07-14 11:32:39.780192

[ atomtypes ]
;name           bonded.type        at.num        mass        charge   ptype           sigma         epsilon
 c0bf                                   6      0.0000       0.00000       A     3.39777e-01     4.51036e-01    ;  uncertainty sigma = 0.000005, epsilon = 0.000506
 c1bf                                   6      0.0000       0.00000       A     3.31525e-01     4.13125e-01    ;  uncertainty sigma = 0.000008, epsilon = 0.000714
 c2bf                                   6      0.0000       0.00000       A     3.31524e-01     4.13156e-01    ;  uncertainty sigma = 0.000003, epsilon = 0.000636
 c3bf                                   6      0.0000       0.00000       A     3.31527e-01     4.13080e-01    ;  uncertainty sigma = 0.000007, epsilon = 0.000533
 c4bf                                   6      0.0000       0.00000       A     3.39781e-01     4.50873e-01    ;  uncertainty sigma = 0.000004, epsilon = 0.000517
 c5bf                                   6      0.0000       0.00000       A     3.31519e-01     4.13498e-01    ;  uncertainty sigma = 0.000014, epsilon = 0.000763
 c6bf                                   6      0.0000       0.00000       A     3.31530e-01     4.13167e-01    ;  uncertainty sigma = 0.000021, epsilon = 0.000971
 c7bf                                   6      0.0000       0.00000       A     3.31525e-01     4.13293e-01    ;  uncertainty sigma = 0.000023, epsilon = 0.000917
 c8bf                                   6      0.0000       0.00000       A     3.31538e-01     4.12642e-01    ;  uncertainty sigma = 0.000013, epsilon = 0.000485
 o9bf                                   8      0.0000       0.00000       A     3.04808e-01     6.12545e-01    ;  uncertainty sigma = 0.000014, epsilon = 0.001010
 n10bf                                  7      0.0000       0.00000       A     3.26980e-01     4.90470e-01    ;  uncertainty sigma = 0.000018, epsilon = 0.001778
 c11bf                                  6      0.0000       0.00000       A     3.39771e-01     4.50729e-01    ;  uncertainty sigma = 0.000005, epsilon = 0.001182
 c12bf                                  6      0.0000       0.00000       A     3.39760e-01     4.50641e-01    ;  uncertainty sigma = 0.000012, epsilon = 0.000996
 c13bf                                  6      0.0000       0.00000       A     3.39777e-01     4.50574e-01    ;  uncertainty sigma = 0.000006, epsilon = 0.000765
 o14bf                                  8      0.0000       0.00000       A     3.15610e-01     3.03550e-01    ;  uncertainty sigma = 0.000013, epsilon = 0.000372
 c15bf                                  6      0.0000       0.00000       A     3.31510e-01     4.13497e-01    ;  uncertainty sigma = 0.000006, epsilon = 0.000531
 c16bf                                  6      0.0000       0.00000       A     3.31512e-01     4.12858e-01    ;  uncertainty sigma = 0.000003, epsilon = 0.000943
 c17bf                                  6      0.0000       0.00000       A     3.31514e-01     4.13352e-01    ;  uncertainty sigma = 0.000002, epsilon = 0.000751
 c18bf                                  6      0.0000       0.00000       A     3.31519e-01     4.13471e-01    ;  uncertainty sigma = 0.000003, epsilon = 0.000549
 c19bf                                  6      0.0000       0.00000       A     3.31520e-01     4.13142e-01    ;  uncertainty sigma = 0.000007, epsilon = 0.000527
 c20bf                                  6      0.0000       0.00000       A     3.31501e-01     4.13203e-01    ;  uncertainty sigma = 0.000011, epsilon = 0.000652
 s21bf                                 16      0.0000       0.00000       A     3.53219e-01     1.18209e+00    ;  uncertainty sigma = 0.000038, epsilon = 0.002778
 c22bf                                  6      0.0000       0.00000       A     3.31566e-01     4.14053e-01    ;  uncertainty sigma = 0.000030, epsilon = 0.000866
 n23bf                                  7      0.0000       0.00000       A     3.38483e-01     3.93202e-01    ;  uncertainty sigma = 0.000034, epsilon = 0.001240
 c24bf                                  6      0.0000       0.00000       A     3.31536e-01     4.13283e-01    ;  uncertainty sigma = 0.000009, epsilon = 0.001019
 c25bf                                  6      0.0000       0.00000       A     3.31530e-01     4.13339e-01    ;  uncertainty sigma = 0.000013, epsilon = 0.000814
 n26bf                                  7      0.0000       0.00000       A     3.38478e-01     3.93740e-01    ;  uncertainty sigma = 0.000043, epsilon = 0.001174
 c27bf                                  6      0.0000       0.00000       A     3.31540e-01     4.12743e-01    ;  uncertainty sigma = 0.000023, epsilon = 0.001490
 n28bf                                  7      0.0000       0.00000       A     3.36875e-01     4.69390e-01    ;  uncertainty sigma = 0.000045, epsilon = 0.002027
 h29bf                                  1      0.0000       0.00000       A     2.60030e-01     8.67016e-02    ;  uncertainty sigma = 0.000007, epsilon = 0.000472
 h30bf                                  1      0.0000       0.00000       A     2.60030e-01     8.67016e-02    ;  uncertainty sigma = 0.000007, epsilon = 0.000472
 h31bf                                  1      0.0000       0.00000       A     2.60030e-01     8.67016e-02    ;  uncertainty sigma = 0.000007, epsilon = 0.000472
 h32bf                                  1      0.0000       0.00000       A     2.62559e-01     6.71110e-02    ;  uncertainty sigma = 0.000013, epsilon = 0.000423
 h33bf                                  1      0.0000       0.00000       A     2.60029e-01     8.67217e-02    ;  uncertainty sigma = 0.000007, epsilon = 0.000441
 h34bf                                  1      0.0000       0.00000       A     2.60029e-01     8.67217e-02    ;  uncertainty sigma = 0.000007, epsilon = 0.000441
 h35bf                                  1      0.0000       0.00000       A     2.60029e-01     8.67217e-02    ;  uncertainty sigma = 0.000007, epsilon = 0.000441
 h36bf                                  1      0.0000       0.00000       A     2.62586e-01     6.76144e-02    ;  uncertainty sigma = 0.000011, epsilon = 0.001010
 h37bf                                  1      0.0000       0.00000       A     1.10655e-01     4.12404e-02    ;  uncertainty sigma = 0.000082, epsilon = 0.001053
 h38bf                                  1      0.0000       0.00000       A     2.42218e-01     8.67016e-02    ;  uncertainty sigma = 0.000029, epsilon = 0.000880
 h39bf                                  1      0.0000       0.00000       A     2.42218e-01     8.67016e-02    ;  uncertainty sigma = 0.000029, epsilon = 0.000880
 h40bf                                  1      0.0000       0.00000       A     2.60032e-01     8.63088e-02    ;  uncertainty sigma = 0.000010, epsilon = 0.000916
 h41bf                                  1      0.0000       0.00000       A     2.60032e-01     8.63088e-02    ;  uncertainty sigma = 0.000010, epsilon = 0.000916
 h42bf                                  1      0.0000       0.00000       A     2.42194e-01     8.70304e-02    ;  uncertainty sigma = 0.000033, epsilon = 0.000523
 h43bf                                  1      0.0000       0.00000       A     2.42194e-01     8.70304e-02    ;  uncertainty sigma = 0.000033, epsilon = 0.000523
 h44bf                                  1      0.0000       0.00000       A     2.62569e-01     6.72236e-02    ;  uncertainty sigma = 0.000010, epsilon = 0.000556
 h45bf                                  1      0.0000       0.00000       A     2.62564e-01     6.71211e-02    ;  uncertainty sigma = 0.000006, epsilon = 0.000469
 h46bf                                  1      0.0000       0.00000       A     2.62569e-01     6.69467e-02    ;  uncertainty sigma = 0.000009, epsilon = 0.000511
 h47bf                                  1      0.0000       0.00000       A     2.62566e-01     6.70900e-02    ;  uncertainty sigma = 0.000007, epsilon = 0.000507
 h48bf                                  1      0.0000       0.00000       A     2.62582e-01     6.69389e-02    ;  uncertainty sigma = 0.000017, epsilon = 0.000809
 h49bf                                  1      0.0000       0.00000       A     1.10715e-01     4.07950e-02    ;  uncertainty sigma = 0.000035, epsilon = 0.001109
 h50bf                                  1      0.0000       0.00000       A     1.10715e-01     4.07950e-02    ;  uncertainty sigma = 0.000035, epsilon = 0.001109

[ moleculetype ]
;name             nrexcl
 MOL                   3

[ atoms ]
;       nr            type      resi   res      atom      cgnr      charge          mass ; qtot
         1            c0bf         1   UNL        c0         1    -0.05362       12.0110 ; qtot   -0.054
         2            c1bf         1   UNL        c1         2    -0.01570       12.0110 ; qtot   -0.069
         3            c2bf         1   UNL        c2         3    -0.15382       12.0110 ; qtot   -0.223
         4            c3bf         1   UNL        c3         4    -0.01847       12.0110 ; qtot   -0.242
         5            c4bf         1   UNL        c4         5    -0.05067       12.0110 ; qtot   -0.292
         6            c5bf         1   UNL        c5         6    -0.16877       12.0110 ; qtot   -0.461
         7            c6bf         1   UNL        c6         7    -0.05700       12.0110 ; qtot   -0.518
         8            c7bf         1   UNL        c7         8    -0.15924       12.0110 ; qtot   -0.677
         9            c8bf         1   UNL        c8         9     0.67718       12.0110 ; qtot   -0.000
        10            o9bf         1   UNL        o9        10    -0.59919       15.9990 ; qtot   -0.599
        11           n10bf         1   UNL       n10        11    -0.57942       14.0070 ; qtot   -1.179
        12           c11bf         1   UNL       c11        12     0.10627       12.0110 ; qtot   -1.072
        13           c12bf         1   UNL       c12        13    -0.12003       12.0110 ; qtot   -1.192
        14           c13bf         1   UNL       c13        14     0.14020       12.0110 ; qtot   -1.052
        15           o14bf         1   UNL       o14        15    -0.33536       15.9990 ; qtot   -1.388
        16           c15bf         1   UNL       c15        16     0.12904       12.0110 ; qtot   -1.259
        17           c16bf         1   UNL       c16        17    -0.14058       12.0110 ; qtot   -1.399
        18           c17bf         1   UNL       c17        18    -0.17135       12.0110 ; qtot   -1.571
        19           c18bf         1   UNL       c18        19    -0.10159       12.0110 ; qtot   -1.672
        20           c19bf         1   UNL       c19        20    -0.11071       12.0110 ; qtot   -1.783
        21           c20bf         1   UNL       c20        21     0.03006       12.0110 ; qtot   -1.753
        22           s21bf         1   UNL       s21        22    -0.25974       32.0670 ; qtot   -2.013
        23           c22bf         1   UNL       c22        23     0.57823       12.0110 ; qtot   -1.434
        24           n23bf         1   UNL       n23        24    -0.76870       14.0070 ; qtot   -2.203
        25           c24bf         1   UNL       c24        25    -0.38318       12.0110 ; qtot   -2.586
        26           c25bf         1   UNL       c25        26     0.55555       12.0110 ; qtot   -2.031
        27           n26bf         1   UNL       n26        27    -0.77789       14.0070 ; qtot   -2.809
        28           c27bf         1   UNL       c27        28     0.89450       12.0110 ; qtot   -1.914
        29           n28bf         1   UNL       n28        29    -0.93026       14.0070 ; qtot   -2.844
        30           h29bf         1   UNL       h29        30     0.05043        1.0080 ; qtot   -2.794
        31           h30bf         1   UNL       h30        31     0.05043        1.0080 ; qtot   -2.743
        32           h31bf         1   UNL       h31        32     0.05043        1.0080 ; qtot   -2.693
        33           h32bf         1   UNL       h32        33     0.13288        1.0080 ; qtot   -2.560
        34           h33bf         1   UNL       h33        34     0.04818        1.0080 ; qtot   -2.512
        35           h34bf         1   UNL       h34        35     0.04818        1.0080 ; qtot   -2.464
        36           h35bf         1   UNL       h35        36     0.04818        1.0080 ; qtot   -2.416
        37           h36bf         1   UNL       h36        37     0.15308        1.0080 ; qtot   -2.262
        38           h37bf         1   UNL       h37        38     0.31998        1.0080 ; qtot   -1.942
        39           h38bf         1   UNL       h38        39     0.05922        1.0080 ; qtot   -1.883
        40           h39bf         1   UNL       h39        40     0.05922        1.0080 ; qtot   -1.824
        41           h40bf         1   UNL       h40        41     0.06106        1.0080 ; qtot   -1.763
        42           h41bf         1   UNL       h41        42     0.06106        1.0080 ; qtot   -1.702
        43           h42bf         1   UNL       h42        43     0.04556        1.0080 ; qtot   -1.656
        44           h43bf         1   UNL       h43        44     0.04556        1.0080 ; qtot   -1.611
        45           h44bf         1   UNL       h44        45     0.15477        1.0080 ; qtot   -1.456
        46           h45bf         1   UNL       h45        46     0.14586        1.0080 ; qtot   -1.310
        47           h46bf         1   UNL       h46        47     0.13877        1.0080 ; qtot   -1.171
        48           h47bf         1   UNL       h47        48     0.14712        1.0080 ; qtot   -1.024
        49           h48bf         1   UNL       h48        49     0.16728        1.0080 ; qtot   -0.857
        50           h49bf         1   UNL       h49        50     0.42848        1.0080 ; qtot   -0.429
        51           h50bf         1   UNL       h50        51     0.42853        1.0080 ; qtot   -0.000

[ bonds ]
;       ai        aj funct               r               k
         1         2     1        0.151319   234501.606152    ;  uncertainty r = 0.000039, k = 4.763861
         1        30     1        0.109434   309432.413721    ;  uncertainty r = 0.000007, k = 1.462297
         1        31     1        0.109434   309432.413721    ;  uncertainty r = 0.000007, k = 1.462297
         1        32     1        0.109434   309432.413721    ;  uncertainty r = 0.000007, k = 1.462297
         2         3     1        0.139953   350886.420312    ;  uncertainty r = 0.000046, k = 2.256546
         2         8     1        0.140859   333663.938379    ;  uncertainty r = 0.000105, k = 10.508889
         3         4     1        0.139953   351815.766797    ;  uncertainty r = 0.000065, k = 3.258926
         3        33     1        0.108841   333904.446875    ;  uncertainty r = 0.000022, k = 1.910570
         4         5     1        0.151213   233018.742822    ;  uncertainty r = 0.000030, k = 2.477917
         4         6     1        0.140882   327170.924023    ;  uncertainty r = 0.000085, k = 6.538514
         5        34     1        0.109452   309284.681543    ;  uncertainty r = 0.000013, k = 1.664212
         5        35     1        0.109452   309284.681543    ;  uncertainty r = 0.000013, k = 1.664212
         5        36     1        0.109452   309284.681543    ;  uncertainty r = 0.000013, k = 1.664212
         6         7     1        0.139704   340097.553418    ;  uncertainty r = 0.000105, k = 3.696915
         6        26     1        0.148090   270930.905566    ;  uncertainty r = 0.000133, k = 7.233679
         7         8     1        0.139722   346890.577734    ;  uncertainty r = 0.000117, k = 4.085501
         7        37     1        0.108647   332145.297559    ;  uncertainty r = 0.000028, k = 2.025083
         8         9     1        0.150123   250943.188818    ;  uncertainty r = 0.000060, k = 14.156720
         9        10     1        0.123703   768632.414941    ;  uncertainty r = 0.000039, k = 7.991202
         9        11     1        0.137446   289691.691895    ;  uncertainty r = 0.000109, k = 13.924972
        11        12     1        0.145406   253920.841309    ;  uncertainty r = 0.000072, k = 7.954304
        11        38     1        0.101448   418088.600488    ;  uncertainty r = 0.000039, k = 2.115524
        12        13     1        0.153505   210755.925000    ;  uncertainty r = 0.000103, k = 2.524486
        12        39     1        0.109423   304996.464600    ;  uncertainty r = 0.000012, k = 2.150194
        12        40     1        0.109423   304996.464600    ;  uncertainty r = 0.000012, k = 2.150194
        13        14     1        0.152287   209677.518408    ;  uncertainty r = 0.000054, k = 3.515672
        13        41     1        0.109660   309211.696484    ;  uncertainty r = 0.000022, k = 1.956385
        13        42     1        0.109660   309211.696484    ;  uncertainty r = 0.000022, k = 1.956385
        14        15     1        0.142459   233428.843262    ;  uncertainty r = 0.000034, k = 7.404914
        14        43     1        0.109753   308102.466602    ;  uncertainty r = 0.000030, k = 1.505908
        14        44     1        0.109753   308102.466602    ;  uncertainty r = 0.000030, k = 1.505908
        15        16     1        0.136625   321160.765332    ;  uncertainty r = 0.000068, k = 2.341957
        16        17     1        0.139590   359240.400439    ;  uncertainty r = 0.000037, k = 3.035732
        16        18     1        0.139819   361337.150342    ;  uncertainty r = 0.000022, k = 3.171802
        17        21     1        0.139730   357887.418848    ;  uncertainty r = 0.000069, k = 5.087050
        17        45     1        0.108844   336357.720361    ;  uncertainty r = 0.000045, k = 2.910339
        18        19     1        0.139413   371409.190576    ;  uncertainty r = 0.000039, k = 2.146404
        18        46     1        0.108807   337366.614941    ;  uncertainty r = 0.000026, k = 0.710181
        19        20     1        0.139432   369421.816113    ;  uncertainty r = 0.000037, k = 1.696523
        19        47     1        0.108756   333078.500146    ;  uncertainty r = 0.000015, k = 1.309208
        20        21     1        0.139891   356461.528809    ;  uncertainty r = 0.000050, k = 3.945823
        20        48     1        0.108763   333695.093652    ;  uncertainty r = 0.000016, k = 1.863330
        21        22     1        0.179108   201370.564868    ;  uncertainty r = 0.000130, k = 7.860687
        22        23     1        0.178702   213726.886768    ;  uncertainty r = 0.000179, k = 8.189733
        23        24     1        0.134700   424222.588623    ;  uncertainty r = 0.000178, k = 10.461897
        23        25     1        0.141187   392935.696924    ;  uncertainty r = 0.000022, k = 5.347533
        24        28     1        0.137598   549443.932129    ;  uncertainty r = 0.000198, k = 11.031727
        25        26     1        0.141229   407214.260889    ;  uncertainty r = 0.000182, k = 14.429933
        25        49     1        0.108873   346288.770215    ;  uncertainty r = 0.000075, k = 3.087722
        26        27     1        0.135307   438215.826465    ;  uncertainty r = 0.000116, k = 9.039783
        27        28     1        0.137411   538791.995215    ;  uncertainty r = 0.000161, k = 14.470755
        28        29     1        0.141740   597998.863965    ;  uncertainty r = 0.000229, k = 16.107510
        29        50     1        0.102337   440328.154004    ;  uncertainty r = 0.000034, k = 2.569277
        29        51     1        0.102337   440328.154004    ;  uncertainty r = 0.000034, k = 2.569277

[ angles ]
;       ai        aj        ak funct           theta             cth
         1         2         3     1      120.083435      426.568364    ;  uncertainty theta = 0.002932, k = 0.102634
         1         2         8     1      119.429321      418.786728    ;  uncertainty theta = 0.003983, k = 0.060283
         2         1        30     1      109.922989      398.236665    ;  uncertainty theta = 0.000943, k = 0.033247
         2         1        31     1      109.922989      398.236665    ;  uncertainty theta = 0.000943, k = 0.033247
         2         1        32     1      109.922989      398.236665    ;  uncertainty theta = 0.000943, k = 0.033247
         2         3         4     1      125.297134      513.249772    ;  uncertainty theta = 0.002892, k = 0.237668
         2         3        33     1      117.714882      270.893730    ;  uncertainty theta = 0.003071, k = 0.062142
         2         8         7     1      123.913330      456.178993    ;  uncertainty theta = 0.003292, k = 0.085311
         2         8         9     1      118.850990      358.560966    ;  uncertainty theta = 0.003230, k = 0.182594
         3         2         8     1      120.777237      471.449450    ;  uncertainty theta = 0.003662, k = 0.143450
         3         4         5     1      119.996231      423.436014    ;  uncertainty theta = 0.003971, k = 0.196747
         3         4         6     1      120.753174      474.686598    ;  uncertainty theta = 0.004340, k = 0.094989
         4         3        33     1      117.784286      271.435053    ;  uncertainty theta = 0.002711, k = 0.093506
         4         5        34     1      109.959473      397.168256    ;  uncertainty theta = 0.000612, k = 0.029890
         4         5        35     1      109.959473      397.168256    ;  uncertainty theta = 0.000612, k = 0.029890
         4         5        36     1      109.959473      397.168256    ;  uncertainty theta = 0.000612, k = 0.029890
         4         6         7     1      123.186401      441.700984    ;  uncertainty theta = 0.004492, k = 0.140461
         4         6        26     1      118.028336      376.992343    ;  uncertainty theta = 0.003074, k = 0.176986
         5         4         6     1      119.128822      420.764066    ;  uncertainty theta = 0.002445, k = 0.071083
         6         7         8     1      124.862206      499.151819    ;  uncertainty theta = 0.005075, k = 0.221245
         6         7        37     1      117.866287      266.681831    ;  uncertainty theta = 0.002976, k = 0.049199
         6        26        25     1      121.633606      380.834306    ;  uncertainty theta = 0.004113, k = 0.195976
         6        26        27     1      118.732887      456.450133    ;  uncertainty theta = 0.005949, k = 0.136083
         7         6        26     1      116.557106      410.226433    ;  uncertainty theta = 0.002888, k = 0.124080
         7         8         9     1      117.330162      389.195219    ;  uncertainty theta = 0.003239, k = 0.114448
         8         7        37     1      118.713234      265.619359    ;  uncertainty theta = 0.004990, k = 0.134618
         8         9        10     1      123.669945      496.521274    ;  uncertainty theta = 0.004116, k = 0.105728
         8         9        11     1      114.850098      442.663733    ;  uncertainty theta = 0.004286, k = 0.159976
         9        11        12     1      116.141113      438.040782    ;  uncertainty theta = 0.003176, k = 0.065390
         9        11        38     1      115.913063      338.943902    ;  uncertainty theta = 0.003941, k = 0.124725
        10         9        11     1      123.597084      799.238104    ;  uncertainty theta = 0.004500, k = 0.093378
        11        12        13     1      110.813438      639.805015    ;  uncertainty theta = 0.000923, k = 0.042313
        11        12        39     1      106.820358      454.977217    ;  uncertainty theta = 0.001504, k = 0.046540
        11        12        40     1      106.820358      454.977217    ;  uncertainty theta = 0.001504, k = 0.046540
        12        11        38     1      111.791443      329.637988    ;  uncertainty theta = 0.003727, k = 0.074188
        12        13        14     1      109.984718      559.315812    ;  uncertainty theta = 0.001919, k = 0.095098
        12        13        41     1      107.496475      399.705399    ;  uncertainty theta = 0.001421, k = 0.041180
        12        13        42     1      107.496475      399.705399    ;  uncertainty theta = 0.001421, k = 0.041180
        13        12        39     1      108.236649      400.130848    ;  uncertainty theta = 0.001209, k = 0.050237
        13        12        40     1      108.236649      400.130848    ;  uncertainty theta = 0.001209, k = 0.050237
        13        14        15     1      109.132118      593.268038    ;  uncertainty theta = 0.002200, k = 0.055006
        13        14        43     1      109.717545      405.834657    ;  uncertainty theta = 0.001996, k = 0.054509
        13        14        44     1      109.717545      405.834657    ;  uncertainty theta = 0.001996, k = 0.054509
        14        13        41     1      107.031738      397.968685    ;  uncertainty theta = 0.002094, k = 0.013031
        14        13        42     1      107.031738      397.968685    ;  uncertainty theta = 0.002094, k = 0.013031
        14        15        16     1      110.067444      506.778509    ;  uncertainty theta = 0.001215, k = 0.046622
        15        14        43     1      106.841774      432.556560    ;  uncertainty theta = 0.001887, k = 0.035897
        15        14        44     1      106.841774      432.556560    ;  uncertainty theta = 0.001887, k = 0.035897
        15        16        17     1      119.358902      417.066739    ;  uncertainty theta = 0.004066, k = 0.059574
        15        16        18     1      120.211807      427.667481    ;  uncertainty theta = 0.004102, k = 0.039297
        16        17        21     1      118.924438      525.162419    ;  uncertainty theta = 0.001021, k = 0.157255
        16        17        45     1      120.095444      270.236564    ;  uncertainty theta = 0.002082, k = 0.042513
        16        18        19     1      118.439621      526.061197    ;  uncertainty theta = 0.001721, k = 0.047596
        16        18        46     1      119.681274      270.879397    ;  uncertainty theta = 0.002048, k = 0.043048
        17        16        18     1      120.903732      369.303950    ;  uncertainty theta = 0.002853, k = 0.096956
        17        21        20     1      120.926491      399.970443    ;  uncertainty theta = 0.003057, k = 0.154546
        17        21        22     1      120.777016      356.098966    ;  uncertainty theta = 0.006217, k = 0.067072
        18        19        20     1      120.916405      497.680978    ;  uncertainty theta = 0.001784, k = 0.057572
        18        19        47     1      119.902023      281.831625    ;  uncertainty theta = 0.000968, k = 0.027058
        19        18        46     1      121.041649      288.243131    ;  uncertainty theta = 0.001946, k = 0.003318
        19        20        21     1      118.112709      524.487792    ;  uncertainty theta = 0.002644, k = 0.047047
        19        20        48     1      120.914078      290.649174    ;  uncertainty theta = 0.001871, k = 0.064132
        20        19        47     1      119.998428      283.950567    ;  uncertainty theta = 0.001460, k = 0.038244
        20        21        22     1      121.489868      360.802422    ;  uncertainty theta = 0.004915, k = 0.042216
        21        17        45     1      121.220238      274.663326    ;  uncertainty theta = 0.002376, k = 0.097322
        21        20        48     1      120.560898      277.903060    ;  uncertainty theta = 0.001956, k = 0.082534
        21        22        23     1       97.416367      599.824116    ;  uncertainty theta = 0.004172, k = 0.097309
        22        23        24     1      118.343712      422.939477    ;  uncertainty theta = 0.010707, k = 0.315634
        22        23        25     1      122.231277      352.704701    ;  uncertainty theta = 0.006225, k = 0.203942
        23        24        28     1      117.553085      400.291955    ;  uncertainty theta = 0.014091, k = 0.232736
        23        25        26     1      117.523415      478.805734    ;  uncertainty theta = 0.009332, k = 0.185559
        23        25        49     1      123.742592      284.152118    ;  uncertainty theta = 0.004505, k = 0.106920
        24        23        25     1      121.830734      600.670097    ;  uncertainty theta = 0.005687, k = 0.262160
        24        28        27     1      128.233551      771.635809    ;  uncertainty theta = 0.007974, k = 0.096640
        24        28        29     1      124.925125      821.351198    ;  uncertainty theta = 0.006695, k = 0.039949
        25        26        27     1      120.954445      605.617082    ;  uncertainty theta = 0.002855, k = 0.214241
        26        25        49     1      122.602188      271.883484    ;  uncertainty theta = 0.001791, k = 0.152019
        26        27        28     1      117.986832      418.917573    ;  uncertainty theta = 0.012285, k = 0.143305
        27        28        29     1      125.135986      821.373032    ;  uncertainty theta = 0.006542, k = 0.058983
        28        29        50     1      119.561668      466.924019    ;  uncertainty theta = 0.002489, k = 0.020698
        28        29        51     1      119.561668      466.924019    ;  uncertainty theta = 0.002489, k = 0.020698
        30         1        31     1      106.699974      316.272886    ;  uncertainty theta = 0.001469, k = 0.029784
        30         1        32     1      106.699974      316.272886    ;  uncertainty theta = 0.001469, k = 0.029784
        31         1        32     1      106.699974      316.272886    ;  uncertainty theta = 0.001469, k = 0.029784
        34         5        35     1      106.694153      317.150533    ;  uncertainty theta = 0.001181, k = 0.025577
        34         5        36     1      106.694153      317.150533    ;  uncertainty theta = 0.001181, k = 0.025577
        35         5        36     1      106.694153      317.150533    ;  uncertainty theta = 0.001181, k = 0.025577
        39        12        40     1      105.729568      318.043693    ;  uncertainty theta = 0.001363, k = 0.027046
        41        13        42     1      105.405617      316.835437    ;  uncertainty theta = 0.002246, k = 0.027528
        43        14        44     1      107.424034      332.384153    ;  uncertainty theta = 0.002462, k = 0.043922
        50        29        51     1      107.563583      266.929525    ;  uncertainty theta = 0.002389, k = 0.038828

[ dihedrals ] ; propers for gromacs 4.5 or higher, use funct 9
;       ai        aj        ak        al funct           phase               k        pn
         1         2         3         4     9        0.000000        0.069863         1    ;  uncertainty k = 0.212280
         1         2         3         4     9      180.000000        9.655662         2    ;  uncertainty k = 0.454675
         1         2         3         4     9        0.000000        1.454590         3    ;  uncertainty k = 0.193076
         1         2         3         4     9      180.000000        1.858204         4    ;  uncertainty k = 0.240681
         1         2         3        33     9        0.000000       -0.270139         1    ;  uncertainty k = 0.463151
         1         2         3        33     9      180.000000        8.731838         2    ;  uncertainty k = 0.254873
         1         2         3        33     9        0.000000        0.437392         3    ;  uncertainty k = 0.195641
         1         2         3        33     9      180.000000        1.095686         4    ;  uncertainty k = 0.166265
         1         2         8         7     9        0.000000        0.194023         1    ;  uncertainty k = 0.342996
         1         2         8         7     9      180.000000        7.567412         2    ;  uncertainty k = 0.477878
         1         2         8         7     9        0.000000        1.166845         3    ;  uncertainty k = 0.220532
         1         2         8         7     9      180.000000        1.755343         4    ;  uncertainty k = 0.239591
         1         2         8         9     9        0.000000       -0.159033         1    ;  uncertainty k = 0.539980
         1         2         8         9     9      180.000000       10.114390         2    ;  uncertainty k = 0.361782
         1         2         8         9     9        0.000000        1.290402         3    ;  uncertainty k = 0.313631
         1         2         8         9     9      180.000000        1.314322         4    ;  uncertainty k = 0.286656
         2         3         4         5     9        0.000000        0.107277         1    ;  uncertainty k = 0.249615
         2         3         4         5     9      180.000000        9.350172         2    ;  uncertainty k = 0.482291
         2         3         4         5     9        0.000000        1.504012         3    ;  uncertainty k = 0.236517
         2         3         4         5     9      180.000000        1.867249         4    ;  uncertainty k = 0.225362
         2         3         4         6     9        0.000000        0.120991         1    ;  uncertainty k = 0.163059
         2         3         4         6     9      180.000000        9.133688         2    ;  uncertainty k = 0.403975
         2         3         4         6     9        0.000000        0.463939         3    ;  uncertainty k = 0.225464
         2         3         4         6     9      180.000000        1.306233         4    ;  uncertainty k = 0.304877
         2         8         7         6     9        0.000000        0.083086         1    ;  uncertainty k = 0.402877
         2         8         7         6     9      180.000000        9.025189         2    ;  uncertainty k = 0.422335
         2         8         7         6     9        0.000000        0.280971         3    ;  uncertainty k = 0.367443
         2         8         7         6     9      180.000000        1.306886         4    ;  uncertainty k = 0.340074
         2         8         7        37     9        0.000000        0.211411         1    ;  uncertainty k = 0.226073
         2         8         7        37     9      180.000000        7.483478         2    ;  uncertainty k = 0.410379
         2         8         7        37     9        0.000000        1.278343         3    ;  uncertainty k = 0.298338
         2         8         7        37     9      180.000000        1.702003         4    ;  uncertainty k = 0.237390
         2         8         9        10     9        0.000000       -1.052432         1    ;  uncertainty k = 0.231617
         2         8         9        10     9      180.000000        4.699883         2    ;  uncertainty k = 0.244714
         2         8         9        10     9        0.000000        0.452944         3    ;  uncertainty k = 0.156370
         2         8         9        10     9      180.000000        0.295000         4    ;  uncertainty k = 0.085970
         2         8         9        11     9        0.000000        0.982813         1    ;  uncertainty k = 0.573381
         2         8         9        11     9      180.000000        2.188135         2    ;  uncertainty k = 0.155324
         2         8         9        11     9        0.000000        0.010633         3    ;  uncertainty k = 0.076416
         2         8         9        11     9      180.000000       -0.103637         4    ;  uncertainty k = 0.019923
         3         2         1        30     9        0.000000       -0.205925         1    ;  uncertainty k = 0.272591
         3         2         1        30     9      180.000000        1.837766         2    ;  uncertainty k = 0.160456
         3         2         1        30     9        0.000000        0.442311         3    ;  uncertainty k = 0.068830
         3         2         1        30     9      180.000000        0.263728         4    ;  uncertainty k = 0.017497
         3         2         1        31     9        0.000000       -0.205925         1    ;  uncertainty k = 0.272591
         3         2         1        31     9      180.000000        1.837766         2    ;  uncertainty k = 0.160456
         3         2         1        31     9        0.000000        0.442311         3    ;  uncertainty k = 0.068830
         3         2         1        31     9      180.000000        0.263728         4    ;  uncertainty k = 0.017497
         3         2         1        32     9        0.000000       -0.205925         1    ;  uncertainty k = 0.272591
         3         2         1        32     9      180.000000        1.837766         2    ;  uncertainty k = 0.160456
         3         2         1        32     9        0.000000        0.442311         3    ;  uncertainty k = 0.068830
         3         2         1        32     9      180.000000        0.263728         4    ;  uncertainty k = 0.017497
         3         2         8         7     9        0.000000       -0.293860         1    ;  uncertainty k = 0.135274
         3         2         8         7     9      180.000000        8.125447         2    ;  uncertainty k = 0.357463
         3         2         8         7     9        0.000000       -0.238807         3    ;  uncertainty k = 0.138854
         3         2         8         7     9      180.000000        1.140141         4    ;  uncertainty k = 0.253598
         3         2         8         9     9        0.000000        0.497611         1    ;  uncertainty k = 0.434581
         3         2         8         9     9      180.000000        7.634844         2    ;  uncertainty k = 0.628569
         3         2         8         9     9        0.000000        1.636562         3    ;  uncertainty k = 0.315051
         3         2         8         9     9      180.000000        1.761964         4    ;  uncertainty k = 0.263642
         3         4         5        34     9        0.000000       -0.167719         1    ;  uncertainty k = 0.181656
         3         4         5        34     9      180.000000        1.776973         2    ;  uncertainty k = 0.164038
         3         4         5        34     9        0.000000        0.426580         3    ;  uncertainty k = 0.080680
         3         4         5        34     9      180.000000        0.263412         4    ;  uncertainty k = 0.013999
         3         4         5        35     9        0.000000       -0.167719         1    ;  uncertainty k = 0.181656
         3         4         5        35     9      180.000000        1.776973         2    ;  uncertainty k = 0.164038
         3         4         5        35     9        0.000000        0.426580         3    ;  uncertainty k = 0.080680
         3         4         5        35     9      180.000000        0.263412         4    ;  uncertainty k = 0.013999
         3         4         5        36     9        0.000000       -0.167719         1    ;  uncertainty k = 0.181656
         3         4         5        36     9      180.000000        1.776973         2    ;  uncertainty k = 0.164038
         3         4         5        36     9        0.000000        0.426580         3    ;  uncertainty k = 0.080680
         3         4         5        36     9      180.000000        0.263412         4    ;  uncertainty k = 0.013999
         3         4         6         7     9        0.000000       -0.076245         1    ;  uncertainty k = 0.399614
         3         4         6         7     9      180.000000        7.804227         2    ;  uncertainty k = 0.494137
         3         4         6         7     9        0.000000        0.066312         3    ;  uncertainty k = 0.247155
         3         4         6         7     9      180.000000        1.198985         4    ;  uncertainty k = 0.263589
         3         4         6        26     9        0.000000        0.262343         1    ;  uncertainty k = 0.328082
         3         4         6        26     9      180.000000        7.730923         2    ;  uncertainty k = 0.499418
         3         4         6        26     9        0.000000        1.492493         3    ;  uncertainty k = 0.421187
         3         4         6        26     9      180.000000        1.753740         4    ;  uncertainty k = 0.222285
         4         3         2         8     9        0.000000       -0.052289         1    ;  uncertainty k = 0.242458
         4         3         2         8     9      180.000000        9.058403         2    ;  uncertainty k = 0.462788
         4         3         2         8     9        0.000000        0.352678         3    ;  uncertainty k = 0.272782
         4         3         2         8     9      180.000000        1.301842         4    ;  uncertainty k = 0.307233
         4         6         7         8     9        0.000000        0.069104         1    ;  uncertainty k = 0.294508
         4         6         7         8     9      180.000000        9.027602         2    ;  uncertainty k = 0.516925
         4         6         7         8     9        0.000000        0.262753         3    ;  uncertainty k = 0.150137
         4         6         7         8     9      180.000000        1.215305         4    ;  uncertainty k = 0.287788
         4         6         7        37     9        0.000000        0.146092         1    ;  uncertainty k = 0.191686
         4         6         7        37     9      180.000000        7.352949         2    ;  uncertainty k = 0.378003
         4         6         7        37     9        0.000000        1.303065         3    ;  uncertainty k = 0.212890
         4         6         7        37     9      180.000000        1.632868         4    ;  uncertainty k = 0.164618
         4         6        26        25     9        0.000000        0.445026         1    ;  uncertainty k = 0.569262
         4         6        26        25     9      180.000000        4.976851         2    ;  uncertainty k = 0.236506
         4         6        26        25     9        0.000000       -0.003697         3    ;  uncertainty k = 0.157487
         4         6        26        25     9      180.000000        0.233478         4    ;  uncertainty k = 0.196137
         4         6        26        27     9        0.000000        0.849905         1    ;  uncertainty k = 0.858556
         4         6        26        27     9      180.000000        5.465174         2    ;  uncertainty k = 0.274248
         4         6        26        27     9        0.000000        0.951074         3    ;  uncertainty k = 0.300114
         4         6        26        27     9      180.000000        0.207829         4    ;  uncertainty k = 0.059231
         5         4         3        33     9        0.000000       -0.286976         1    ;  uncertainty k = 0.403137
         5         4         3        33     9      180.000000        8.721451         2    ;  uncertainty k = 0.323594
         5         4         3        33     9        0.000000        0.417567         3    ;  uncertainty k = 0.150481
         5         4         3        33     9      180.000000        1.068618         4    ;  uncertainty k = 0.186229
         5         4         6         7     9        0.000000        0.164623         1    ;  uncertainty k = 0.306764
         5         4         6         7     9      180.000000        7.368151         2    ;  uncertainty k = 0.647968
         5         4         6         7     9        0.000000        1.147781         3    ;  uncertainty k = 0.239171
         5         4         6         7     9      180.000000        1.748949         4    ;  uncertainty k = 0.286245
         5         4         6        26     9        0.000000       -0.080455         1    ;  uncertainty k = 0.439447
         5         4         6        26     9      180.000000        9.094068         2    ;  uncertainty k = 0.262425
         5         4         6        26     9        0.000000        0.955494         3    ;  uncertainty k = 0.212458
         5         4         6        26     9      180.000000        1.367454         4    ;  uncertainty k = 0.164062
         6         4         3        33     9        0.000000        0.049792         1    ;  uncertainty k = 0.327310
         6         4         3        33     9      180.000000        7.619664         2    ;  uncertainty k = 0.208801
         6         4         3        33     9        0.000000        1.533596         3    ;  uncertainty k = 0.171230
         6         4         3        33     9      180.000000        1.687883         4    ;  uncertainty k = 0.169017
         6         4         5        34     9        0.000000        0.187271         1    ;  uncertainty k = 0.130961
         6         4         5        34     9      180.000000        2.104010         2    ;  uncertainty k = 0.296373
         6         4         5        34     9        0.000000        0.406291         3    ;  uncertainty k = 0.078214
         6         4         5        34     9      180.000000        0.330437         4    ;  uncertainty k = 0.062977
         6         4         5        35     9        0.000000        0.187271         1    ;  uncertainty k = 0.130961
         6         4         5        35     9      180.000000        2.104010         2    ;  uncertainty k = 0.296373
         6         4         5        35     9        0.000000        0.406291         3    ;  uncertainty k = 0.078214
         6         4         5        35     9      180.000000        0.330437         4    ;  uncertainty k = 0.062977
         6         4         5        36     9        0.000000        0.187271         1    ;  uncertainty k = 0.130961
         6         4         5        36     9      180.000000        2.104010         2    ;  uncertainty k = 0.296373
         6         4         5        36     9        0.000000        0.406291         3    ;  uncertainty k = 0.078214
         6         4         5        36     9      180.000000        0.330437         4    ;  uncertainty k = 0.062977
         6         7         8         9     9        0.000000        0.436230         1    ;  uncertainty k = 0.406160
         6         7         8         9     9      180.000000        9.045898         2    ;  uncertainty k = 0.634747
         6         7         8         9     9        0.000000        1.605545         3    ;  uncertainty k = 0.255817
         6         7         8         9     9      180.000000        1.903675         4    ;  uncertainty k = 0.302618
         6        26        25        23     9        0.000000       -0.322280         1    ;  uncertainty k = 0.478582
         6        26        25        23     9      180.000000        7.363956         2    ;  uncertainty k = 0.519793
         6        26        25        23     9        0.000000        0.450565         3    ;  uncertainty k = 0.280740
         6        26        25        23     9      180.000000        1.272196         4    ;  uncertainty k = 0.255892
         6        26        25        49     9        0.000000       -0.173727         1    ;  uncertainty k = 0.998986
         6        26        25        49     9      180.000000        6.511478         2    ;  uncertainty k = 0.257892
         6        26        25        49     9        0.000000        0.704054         3    ;  uncertainty k = 0.308207
         6        26        25        49     9      180.000000        1.015865         4    ;  uncertainty k = 0.218201
         6        26        27        28     9        0.000000        0.251545         1    ;  uncertainty k = 1.107447
         6        26        27        28     9      180.000000       14.974396         2    ;  uncertainty k = 0.598158
         6        26        27        28     9        0.000000        1.754871         3    ;  uncertainty k = 0.720376
         6        26        27        28     9      180.000000        1.263508         4    ;  uncertainty k = 0.361108
         7         6        26        25     9        0.000000       -0.370253         1    ;  uncertainty k = 0.338433
         7         6        26        25     9      180.000000        4.684726         2    ;  uncertainty k = 0.366485
         7         6        26        25     9        0.000000        0.688282         3    ;  uncertainty k = 0.139657
         7         6        26        25     9      180.000000        0.109192         4    ;  uncertainty k = 0.091183
         7         6        26        27     9        0.000000        1.843424         1    ;  uncertainty k = 0.658384
         7         6        26        27     9      180.000000        5.609798         2    ;  uncertainty k = 0.239574
         7         6        26        27     9        0.000000        0.517971         3    ;  uncertainty k = 0.212405
         7         6        26        27     9      180.000000        0.184456         4    ;  uncertainty k = 0.054569
         7         8         9        10     9        0.000000        0.353812         1    ;  uncertainty k = 0.490478
         7         8         9        10     9      180.000000        4.378267         2    ;  uncertainty k = 0.288747
         7         8         9        10     9        0.000000        0.473604         3    ;  uncertainty k = 0.176364
         7         8         9        10     9      180.000000        0.202566         4    ;  uncertainty k = 0.090163
         7         8         9        11     9        0.000000       -0.535098         1    ;  uncertainty k = 0.699770
         7         8         9        11     9      180.000000        2.613874         2    ;  uncertainty k = 0.254484
         7         8         9        11     9        0.000000        0.297264         3    ;  uncertainty k = 0.126986
         7         8         9        11     9      180.000000       -0.115447         4    ;  uncertainty k = 0.103912
         8         2         1        30     9        0.000000        0.386703         1    ;  uncertainty k = 0.220848
         8         2         1        30     9      180.000000        2.106355         2    ;  uncertainty k = 0.214834
         8         2         1        30     9        0.000000        0.232895         3    ;  uncertainty k = 0.123793
         8         2         1        30     9      180.000000        0.310411         4    ;  uncertainty k = 0.098104
         8         2         1        31     9        0.000000        0.386703         1    ;  uncertainty k = 0.220848
         8         2         1        31     9      180.000000        2.106355         2    ;  uncertainty k = 0.214834
         8         2         1        31     9        0.000000        0.232895         3    ;  uncertainty k = 0.123793
         8         2         1        31     9      180.000000        0.310411         4    ;  uncertainty k = 0.098104
         8         2         1        32     9        0.000000        0.386703         1    ;  uncertainty k = 0.220848
         8         2         1        32     9      180.000000        2.106355         2    ;  uncertainty k = 0.214834
         8         2         1        32     9        0.000000        0.232895         3    ;  uncertainty k = 0.123793
         8         2         1        32     9      180.000000        0.310411         4    ;  uncertainty k = 0.098104
         8         2         3        33     9        0.000000       -0.021991         1    ;  uncertainty k = 0.438521
         8         2         3        33     9      180.000000        7.621873         2    ;  uncertainty k = 0.302746
         8         2         3        33     9        0.000000        1.443735         3    ;  uncertainty k = 0.167877
         8         2         3        33     9      180.000000        1.658515         4    ;  uncertainty k = 0.166421
         8         7         6        26     9        0.000000        0.128788         1    ;  uncertainty k = 0.367096
         8         7         6        26     9      180.000000        8.556216         2    ;  uncertainty k = 0.592834
         8         7         6        26     9        0.000000        1.275801         3    ;  uncertainty k = 0.214699
         8         7         6        26     9      180.000000        1.839651         4    ;  uncertainty k = 0.210702
         8         9        11        12     9        0.000000        5.532882         1    ;  uncertainty k = 1.433317
         8         9        11        12     9      180.000000       11.787473         2    ;  uncertainty k = 0.183546
         8         9        11        12     9        0.000000        1.953938         3    ;  uncertainty k = 0.517909
         8         9        11        12     9      180.000000       -1.130887         4    ;  uncertainty k = 0.306249
         8         9        11        38     9        0.000000        0.483373         1    ;  uncertainty k = 0.903348
         8         9        11        38     9      180.000000        6.918769         2    ;  uncertainty k = 0.587773
         8         9        11        38     9        0.000000        2.448221         3    ;  uncertainty k = 0.229344
         8         9        11        38     9      180.000000        0.115098         4    ;  uncertainty k = 0.258321
         9         8         7        37     9        0.000000       -0.135871         1    ;  uncertainty k = 0.590358
         9         8         7        37     9      180.000000        8.857634         2    ;  uncertainty k = 0.679599
         9         8         7        37     9        0.000000        1.159803         3    ;  uncertainty k = 0.110876
         9         8         7        37     9      180.000000        1.268814         4    ;  uncertainty k = 0.381258
         9        11        12        13     9        0.000000       -0.818158         1    ;  uncertainty k = 0.242909
         9        11        12        13     9      180.000000       -0.134768         2    ;  uncertainty k = 0.299683
         9        11        12        13     9        0.000000        0.232091         3    ;  uncertainty k = 0.085204
         9        11        12        13     9      180.000000        0.384027         4    ;  uncertainty k = 0.032134
         9        11        12        39     9        0.000000        0.811153         1    ;  uncertainty k = 0.266012
         9        11        12        39     9      180.000000       -0.476228         2    ;  uncertainty k = 0.206373
         9        11        12        39     9        0.000000        0.320134         3    ;  uncertainty k = 0.059594
         9        11        12        39     9      180.000000        0.311335         4    ;  uncertainty k = 0.067394
         9        11        12        40     9        0.000000        0.811153         1    ;  uncertainty k = 0.266012
         9        11        12        40     9      180.000000       -0.476228         2    ;  uncertainty k = 0.206373
         9        11        12        40     9        0.000000        0.320134         3    ;  uncertainty k = 0.059594
         9        11        12        40     9      180.000000        0.311335         4    ;  uncertainty k = 0.067394
        10         9        11        12     9        0.000000        3.258391         1    ;  uncertainty k = 0.696844
        10         9        11        12     9      180.000000       12.691026         2    ;  uncertainty k = 0.244658
        10         9        11        12     9        0.000000        0.192244         3    ;  uncertainty k = 0.381905
        10         9        11        12     9      180.000000        0.188213         4    ;  uncertainty k = 0.237353
        10         9        11        38     9        0.000000        3.007601         1    ;  uncertainty k = 0.748446
        10         9        11        38     9      180.000000       15.309045         2    ;  uncertainty k = 0.155397
        10         9        11        38     9        0.000000        1.649633         3    ;  uncertainty k = 0.297804
        10         9        11        38     9      180.000000       -0.328610         4    ;  uncertainty k = 0.195268
        11        12        13        14     9        0.000000       -5.172278         1    ;  uncertainty k = 0.635605
        11        12        13        14     9      180.000000       -1.226405         2    ;  uncertainty k = 0.334944
        11        12        13        14     9        0.000000        1.702888         3    ;  uncertainty k = 0.208983
        11        12        13        14     9      180.000000       -0.403754         4    ;  uncertainty k = 0.177745
        11        12        13        41     9        0.000000       -0.662444         1    ;  uncertainty k = 0.369148
        11        12        13        41     9      180.000000       -2.019446         2    ;  uncertainty k = 0.364547
        11        12        13        41     9        0.000000        1.401001         3    ;  uncertainty k = 0.157599
        11        12        13        41     9      180.000000       -0.103858         4    ;  uncertainty k = 0.087755
        11        12        13        42     9        0.000000       -0.662444         1    ;  uncertainty k = 0.369148
        11        12        13        42     9      180.000000       -2.019446         2    ;  uncertainty k = 0.364547
        11        12        13        42     9        0.000000        1.401001         3    ;  uncertainty k = 0.157599
        11        12        13        42     9      180.000000       -0.103858         4    ;  uncertainty k = 0.087755
        12        13        14        15     9        0.000000       -3.606255         1    ;  uncertainty k = 0.757293
        12        13        14        15     9      180.000000       -2.376779         2    ;  uncertainty k = 0.430542
        12        13        14        15     9        0.000000        2.201685         3    ;  uncertainty k = 0.210493
        12        13        14        15     9      180.000000       -0.529184         4    ;  uncertainty k = 0.207408
        12        13        14        43     9        0.000000       -2.103372         1    ;  uncertainty k = 0.386341
        12        13        14        43     9      180.000000        0.098300         2    ;  uncertainty k = 0.299926
        12        13        14        43     9        0.000000        0.923279         3    ;  uncertainty k = 0.093051
        12        13        14        43     9      180.000000       -0.402748         4    ;  uncertainty k = 0.123714
        12        13        14        44     9        0.000000       -2.103372         1    ;  uncertainty k = 0.386341
        12        13        14        44     9      180.000000        0.098300         2    ;  uncertainty k = 0.299926
        12        13        14        44     9        0.000000        0.923279         3    ;  uncertainty k = 0.093051
        12        13        14        44     9      180.000000       -0.402748         4    ;  uncertainty k = 0.123714
        13        12        11        38     9        0.000000        1.111241         1    ;  uncertainty k = 0.569035
        13        12        11        38     9      180.000000       -1.905661         2    ;  uncertainty k = 0.132300
        13        12        11        38     9        0.000000        0.451546         3    ;  uncertainty k = 0.060507
        13        12        11        38     9      180.000000        0.011245         4    ;  uncertainty k = 0.028743
        13        14        15        16     9        0.000000       -1.233004         1    ;  uncertainty k = 0.492822
        13        14        15        16     9      180.000000       -0.182621         2    ;  uncertainty k = 0.174716
        13        14        15        16     9        0.000000        0.778254         3    ;  uncertainty k = 0.120581
        13        14        15        16     9      180.000000        0.508027         4    ;  uncertainty k = 0.076946
        14        13        12        39     9        0.000000       -1.513273         1    ;  uncertainty k = 0.438255
        14        13        12        39     9      180.000000       -0.301847         2    ;  uncertainty k = 0.241805
        14        13        12        39     9        0.000000        0.738582         3    ;  uncertainty k = 0.126758
        14        13        12        39     9      180.000000       -0.396536         4    ;  uncertainty k = 0.093831
        14        13        12        40     9        0.000000       -1.513273         1    ;  uncertainty k = 0.438255
        14        13        12        40     9      180.000000       -0.301847         2    ;  uncertainty k = 0.241805
        14        13        12        40     9        0.000000        0.738582         3    ;  uncertainty k = 0.126758
        14        13        12        40     9      180.000000       -0.396536         4    ;  uncertainty k = 0.093831
        14        15        16        17     9        0.000000       -0.170843         1    ;  uncertainty k = 0.947840
        14        15        16        17     9      180.000000        7.090303         2    ;  uncertainty k = 0.214787
        14        15        16        17     9        0.000000        0.587684         3    ;  uncertainty k = 0.078271
        14        15        16        17     9      180.000000        0.197815         4    ;  uncertainty k = 0.080018
        14        15        16        18     9        0.000000        1.061400         1    ;  uncertainty k = 0.609192
        14        15        16        18     9      180.000000        7.165577         2    ;  uncertainty k = 0.086750
        14        15        16        18     9        0.000000        0.706681         3    ;  uncertainty k = 0.095246
        14        15        16        18     9      180.000000        0.181934         4    ;  uncertainty k = 0.036575
        15        14        13        41     9        0.000000        0.202616         1    ;  uncertainty k = 0.388274
        15        14        13        41     9      180.000000       -2.154561         2    ;  uncertainty k = 0.318077
        15        14        13        41     9        0.000000        1.393179         3    ;  uncertainty k = 0.096490
        15        14        13        41     9      180.000000        0.036671         4    ;  uncertainty k = 0.074734
        15        14        13        42     9        0.000000        0.202616         1    ;  uncertainty k = 0.388274
        15        14        13        42     9      180.000000       -2.154561         2    ;  uncertainty k = 0.318077
        15        14        13        42     9        0.000000        1.393179         3    ;  uncertainty k = 0.096490
        15        14        13        42     9      180.000000        0.036671         4    ;  uncertainty k = 0.074734
        15        16        17        21     9        0.000000       -0.105221         1    ;  uncertainty k = 0.237605
        15        16        17        21     9      180.000000       11.291862         2    ;  uncertainty k = 0.387719
        15        16        17        21     9        0.000000        1.057020         3    ;  uncertainty k = 0.343994
        15        16        17        21     9      180.000000        1.489011         4    ;  uncertainty k = 0.124518
        15        16        17        45     9        0.000000       -0.208226         1    ;  uncertainty k = 0.273143
        15        16        17        45     9      180.000000        8.505156         2    ;  uncertainty k = 0.222398
        15        16        17        45     9        0.000000        0.688767         3    ;  uncertainty k = 0.072447
        15        16        17        45     9      180.000000        1.094931         4    ;  uncertainty k = 0.146626
        15        16        18        19     9        0.000000        0.004343         1    ;  uncertainty k = 0.304138
        15        16        18        19     9      180.000000       10.718207         2    ;  uncertainty k = 0.488720
        15        16        18        19     9        0.000000        1.155608         3    ;  uncertainty k = 0.202768
        15        16        18        19     9      180.000000        1.627819         4    ;  uncertainty k = 0.119420
        15        16        18        46     9        0.000000       -0.208696         1    ;  uncertainty k = 0.275436
        15        16        18        46     9      180.000000        8.351502         2    ;  uncertainty k = 0.239326
        15        16        18        46     9        0.000000        0.667604         3    ;  uncertainty k = 0.132081
        15        16        18        46     9      180.000000        1.036021         4    ;  uncertainty k = 0.192411
        16        15        14        43     9        0.000000        0.681750         1    ;  uncertainty k = 0.361083
        16        15        14        43     9      180.000000       -1.144120         2    ;  uncertainty k = 0.063256
        16        15        14        43     9        0.000000        0.555143         3    ;  uncertainty k = 0.044726
        16        15        14        43     9      180.000000        0.269933         4    ;  uncertainty k = 0.076593
        16        15        14        44     9        0.000000        0.681750         1    ;  uncertainty k = 0.361083
        16        15        14        44     9      180.000000       -1.144120         2    ;  uncertainty k = 0.063256
        16        15        14        44     9        0.000000        0.555143         3    ;  uncertainty k = 0.044726
        16        15        14        44     9      180.000000        0.269933         4    ;  uncertainty k = 0.076593
        16        17        21        20     9        0.000000       -0.249292         1    ;  uncertainty k = 0.276089
        16        17        21        20     9      180.000000       10.846675         2    ;  uncertainty k = 0.531695
        16        17        21        20     9        0.000000       -0.135509         3    ;  uncertainty k = 0.458636
        16        17        21        20     9      180.000000        1.012210         4    ;  uncertainty k = 0.349406
        16        17        21        22     9        0.000000       -0.180940         1    ;  uncertainty k = 0.312039
        16        17        21        22     9      180.000000        7.846644         2    ;  uncertainty k = 0.685345
        16        17        21        22     9        0.000000        1.230130         3    ;  uncertainty k = 0.308106
        16        17        21        22     9      180.000000        1.645800         4    ;  uncertainty k = 0.139410
        16        18        19        20     9        0.000000       -0.189054         1    ;  uncertainty k = 0.185938
        16        18        19        20     9      180.000000       14.296446         2    ;  uncertainty k = 0.230038
        16        18        19        20     9        0.000000       -0.895857         3    ;  uncertainty k = 0.403009
        16        18        19        20     9      180.000000        0.763233         4    ;  uncertainty k = 0.178198
        16        18        19        47     9        0.000000        0.006137         1    ;  uncertainty k = 0.170351
        16        18        19        47     9      180.000000        7.759318         2    ;  uncertainty k = 0.357537
        16        18        19        47     9        0.000000        1.354014         3    ;  uncertainty k = 0.242762
        16        18        19        47     9      180.000000        1.734051         4    ;  uncertainty k = 0.087799
        17        16        18        19     9        0.000000       -0.059338         1    ;  uncertainty k = 0.123480
        17        16        18        19     9      180.000000        9.313735         2    ;  uncertainty k = 0.482509
        17        16        18        19     9        0.000000        0.006901         3    ;  uncertainty k = 0.360505
        17        16        18        19     9      180.000000        1.149873         4    ;  uncertainty k = 0.372705
        17        16        18        46     9        0.000000        0.243458         1    ;  uncertainty k = 0.301228
        17        16        18        46     9      180.000000        6.049472         2    ;  uncertainty k = 0.661855
        17        16        18        46     9        0.000000        1.422868         3    ;  uncertainty k = 0.292614
        17        16        18        46     9      180.000000        1.575432         4    ;  uncertainty k = 0.160894
        17        21        20        19     9        0.000000       -0.250958         1    ;  uncertainty k = 0.222384
        17        21        20        19     9      180.000000       11.373540         2    ;  uncertainty k = 0.493824
        17        21        20        19     9        0.000000       -0.494942         3    ;  uncertainty k = 0.474139
        17        21        20        19     9      180.000000        0.840792         4    ;  uncertainty k = 0.421190
        17        21        20        48     9        0.000000        0.150215         1    ;  uncertainty k = 0.355090
        17        21        20        48     9      180.000000        6.678951         2    ;  uncertainty k = 0.842110
        17        21        20        48     9        0.000000        1.422731         3    ;  uncertainty k = 0.396410
        17        21        20        48     9      180.000000        1.582297         4    ;  uncertainty k = 0.239697
        17        21        22        23     9        0.000000        2.302348         1    ;  uncertainty k = 0.765604
        17        21        22        23     9      180.000000        3.631283         2    ;  uncertainty k = 0.437982
        17        21        22        23     9        0.000000        0.455435         3    ;  uncertainty k = 0.439458
        17        21        22        23     9      180.000000        0.466979         4    ;  uncertainty k = 0.171761
        18        16        17        21     9        0.000000       -0.066652         1    ;  uncertainty k = 0.264123
        18        16        17        21     9      180.000000        9.488776         2    ;  uncertainty k = 0.520436
        18        16        17        21     9        0.000000        0.044701         3    ;  uncertainty k = 0.473493
        18        16        17        21     9      180.000000        1.211826         4    ;  uncertainty k = 0.270772
        18        16        17        45     9        0.000000        0.294816         1    ;  uncertainty k = 0.384806
        18        16        17        45     9      180.000000        6.268847         2    ;  uncertainty k = 0.595981
        18        16        17        45     9        0.000000        1.452136         3    ;  uncertainty k = 0.284720
        18        16        17        45     9      180.000000        1.610127         4    ;  uncertainty k = 0.154938
        18        19        20        21     9        0.000000       -0.189473         1    ;  uncertainty k = 0.271968
        18        19        20        21     9      180.000000       14.723929         2    ;  uncertainty k = 0.282975
        18        19        20        21     9        0.000000       -1.114895         3    ;  uncertainty k = 0.629787
        18        19        20        21     9      180.000000        0.589617         4    ;  uncertainty k = 0.244449
        18        19        20        48     9        0.000000        0.069684         1    ;  uncertainty k = 0.074944
        18        19        20        48     9      180.000000        7.934168         2    ;  uncertainty k = 0.457845
        18        19        20        48     9        0.000000        1.410814         3    ;  uncertainty k = 0.271319
        18        19        20        48     9      180.000000        1.814250         4    ;  uncertainty k = 0.131306
        19        20        21        22     9        0.000000        0.051614         1    ;  uncertainty k = 0.157031
        19        20        21        22     9      180.000000        7.399041         2    ;  uncertainty k = 0.620739
        19        20        21        22     9        0.000000        1.224052         3    ;  uncertainty k = 0.248072
        19        20        21        22     9      180.000000        1.737922         4    ;  uncertainty k = 0.159975
        20        19        18        46     9        0.000000        0.083035         1    ;  uncertainty k = 0.086215
        20        19        18        46     9      180.000000        7.590650         2    ;  uncertainty k = 0.360245
        20        19        18        46     9        0.000000        1.541161         3    ;  uncertainty k = 0.248609
        20        19        18        46     9      180.000000        1.831195         4    ;  uncertainty k = 0.134139
        20        21        17        45     9        0.000000        0.337963         1    ;  uncertainty k = 0.324766
        20        21        17        45     9      180.000000        6.886391         2    ;  uncertainty k = 0.731167
        20        21        17        45     9        0.000000        1.477709         3    ;  uncertainty k = 0.354774
        20        21        17        45     9      180.000000        1.596056         4    ;  uncertainty k = 0.213489
        20        21        22        23     9        0.000000        3.392874         1    ;  uncertainty k = 0.693146
        20        21        22        23     9      180.000000        3.798036         2    ;  uncertainty k = 0.335015
        20        21        22        23     9        0.000000        0.388033         3    ;  uncertainty k = 0.372332
        20        21        22        23     9      180.000000        0.459840         4    ;  uncertainty k = 0.101134
        21        20        19        47     9        0.000000        0.006187         1    ;  uncertainty k = 0.092045
        21        20        19        47     9      180.000000        7.949119         2    ;  uncertainty k = 0.316339
        21        20        19        47     9        0.000000        1.322745         3    ;  uncertainty k = 0.175485
        21        20        19        47     9      180.000000        1.813447         4    ;  uncertainty k = 0.154574
        21        22        23        24     9        0.000000        3.765452         1    ;  uncertainty k = 0.992611
        21        22        23        24     9      180.000000        8.864736         2    ;  uncertainty k = 0.109625
        21        22        23        24     9        0.000000        0.939562         3    ;  uncertainty k = 0.339407
        21        22        23        24     9      180.000000        0.280842         4    ;  uncertainty k = 0.144570
        21        22        23        25     9        0.000000        3.491396         1    ;  uncertainty k = 0.291092
        21        22        23        25     9      180.000000        7.073733         2    ;  uncertainty k = 0.306286
        21        22        23        25     9        0.000000       -0.317401         3    ;  uncertainty k = 0.404247
        21        22        23        25     9      180.000000        0.367506         4    ;  uncertainty k = 0.210077
        22        21        17        45     9        0.000000       -0.484592         1    ;  uncertainty k = 0.557406
        22        21        17        45     9      180.000000        6.334212         2    ;  uncertainty k = 0.847640
        22        21        17        45     9        0.000000        0.812563         3    ;  uncertainty k = 0.246155
        22        21        17        45     9      180.000000        1.059509         4    ;  uncertainty k = 0.157229
        22        21        20        48     9        0.000000       -0.587051         1    ;  uncertainty k = 0.599834
        22        21        20        48     9      180.000000        6.143008         2    ;  uncertainty k = 0.791027
        22        21        20        48     9        0.000000        0.806016         3    ;  uncertainty k = 0.243163
        22        21        20        48     9      180.000000        1.030587         4    ;  uncertainty k = 0.152200
        22        23        24        28     9        0.000000        0.149143         1    ;  uncertainty k = 1.542211
        22        23        24        28     9      180.000000       13.039451         2    ;  uncertainty k = 0.563008
        22        23        24        28     9        0.000000        1.868776         3    ;  uncertainty k = 0.539719
        22        23        24        28     9      180.000000        1.542393         4    ;  uncertainty k = 0.406661
        22        23        25        26     9        0.000000       -0.529013         1    ;  uncertainty k = 0.609464
        22        23        25        26     9      180.000000        5.500502         2    ;  uncertainty k = 0.659958
        22        23        25        26     9        0.000000        0.390030         3    ;  uncertainty k = 0.275236
        22        23        25        26     9      180.000000        1.314801         4    ;  uncertainty k = 0.180539
        22        23        25        49     9        0.000000       -0.492516         1    ;  uncertainty k = 0.700004
        22        23        25        49     9      180.000000        5.350514         2    ;  uncertainty k = 0.349598
        22        23        25        49     9        0.000000        0.687302         3    ;  uncertainty k = 0.222819
        22        23        25        49     9      180.000000        0.979019         4    ;  uncertainty k = 0.125436
        23        24        28        27     9        0.000000       -0.790162         1    ;  uncertainty k = 0.918901
        23        24        28        27     9      180.000000        8.412010         2    ;  uncertainty k = 0.873302
        23        24        28        27     9        0.000000        0.774135         3    ;  uncertainty k = 0.517735
        23        24        28        27     9      180.000000        0.770872         4    ;  uncertainty k = 0.214375
        23        24        28        29     9        0.000000        0.121619         1    ;  uncertainty k = 1.035040
        23        24        28        29     9      180.000000       11.040288         2    ;  uncertainty k = 0.697808
        23        24        28        29     9        0.000000        2.519842         3    ;  uncertainty k = 0.744252
        23        24        28        29     9      180.000000        1.120453         4    ;  uncertainty k = 0.384524
        23        25        26        27     9        0.000000       -0.135195         1    ;  uncertainty k = 0.254791
        23        25        26        27     9      180.000000       11.994868         2    ;  uncertainty k = 0.528186
        23        25        26        27     9        0.000000       -1.060408         3    ;  uncertainty k = 0.613300
        23        25        26        27     9      180.000000        1.038195         4    ;  uncertainty k = 0.258421
        24        23        25        26     9        0.000000       -0.171621         1    ;  uncertainty k = 0.192871
        24        23        25        26     9      180.000000       10.437154         2    ;  uncertainty k = 0.553256
        24        23        25        26     9        0.000000       -0.922829         3    ;  uncertainty k = 0.489547
        24        23        25        26     9      180.000000        1.094774         4    ;  uncertainty k = 0.189560
        24        23        25        49     9        0.000000        0.155551         1    ;  uncertainty k = 0.567158
        24        23        25        49     9      180.000000        7.921094         2    ;  uncertainty k = 0.358352
        24        23        25        49     9        0.000000        1.252033         3    ;  uncertainty k = 0.346432
        24        23        25        49     9      180.000000        1.541009         4    ;  uncertainty k = 0.118534
        24        28        27        26     9        0.000000       -0.923543         1    ;  uncertainty k = 1.162535
        24        28        27        26     9      180.000000        7.292739         2    ;  uncertainty k = 0.686645
        24        28        27        26     9        0.000000        0.711435         3    ;  uncertainty k = 0.593264
        24        28        27        26     9      180.000000        0.884056         4    ;  uncertainty k = 0.247018
        24        28        29        50     9        0.000000       22.309368         1    ;  uncertainty k = 0.168729
        24        28        29        50     9      180.000000       10.862981         2    ;  uncertainty k = 0.185479
        24        28        29        50     9        0.000000        0.941134         3    ;  uncertainty k = 0.131005
        24        28        29        50     9      180.000000       -0.460732         4    ;  uncertainty k = 0.115162
        24        28        29        51     9        0.000000       22.309368         1    ;  uncertainty k = 0.168729
        24        28        29        51     9      180.000000       10.862981         2    ;  uncertainty k = 0.185479
        24        28        29        51     9        0.000000        0.941134         3    ;  uncertainty k = 0.131005
        24        28        29        51     9      180.000000       -0.460732         4    ;  uncertainty k = 0.115162
        25        23        24        28     9        0.000000       -0.624430         1    ;  uncertainty k = 0.433365
        25        23        24        28     9      180.000000       13.053959         2    ;  uncertainty k = 0.522515
        25        23        24        28     9        0.000000       -0.079976         3    ;  uncertainty k = 0.849066
        25        23        24        28     9      180.000000        1.107823         4    ;  uncertainty k = 0.303205
        25        26        27        28     9        0.000000       -0.229365         1    ;  uncertainty k = 0.339247
        25        26        27        28     9      180.000000       14.317760         2    ;  uncertainty k = 0.435631
        25        26        27        28     9        0.000000        0.271205         3    ;  uncertainty k = 0.665525
        25        26        27        28     9      180.000000        1.088028         4    ;  uncertainty k = 0.200237
        26         6         7        37     9        0.000000       -0.177838         1    ;  uncertainty k = 0.112445
        26         6         7        37     9      180.000000        8.097822         2    ;  uncertainty k = 0.256898
        26         6         7        37     9        0.000000        0.902702         3    ;  uncertainty k = 0.166973
        26         6         7        37     9      180.000000        1.422873         4    ;  uncertainty k = 0.128312
        26        27        28        29     9        0.000000        0.026036         1    ;  uncertainty k = 0.956792
        26        27        28        29     9      180.000000       10.495087         2    ;  uncertainty k = 0.574099
        26        27        28        29     9        0.000000        2.442608         3    ;  uncertainty k = 0.604071
        26        27        28        29     9      180.000000        1.241089         4    ;  uncertainty k = 0.285243
        27        26        25        49     9        0.000000        0.243347         1    ;  uncertainty k = 0.526187
        27        26        25        49     9      180.000000        8.480912         2    ;  uncertainty k = 0.400410
        27        26        25        49     9        0.000000        1.248750         3    ;  uncertainty k = 0.282051
        27        26        25        49     9      180.000000        1.616546         4    ;  uncertainty k = 0.078139
        27        28        29        50     9        0.000000       21.464028         1    ;  uncertainty k = 0.149778
        27        28        29        50     9      180.000000       10.874757         2    ;  uncertainty k = 0.126501
        27        28        29        50     9        0.000000        0.917179         3    ;  uncertainty k = 0.125268
        27        28        29        50     9      180.000000       -0.407902         4    ;  uncertainty k = 0.152327
        27        28        29        51     9        0.000000       21.464028         1    ;  uncertainty k = 0.149778
        27        28        29        51     9      180.000000       10.874757         2    ;  uncertainty k = 0.126501
        27        28        29        51     9        0.000000        0.917179         3    ;  uncertainty k = 0.125268
        27        28        29        51     9      180.000000       -0.407902         4    ;  uncertainty k = 0.152327
        38        11        12        39     9        0.000000        0.458089         1    ;  uncertainty k = 0.157137
        38        11        12        39     9      180.000000       -0.786214         2    ;  uncertainty k = 0.166493
        38        11        12        39     9        0.000000        0.251826         3    ;  uncertainty k = 0.031299
        38        11        12        39     9      180.000000        0.199102         4    ;  uncertainty k = 0.045458
        38        11        12        40     9        0.000000        0.458089         1    ;  uncertainty k = 0.157137
        38        11        12        40     9      180.000000       -0.786214         2    ;  uncertainty k = 0.166493
        38        11        12        40     9        0.000000        0.251826         3    ;  uncertainty k = 0.031299
        38        11        12        40     9      180.000000        0.199102         4    ;  uncertainty k = 0.045458
        39        12        13        41     9        0.000000        0.835209         1    ;  uncertainty k = 0.285259
        39        12        13        41     9      180.000000       -0.429018         2    ;  uncertainty k = 0.197538
        39        12        13        41     9        0.000000        0.038797         3    ;  uncertainty k = 0.047782
        39        12        13        41     9      180.000000       -0.048999         4    ;  uncertainty k = 0.059646
        39        12        13        42     9        0.000000        0.835209         1    ;  uncertainty k = 0.285259
        39        12        13        42     9      180.000000       -0.429018         2    ;  uncertainty k = 0.197538
        39        12        13        42     9        0.000000        0.038797         3    ;  uncertainty k = 0.047782
        39        12        13        42     9      180.000000       -0.048999         4    ;  uncertainty k = 0.059646
        40        12        13        41     9        0.000000        0.835209         1    ;  uncertainty k = 0.285259
        40        12        13        41     9      180.000000       -0.429018         2    ;  uncertainty k = 0.197538
        40        12        13        41     9        0.000000        0.038797         3    ;  uncertainty k = 0.047782
        40        12        13        41     9      180.000000       -0.048999         4    ;  uncertainty k = 0.059646
        40        12        13        42     9        0.000000        0.835209         1    ;  uncertainty k = 0.285259
        40        12        13        42     9      180.000000       -0.429018         2    ;  uncertainty k = 0.197538
        40        12        13        42     9        0.000000        0.038797         3    ;  uncertainty k = 0.047782
        40        12        13        42     9      180.000000       -0.048999         4    ;  uncertainty k = 0.059646
        41        13        14        43     9        0.000000        0.535880         1    ;  uncertainty k = 0.183949
        41        13        14        43     9      180.000000       -0.454998         2    ;  uncertainty k = 0.160707
        41        13        14        43     9        0.000000        0.080876         3    ;  uncertainty k = 0.059876
        41        13        14        43     9      180.000000       -0.031965         4    ;  uncertainty k = 0.076435
        41        13        14        44     9        0.000000        0.535880         1    ;  uncertainty k = 0.183949
        41        13        14        44     9      180.000000       -0.454998         2    ;  uncertainty k = 0.160707
        41        13        14        44     9        0.000000        0.080876         3    ;  uncertainty k = 0.059876
        41        13        14        44     9      180.000000       -0.031965         4    ;  uncertainty k = 0.076435
        42        13        14        43     9        0.000000        0.535880         1    ;  uncertainty k = 0.183949
        42        13        14        43     9      180.000000       -0.454998         2    ;  uncertainty k = 0.160707
        42        13        14        43     9        0.000000        0.080876         3    ;  uncertainty k = 0.059876
        42        13        14        43     9      180.000000       -0.031965         4    ;  uncertainty k = 0.076435
        42        13        14        44     9        0.000000        0.535880         1    ;  uncertainty k = 0.183949
        42        13        14        44     9      180.000000       -0.454998         2    ;  uncertainty k = 0.160707
        42        13        14        44     9        0.000000        0.080876         3    ;  uncertainty k = 0.059876
        42        13        14        44     9      180.000000       -0.031965         4    ;  uncertainty k = 0.076435
        46        18        19        47     9        0.000000       -0.065941         1    ;  uncertainty k = 0.169908
        46        18        19        47     9      180.000000        7.437916         2    ;  uncertainty k = 0.367427
        46        18        19        47     9        0.000000       -0.428610         3    ;  uncertainty k = 0.260727
        46        18        19        47     9      180.000000        0.090397         4    ;  uncertainty k = 0.132845
        47        19        20        48     9        0.000000       -0.138780         1    ;  uncertainty k = 0.186227
        47        19        20        48     9      180.000000        7.328243         2    ;  uncertainty k = 0.398329
        47        19        20        48     9        0.000000       -0.404427         3    ;  uncertainty k = 0.300662
        47        19        20        48     9      180.000000        0.127788         4    ;  uncertainty k = 0.143072

[ dihedrals ] ; impropers
;       ai        aj        ak        al funct           phase               k        pn
         2         1         3         8     4      180.000000       17.251952         2    ;  uncertainty k = 0.122871
         2         3         8         1     4      180.000000       17.251952         2    ;  uncertainty k = 0.122871
         2         8         1         3     4      180.000000       17.251952         2    ;  uncertainty k = 0.122871
         3         2         4        33     4      180.000000        2.137762         2    ;  uncertainty k = 0.427531
         3         4        33         2     4      180.000000        2.137762         2    ;  uncertainty k = 0.427531
         3        33         2         4     4      180.000000        2.137762         2    ;  uncertainty k = 0.427531
         4         3         5         6     4      180.000000       18.102048         2    ;  uncertainty k = 0.082045
         4         5         6         3     4      180.000000       18.102048         2    ;  uncertainty k = 0.082045
         4         6         3         5     4      180.000000       18.102048         2    ;  uncertainty k = 0.082045
         6         4         7        26     4      180.000000       10.293326         2    ;  uncertainty k = 0.223225
         6         7        26         4     4      180.000000       10.293326         2    ;  uncertainty k = 0.223225
         6        26         4         7     4      180.000000       10.293326         2    ;  uncertainty k = 0.223225
         7         6         8        37     4      180.000000        4.469239         2    ;  uncertainty k = 0.272253
         7         8        37         6     4      180.000000        4.469239         2    ;  uncertainty k = 0.272253
         7        37         6         8     4      180.000000        4.469239         2    ;  uncertainty k = 0.272253
         8         2         7         9     4      180.000000        8.328284         2    ;  uncertainty k = 0.269549
         8         7         9         2     4      180.000000        8.328284         2    ;  uncertainty k = 0.269549
         8         9         2         7     4      180.000000        8.328284         2    ;  uncertainty k = 0.269549
         9         8        10        11     4      180.000000       53.008245         2    ;  uncertainty k = 0.040968
         9        10        11         8     4      180.000000       53.008245         2    ;  uncertainty k = 0.040968
         9        11         8        10     4      180.000000       53.008245         2    ;  uncertainty k = 0.040968
        11         9        12        38     4      180.000000        0.280900         2    ;  uncertainty k = 0.628111
        11        12        38         9     4      180.000000        0.280900         2    ;  uncertainty k = 0.628111
        11        38         9        12     4      180.000000        0.280900         2    ;  uncertainty k = 0.628111
        16        15        17        18     4      180.000000       19.438844         2    ;  uncertainty k = 0.063462
        16        17        18        15     4      180.000000       19.438844         2    ;  uncertainty k = 0.063462
        16        18        15        17     4      180.000000       19.438844         2    ;  uncertainty k = 0.063462
        17        16        21        45     4      180.000000        3.644129         2    ;  uncertainty k = 0.305344
        17        21        45        16     4      180.000000        3.644129         2    ;  uncertainty k = 0.305344
        17        45        16        21     4      180.000000        3.644129         2    ;  uncertainty k = 0.305344
        18        16        19        46     4      180.000000        2.924365         2    ;  uncertainty k = 0.101750
        18        19        46        16     4      180.000000        2.924365         2    ;  uncertainty k = 0.101750
        18        46        16        19     4      180.000000        2.924365         2    ;  uncertainty k = 0.101750
        19        18        20        47     4      180.000000        4.587996         2    ;  uncertainty k = 0.134006
        19        20        47        18     4      180.000000        4.587996         2    ;  uncertainty k = 0.134006
        19        47        18        20     4      180.000000        4.587996         2    ;  uncertainty k = 0.134006
        20        19        21        48     4      180.000000        3.975100         2    ;  uncertainty k = 0.104729
        20        21        48        19     4      180.000000        3.975100         2    ;  uncertainty k = 0.104729
        20        48        19        21     4      180.000000        3.975100         2    ;  uncertainty k = 0.104729
        21        17        20        22     4      180.000000       13.701997         2    ;  uncertainty k = 0.059090
        21        20        22        17     4      180.000000       13.701997         2    ;  uncertainty k = 0.059090
        21        22        17        20     4      180.000000       13.701997         2    ;  uncertainty k = 0.059090
        23        22        24        25     4      180.000000       28.872205         2    ;  uncertainty k = 0.044335
        23        24        25        22     4      180.000000       28.872205         2    ;  uncertainty k = 0.044335
        23        25        22        24     4      180.000000       28.872205         2    ;  uncertainty k = 0.044335
        25        23        26        49     4      180.000000        1.363712         2    ;  uncertainty k = 0.704917
        25        26        49        23     4      180.000000        1.363712         2    ;  uncertainty k = 0.704917
        25        49        23        26     4      180.000000        1.363712         2    ;  uncertainty k = 0.704917
        26         6        25        27     4      180.000000       29.304317         2    ;  uncertainty k = 0.054498
        26        25        27         6     4      180.000000       29.304317         2    ;  uncertainty k = 0.054498
        26        27         6        25     4      180.000000       29.304317         2    ;  uncertainty k = 0.054498
        28        24        27        29     4      180.000000       46.058933         2    ;  uncertainty k = 0.067793
        28        27        29        24     4      180.000000       46.058933         2    ;  uncertainty k = 0.067793
        28        29        24        27     4      180.000000       46.058933         2    ;  uncertainty k = 0.067793
        29        28        50        51     4      180.000000        0.357920         2    ;  uncertainty k = 0.555992
        29        50        51        28     4      180.000000        0.357920         2    ;  uncertainty k = 0.555992
        29        51        28        50     4      180.000000        0.357920         2    ;  uncertainty k = 0.555992

[ pairs ]
;       ai        aj funct
         1         4     1
         1         7     1
         1         9     1
         1        33     1
         2         5     1
         2         6     1
         2        10     1
         2        11     1
         2        37     1
         3         7     1
         3         9     1
         3        26     1
         3        30     1
         3        31     1
         3        32     1
         3        34     1
         3        35     1
         3        36     1
         4         8     1
         4        25     1
         4        27     1
         4        37     1
         5         7     1
         5        26     1
         5        33     1
         6         9     1
         6        23     1
         6        28     1
         6        33     1
         6        34     1
         6        35     1
         6        36     1
         6        49     1
         7        10     1
         7        11     1
         7        25     1
         7        27     1
         8        12     1
         8        26     1
         8        30     1
         8        31     1
         8        32     1
         8        33     1
         8        38     1
         9        13     1
         9        37     1
         9        39     1
         9        40     1
        10        12     1
        10        38     1
        11        14     1
        11        41     1
        11        42     1
        12        15     1
        12        43     1
        12        44     1
        13        16     1
        13        38     1
        14        17     1
        14        18     1
        14        39     1
        14        40     1
        15        19     1
        15        21     1
        15        41     1
        15        42     1
        15        45     1
        15        46     1
        16        20     1
        16        22     1
        16        43     1
        16        44     1
        16        47     1
        17        19     1
        17        23     1
        17        46     1
        17        48     1
        18        21     1
        18        45     1
        18        48     1
        19        22     1
        20        23     1
        20        45     1
        20        46     1
        21        24     1
        21        25     1
        21        47     1
        22        26     1
        22        28     1
        22        45     1
        22        48     1
        22        49     1
        23        27     1
        23        29     1
        24        26     1
        24        49     1
        24        50     1
        24        51     1
        25        28     1
        26        29     1
        26        37     1
        27        49     1
        27        50     1
        27        51     1
        38        39     1
        38        40     1
        39        41     1
        39        42     1
        40        41     1
        40        42     1
        41        43     1
        41        44     1
        42        43     1
        42        44     1
        46        47     1
        47        48     1
