; ITP file created by ByteFF-joint-25, 2025-07-14 11:32:41.059198

[ atomtypes ]
;name           bonded.type        at.num        mass        charge   ptype           sigma         epsilon
 c0bf                                   6      0.0000       0.00000       A     3.31530e-01     4.13167e-01    ;  uncertainty sigma = 0.000021, epsilon = 0.000971
 c1bf                                   6      0.0000       0.00000       A     3.31519e-01     4.13498e-01    ;  uncertainty sigma = 0.000014, epsilon = 0.000764
 c2bf                                   6      0.0000       0.00000       A     3.31527e-01     4.13080e-01    ;  uncertainty sigma = 0.000007, epsilon = 0.000533
 c3bf                                   6      0.0000       0.00000       A     3.39781e-01     4.50873e-01    ;  uncertainty sigma = 0.000004, epsilon = 0.000517
 c4bf                                   6      0.0000       0.00000       A     3.31524e-01     4.13156e-01    ;  uncertainty sigma = 0.000003, epsilon = 0.000637
 c5bf                                   6      0.0000       0.00000       A     3.31525e-01     4.13125e-01    ;  uncertainty sigma = 0.000008, epsilon = 0.000714
 c6bf                                   6      0.0000       0.00000       A     3.31525e-01     4.13293e-01    ;  uncertainty sigma = 0.000023, epsilon = 0.000917
 c7bf                                   6      0.0000       0.00000       A     3.31538e-01     4.12642e-01    ;  uncertainty sigma = 0.000013, epsilon = 0.000485
 c8bf                                   6      0.0000       0.00000       A     3.39772e-01     4.50600e-01    ;  uncertainty sigma = 0.000005, epsilon = 0.001234
 c9bf                                   6      0.0000       0.00000       A     3.39778e-01     4.50512e-01    ;  uncertainty sigma = 0.000006, epsilon = 0.000760
 o10bf                                  8      0.0000       0.00000       A     3.15613e-01     3.03542e-01    ;  uncertainty sigma = 0.000013, epsilon = 0.000475
 c11bf                                  6      0.0000       0.00000       A     3.31510e-01     4.13497e-01    ;  uncertainty sigma = 0.000006, epsilon = 0.000531
 c12bf                                  6      0.0000       0.00000       A     3.31512e-01     4.12858e-01    ;  uncertainty sigma = 0.000003, epsilon = 0.000943
 c13bf                                  6      0.0000       0.00000       A     3.31514e-01     4.13352e-01    ;  uncertainty sigma = 0.000002, epsilon = 0.000751
 c14bf                                  6      0.0000       0.00000       A     3.31519e-01     4.13471e-01    ;  uncertainty sigma = 0.000003, epsilon = 0.000549
 c15bf                                  6      0.0000       0.00000       A     3.31520e-01     4.13142e-01    ;  uncertainty sigma = 0.000007, epsilon = 0.000527
 c16bf                                  6      0.0000       0.00000       A     3.31501e-01     4.13203e-01    ;  uncertainty sigma = 0.000011, epsilon = 0.000652
 s17bf                                 16      0.0000       0.00000       A     3.53219e-01     1.18209e+00    ;  uncertainty sigma = 0.000038, epsilon = 0.002778
 c18bf                                  6      0.0000       0.00000       A     3.31566e-01     4.14053e-01    ;  uncertainty sigma = 0.000030, epsilon = 0.000866
 n19bf                                  7      0.0000       0.00000       A     3.38483e-01     3.93202e-01    ;  uncertainty sigma = 0.000034, epsilon = 0.001240
 c20bf                                  6      0.0000       0.00000       A     3.31536e-01     4.13283e-01    ;  uncertainty sigma = 0.000009, epsilon = 0.001019
 c21bf                                  6      0.0000       0.00000       A     3.31530e-01     4.13339e-01    ;  uncertainty sigma = 0.000013, epsilon = 0.000814
 n22bf                                  7      0.0000       0.00000       A     3.38478e-01     3.93740e-01    ;  uncertainty sigma = 0.000043, epsilon = 0.001174
 c23bf                                  6      0.0000       0.00000       A     3.31540e-01     4.12743e-01    ;  uncertainty sigma = 0.000023, epsilon = 0.001490
 n24bf                                  7      0.0000       0.00000       A     3.36875e-01     4.69390e-01    ;  uncertainty sigma = 0.000045, epsilon = 0.002027
 h25bf                                  1      0.0000       0.00000       A     2.62586e-01     6.76145e-02    ;  uncertainty sigma = 0.000011, epsilon = 0.001010
 h26bf                                  1      0.0000       0.00000       A     2.60029e-01     8.67219e-02    ;  uncertainty sigma = 0.000007, epsilon = 0.000442
 h27bf                                  1      0.0000       0.00000       A     2.60029e-01     8.67219e-02    ;  uncertainty sigma = 0.000007, epsilon = 0.000442
 h28bf                                  1      0.0000       0.00000       A     2.60029e-01     8.67219e-02    ;  uncertainty sigma = 0.000007, epsilon = 0.000442
 h29bf                                  1      0.0000       0.00000       A     2.62559e-01     6.71111e-02    ;  uncertainty sigma = 0.000013, epsilon = 0.000423
 c30bf                                  6      0.0000       0.00000       A     3.39777e-01     4.51036e-01    ;  uncertainty sigma = 0.000005, epsilon = 0.000506
 h31bf                                  1      0.0000       0.00000       A     2.62569e-01     6.72236e-02    ;  uncertainty sigma = 0.000010, epsilon = 0.000556
 h32bf                                  1      0.0000       0.00000       A     2.62564e-01     6.71211e-02    ;  uncertainty sigma = 0.000006, epsilon = 0.000469
 h33bf                                  1      0.0000       0.00000       A     2.62569e-01     6.69467e-02    ;  uncertainty sigma = 0.000009, epsilon = 0.000511
 h34bf                                  1      0.0000       0.00000       A     2.62566e-01     6.70900e-02    ;  uncertainty sigma = 0.000007, epsilon = 0.000507
 h35bf                                  1      0.0000       0.00000       A     2.62582e-01     6.69390e-02    ;  uncertainty sigma = 0.000017, epsilon = 0.000809
 c36bf                                  6      0.0000       0.00000       A     3.39756e-01     4.50569e-01    ;  uncertainty sigma = 0.000009, epsilon = 0.000890
 h37bf                                  1      0.0000       0.00000       A     2.42191e-01     8.69663e-02    ;  uncertainty sigma = 0.000030, epsilon = 0.000486
 h38bf                                  1      0.0000       0.00000       A     2.42191e-01     8.69663e-02    ;  uncertainty sigma = 0.000030, epsilon = 0.000486
 o39bf                                  8      0.0000       0.00000       A     3.04808e-01     6.12545e-01    ;  uncertainty sigma = 0.000014, epsilon = 0.001009
 n40bf                                  7      0.0000       0.00000       A     3.26979e-01     4.90492e-01    ;  uncertainty sigma = 0.000015, epsilon = 0.001812
 h41bf                                  1      0.0000       0.00000       A     1.10655e-01     4.12404e-02    ;  uncertainty sigma = 0.000082, epsilon = 0.001053
 c42bf                                  6      0.0000       0.00000       A     3.39759e-01     4.50577e-01    ;  uncertainty sigma = 0.000014, epsilon = 0.000920
 h43bf                                  1      0.0000       0.00000       A     2.42210e-01     8.67000e-02    ;  uncertainty sigma = 0.000027, epsilon = 0.000916
 h44bf                                  1      0.0000       0.00000       A     2.42210e-01     8.67000e-02    ;  uncertainty sigma = 0.000027, epsilon = 0.000916
 c45bf                                  6      0.0000       0.00000       A     3.39764e-01     4.50395e-01    ;  uncertainty sigma = 0.000011, epsilon = 0.001540
 h46bf                                  1      0.0000       0.00000       A     2.60030e-01     8.64380e-02    ;  uncertainty sigma = 0.000015, epsilon = 0.000614
 h47bf                                  1      0.0000       0.00000       A     2.60030e-01     8.64380e-02    ;  uncertainty sigma = 0.000015, epsilon = 0.000614
 h48bf                                  1      0.0000       0.00000       A     2.60029e-01     8.63613e-02    ;  uncertainty sigma = 0.000008, epsilon = 0.000704
 h49bf                                  1      0.0000       0.00000       A     2.60029e-01     8.63613e-02    ;  uncertainty sigma = 0.000008, epsilon = 0.000704
 h50bf                                  1      0.0000       0.00000       A     2.60041e-01     8.66084e-02    ;  uncertainty sigma = 0.000008, epsilon = 0.000376
 h51bf                                  1      0.0000       0.00000       A     2.60041e-01     8.66084e-02    ;  uncertainty sigma = 0.000008, epsilon = 0.000376
 h52bf                                  1      0.0000       0.00000       A     2.60030e-01     8.67016e-02    ;  uncertainty sigma = 0.000007, epsilon = 0.000472
 h53bf                                  1      0.0000       0.00000       A     2.60030e-01     8.67016e-02    ;  uncertainty sigma = 0.000007, epsilon = 0.000472
 h54bf                                  1      0.0000       0.00000       A     2.60030e-01     8.67016e-02    ;  uncertainty sigma = 0.000007, epsilon = 0.000472
 h55bf                                  1      0.0000       0.00000       A     1.10715e-01     4.07949e-02    ;  uncertainty sigma = 0.000035, epsilon = 0.001109
 h56bf                                  1      0.0000       0.00000       A     1.10715e-01     4.07950e-02    ;  uncertainty sigma = 0.000035, epsilon = 0.001109

[ moleculetype ]
;name             nrexcl
 MOL                   3

[ atoms ]
;       nr            type      resi   res      atom      cgnr      charge          mass ; qtot
         1            c0bf         1   UNL        c0         1    -0.05700       12.0110 ; qtot   -0.057
         2            c1bf         1   UNL        c1         2    -0.16877       12.0110 ; qtot   -0.226
         3            c2bf         1   UNL        c2         3    -0.01847       12.0110 ; qtot   -0.244
         4            c3bf         1   UNL        c3         4    -0.05067       12.0110 ; qtot   -0.295
         5            c4bf         1   UNL        c4         5    -0.15382       12.0110 ; qtot   -0.449
         6            c5bf         1   UNL        c5         6    -0.01570       12.0110 ; qtot   -0.464
         7            c6bf         1   UNL        c6         7    -0.15924       12.0110 ; qtot   -0.624
         8            c7bf         1   UNL        c7         8     0.67703       12.0110 ; qtot    0.053
         9            c8bf         1   UNL        c8         9     0.10384       12.0110 ; qtot    0.157
        10            c9bf         1   UNL        c9        10     0.13807       12.0110 ; qtot    0.295
        11           o10bf         1   UNL       o10        11    -0.33533       15.9990 ; qtot   -0.040
        12           c11bf         1   UNL       c11        12     0.12912       12.0110 ; qtot    0.089
        13           c12bf         1   UNL       c12        13    -0.14058       12.0110 ; qtot   -0.052
        14           c13bf         1   UNL       c13        14    -0.17135       12.0110 ; qtot   -0.223
        15           c14bf         1   UNL       c14        15    -0.10159       12.0110 ; qtot   -0.324
        16           c15bf         1   UNL       c15        16    -0.11071       12.0110 ; qtot   -0.435
        17           c16bf         1   UNL       c16        17     0.03006       12.0110 ; qtot   -0.405
        18           s17bf         1   UNL       s17        18    -0.25974       32.0670 ; qtot   -0.665
        19           c18bf         1   UNL       c18        19     0.57823       12.0110 ; qtot   -0.087
        20           n19bf         1   UNL       n19        20    -0.76870       14.0070 ; qtot   -0.855
        21           c20bf         1   UNL       c20        21    -0.38318       12.0110 ; qtot   -1.238
        22           c21bf         1   UNL       c21        22     0.55555       12.0110 ; qtot   -0.683
        23           n22bf         1   UNL       n22        23    -0.77789       14.0070 ; qtot   -1.461
        24           c23bf         1   UNL       c23        24     0.89450       12.0110 ; qtot   -0.566
        25           n24bf         1   UNL       n24        25    -0.93026       14.0070 ; qtot   -1.497
        26           h25bf         1   UNL       h25        26     0.15308        1.0080 ; qtot   -1.344
        27           h26bf         1   UNL       h26        27     0.04818        1.0080 ; qtot   -1.295
        28           h27bf         1   UNL       h27        28     0.04818        1.0080 ; qtot   -1.247
        29           h28bf         1   UNL       h28        29     0.04818        1.0080 ; qtot   -1.199
        30           h29bf         1   UNL       h29        30     0.13288        1.0080 ; qtot   -1.066
        31           c30bf         1   UNL       c30        31    -0.05362       12.0110 ; qtot   -1.120
        32           h31bf         1   UNL       h31        32     0.15477        1.0080 ; qtot   -0.965
        33           h32bf         1   UNL       h32        33     0.14586        1.0080 ; qtot   -0.819
        34           h33bf         1   UNL       h33        34     0.13877        1.0080 ; qtot   -0.680
        35           h34bf         1   UNL       h34        35     0.14712        1.0080 ; qtot   -0.533
        36           h35bf         1   UNL       h35        36     0.16728        1.0080 ; qtot   -0.366
        37           c36bf         1   UNL       c36        37    -0.09618       12.0110 ; qtot   -0.462
        38           h37bf         1   UNL       h37        38     0.04369        1.0080 ; qtot   -0.418
        39           h38bf         1   UNL       h38        39     0.04369        1.0080 ; qtot   -0.375
        40           o39bf         1   UNL       o39        40    -0.59919       15.9990 ; qtot   -0.974
        41           n40bf         1   UNL       n40        41    -0.57945       14.0070 ; qtot   -1.553
        42           h41bf         1   UNL       h41        42     0.31936        1.0080 ; qtot   -1.234
        43           c42bf         1   UNL       c42        43    -0.10230       12.0110 ; qtot   -1.336
        44           h43bf         1   UNL       h43        44     0.05652        1.0080 ; qtot   -1.280
        45           h44bf         1   UNL       h44        45     0.05652        1.0080 ; qtot   -1.223
        46           c45bf         1   UNL       c45        46    -0.07409       12.0110 ; qtot   -1.297
        47           h46bf         1   UNL       h46        47     0.04893        1.0080 ; qtot   -1.248
        48           h47bf         1   UNL       h47        48     0.04893        1.0080 ; qtot   -1.199
        49           h48bf         1   UNL       h48        49     0.05233        1.0080 ; qtot   -1.147
        50           h49bf         1   UNL       h49        50     0.05233        1.0080 ; qtot   -1.095
        51           h50bf         1   UNL       h50        51     0.04328        1.0080 ; qtot   -1.052
        52           h51bf         1   UNL       h51        52     0.04328        1.0080 ; qtot   -1.008
        53           h52bf         1   UNL       h52        53     0.05043        1.0080 ; qtot   -0.958
        54           h53bf         1   UNL       h53        54     0.05043        1.0080 ; qtot   -0.907
        55           h54bf         1   UNL       h54        55     0.05043        1.0080 ; qtot   -0.857
        56           h55bf         1   UNL       h55        56     0.42848        1.0080 ; qtot   -0.429
        57           h56bf         1   UNL       h56        57     0.42850        1.0080 ; qtot   -0.000

[ bonds ]
;       ai        aj funct               r               k
         1         2     1        0.139704   340097.553418    ;  uncertainty r = 0.000105, k = 3.696950
         1         7     1        0.139722   346890.526660    ;  uncertainty r = 0.000117, k = 4.085501
         1        26     1        0.108647   332145.272021    ;  uncertainty r = 0.000028, k = 2.025062
         2         3     1        0.140882   327170.924023    ;  uncertainty r = 0.000085, k = 6.538533
         2        22     1        0.148090   270930.905566    ;  uncertainty r = 0.000133, k = 7.233688
         3         4     1        0.151213   233018.742822    ;  uncertainty r = 0.000030, k = 2.477912
         3         5     1        0.139953   351815.766797    ;  uncertainty r = 0.000065, k = 3.258916
         4        27     1        0.109452   309284.681543    ;  uncertainty r = 0.000013, k = 1.664197
         4        28     1        0.109452   309284.681543    ;  uncertainty r = 0.000013, k = 1.664197
         4        29     1        0.109452   309284.681543    ;  uncertainty r = 0.000013, k = 1.664197
         5         6     1        0.139953   350886.420312    ;  uncertainty r = 0.000046, k = 2.256478
         5        30     1        0.108841   333904.446875    ;  uncertainty r = 0.000022, k = 1.910549
         6         7     1        0.140859   333663.938379    ;  uncertainty r = 0.000105, k = 10.508892
         6        31     1        0.151319   234501.606152    ;  uncertainty r = 0.000039, k = 4.763870
         7         8     1        0.150123   250943.188818    ;  uncertainty r = 0.000060, k = 14.156739
         8        40     1        0.123703   768632.414941    ;  uncertainty r = 0.000039, k = 7.991164
         8        41     1        0.137401   290306.114746    ;  uncertainty r = 0.000113, k = 15.339344
         9        41     1        0.145467   253021.960596    ;  uncertainty r = 0.000079, k = 6.393336
         9        43     1        0.153400   209668.286743    ;  uncertainty r = 0.000042, k = 4.686604
         9        44     1        0.109458   304824.829688    ;  uncertainty r = 0.000017, k = 2.345398
         9        45     1        0.109458   304824.829688    ;  uncertainty r = 0.000017, k = 2.345398
        10        11     1        0.142519   233080.389404    ;  uncertainty r = 0.000021, k = 7.038797
        10        37     1        0.152216   210408.747998    ;  uncertainty r = 0.000049, k = 3.377909
        10        38     1        0.109787   307818.570557    ;  uncertainty r = 0.000023, k = 1.282339
        10        39     1        0.109787   307818.570557    ;  uncertainty r = 0.000023, k = 1.282339
        11        12     1        0.136592   321304.054053    ;  uncertainty r = 0.000068, k = 2.215390
        12        13     1        0.139590   359240.400439    ;  uncertainty r = 0.000037, k = 3.035732
        12        14     1        0.139819   361337.150342    ;  uncertainty r = 0.000022, k = 3.171802
        13        17     1        0.139730   357887.418848    ;  uncertainty r = 0.000069, k = 5.087050
        13        32     1        0.108844   336357.720361    ;  uncertainty r = 0.000045, k = 2.910339
        14        15     1        0.139413   371409.190576    ;  uncertainty r = 0.000039, k = 2.146404
        14        33     1        0.108807   337366.614941    ;  uncertainty r = 0.000026, k = 0.710181
        15        16     1        0.139432   369421.816113    ;  uncertainty r = 0.000037, k = 1.696523
        15        34     1        0.108756   333078.500146    ;  uncertainty r = 0.000015, k = 1.309208
        16        17     1        0.139891   356461.528809    ;  uncertainty r = 0.000050, k = 3.945823
        16        35     1        0.108763   333695.093652    ;  uncertainty r = 0.000016, k = 1.863330
        17        18     1        0.179108   201370.564868    ;  uncertainty r = 0.000130, k = 7.860687
        18        19     1        0.178702   213726.886768    ;  uncertainty r = 0.000179, k = 8.189733
        19        20     1        0.134700   424222.588623    ;  uncertainty r = 0.000178, k = 10.461897
        19        21     1        0.141187   392935.696924    ;  uncertainty r = 0.000022, k = 5.347533
        20        24     1        0.137598   549443.932129    ;  uncertainty r = 0.000198, k = 11.031727
        21        22     1        0.141229   407214.260889    ;  uncertainty r = 0.000182, k = 14.429921
        21        36     1        0.108873   346288.770215    ;  uncertainty r = 0.000075, k = 3.087722
        22        23     1        0.135307   438215.826465    ;  uncertainty r = 0.000116, k = 9.039813
        23        24     1        0.137411   538791.995215    ;  uncertainty r = 0.000161, k = 14.470755
        24        25     1        0.141740   597998.863965    ;  uncertainty r = 0.000229, k = 16.107510
        25        56     1        0.102337   440328.154004    ;  uncertainty r = 0.000034, k = 2.569293
        25        57     1        0.102337   440328.154004    ;  uncertainty r = 0.000034, k = 2.569293
        31        53     1        0.109434   309432.464795    ;  uncertainty r = 0.000007, k = 1.462322
        31        54     1        0.109434   309432.464795    ;  uncertainty r = 0.000007, k = 1.462322
        31        55     1        0.109434   309432.464795    ;  uncertainty r = 0.000007, k = 1.462322
        37        46     1        0.152798   205660.352344    ;  uncertainty r = 0.000015, k = 3.260510
        37        49     1        0.109717   307372.003125    ;  uncertainty r = 0.000030, k = 1.161671
        37        50     1        0.109717   307372.003125    ;  uncertainty r = 0.000030, k = 1.161671
        41        42     1        0.101441   418039.952295    ;  uncertainty r = 0.000040, k = 2.223015
        43        46     1        0.152771   205454.395557    ;  uncertainty r = 0.000055, k = 4.893738
        43        47     1        0.109728   307218.576172    ;  uncertainty r = 0.000011, k = 1.404654
        43        48     1        0.109728   307218.576172    ;  uncertainty r = 0.000011, k = 1.404654
        46        51     1        0.109743   306552.159766    ;  uncertainty r = 0.000023, k = 1.843913
        46        52     1        0.109743   306552.159766    ;  uncertainty r = 0.000023, k = 1.843913

[ angles ]
;       ai        aj        ak funct           theta             cth
         1         2         3     1      123.186401      441.700984    ;  uncertainty theta = 0.004492, k = 0.140462
         1         2        22     1      116.557106      410.226401    ;  uncertainty theta = 0.002888, k = 0.124081
         1         7         6     1      123.913330      456.179025    ;  uncertainty theta = 0.003292, k = 0.085311
         1         7         8     1      117.330162      389.195283    ;  uncertainty theta = 0.003239, k = 0.114448
         2         1         7     1      124.862206      499.151851    ;  uncertainty theta = 0.005075, k = 0.221244
         2         1        26     1      117.866295      266.681815    ;  uncertainty theta = 0.002976, k = 0.049199
         2         3         4     1      119.128822      420.764034    ;  uncertainty theta = 0.002445, k = 0.071083
         2         3         5     1      120.753174      474.686598    ;  uncertainty theta = 0.004340, k = 0.094989
         2        22        21     1      121.633606      380.834274    ;  uncertainty theta = 0.004113, k = 0.195976
         2        22        23     1      118.732887      456.450133    ;  uncertainty theta = 0.005949, k = 0.136083
         3         2        22     1      118.028336      376.992279    ;  uncertainty theta = 0.003074, k = 0.176986
         3         4        27     1      109.959473      397.168256    ;  uncertainty theta = 0.000612, k = 0.029890
         3         4        28     1      109.959473      397.168256    ;  uncertainty theta = 0.000612, k = 0.029890
         3         4        29     1      109.959473      397.168256    ;  uncertainty theta = 0.000612, k = 0.029890
         3         5         6     1      125.297134      513.249740    ;  uncertainty theta = 0.002892, k = 0.237668
         3         5        30     1      117.784286      271.435021    ;  uncertainty theta = 0.002711, k = 0.093505
         4         3         5     1      119.996231      423.436014    ;  uncertainty theta = 0.003971, k = 0.196746
         5         6         7     1      120.777237      471.449514    ;  uncertainty theta = 0.003662, k = 0.143450
         5         6        31     1      120.083435      426.568364    ;  uncertainty theta = 0.002932, k = 0.102635
         6         5        30     1      117.714882      270.893730    ;  uncertainty theta = 0.003071, k = 0.062141
         6         7         8     1      118.850990      358.560998    ;  uncertainty theta = 0.003230, k = 0.182594
         6        31        53     1      109.922974      398.236665    ;  uncertainty theta = 0.000943, k = 0.033247
         6        31        54     1      109.922974      398.236665    ;  uncertainty theta = 0.000943, k = 0.033247
         6        31        55     1      109.922974      398.236665    ;  uncertainty theta = 0.000943, k = 0.033247
         7         1        26     1      118.713234      265.619391    ;  uncertainty theta = 0.004990, k = 0.134618
         7         6        31     1      119.429321      418.786728    ;  uncertainty theta = 0.003983, k = 0.060283
         7         8        40     1      123.669945      496.521337    ;  uncertainty theta = 0.004116, k = 0.105728
         7         8        41     1      114.854698      442.469300    ;  uncertainty theta = 0.004323, k = 0.157903
         8        41         9     1      116.318604      437.829590    ;  uncertainty theta = 0.002618, k = 0.060128
         8        41        42     1      115.878929      339.721347    ;  uncertainty theta = 0.003803, k = 0.130742
         9        41        42     1      111.892334      330.351079    ;  uncertainty theta = 0.003354, k = 0.076227
         9        43        46     1      110.077164      555.530064    ;  uncertainty theta = 0.001569, k = 0.054658
         9        43        47     1      106.766129      399.176813    ;  uncertainty theta = 0.001171, k = 0.057806
         9        43        48     1      106.766129      399.176813    ;  uncertainty theta = 0.001171, k = 0.057806
        10        11        12     1      110.123703      505.339206    ;  uncertainty theta = 0.001140, k = 0.043814
        10        37        46     1      109.877457      551.325953    ;  uncertainty theta = 0.001521, k = 0.057989
        10        37        49     1      106.483032      397.998595    ;  uncertainty theta = 0.001908, k = 0.025953
        10        37        50     1      106.483032      397.998595    ;  uncertainty theta = 0.001908, k = 0.025953
        11        10        37     1      109.226585      589.517466    ;  uncertainty theta = 0.001377, k = 0.066859
        11        10        38     1      106.770584      433.281655    ;  uncertainty theta = 0.001477, k = 0.027889
        11        10        39     1      106.770584      433.281655    ;  uncertainty theta = 0.001477, k = 0.027889
        11        12        13     1      119.378738      417.169175    ;  uncertainty theta = 0.004120, k = 0.057419
        11        12        14     1      120.234047      427.556267    ;  uncertainty theta = 0.004192, k = 0.038052
        12        13        17     1      118.924438      525.162419    ;  uncertainty theta = 0.001021, k = 0.157255
        12        13        32     1      120.095444      270.236564    ;  uncertainty theta = 0.002082, k = 0.042513
        12        14        15     1      118.439621      526.061197    ;  uncertainty theta = 0.001721, k = 0.047596
        12        14        33     1      119.681274      270.879397    ;  uncertainty theta = 0.002048, k = 0.043048
        13        12        14     1      120.903732      369.303950    ;  uncertainty theta = 0.002853, k = 0.096956
        13        17        16     1      120.926491      399.970443    ;  uncertainty theta = 0.003057, k = 0.154546
        13        17        18     1      120.777016      356.098966    ;  uncertainty theta = 0.006217, k = 0.067072
        14        15        16     1      120.916405      497.680978    ;  uncertainty theta = 0.001784, k = 0.057572
        14        15        34     1      119.902023      281.831625    ;  uncertainty theta = 0.000968, k = 0.027058
        15        14        33     1      121.041649      288.243131    ;  uncertainty theta = 0.001946, k = 0.003318
        15        16        17     1      118.112709      524.487792    ;  uncertainty theta = 0.002644, k = 0.047047
        15        16        35     1      120.914078      290.649174    ;  uncertainty theta = 0.001871, k = 0.064132
        16        15        34     1      119.998428      283.950567    ;  uncertainty theta = 0.001460, k = 0.038244
        16        17        18     1      121.489868      360.802422    ;  uncertainty theta = 0.004915, k = 0.042216
        17        13        32     1      121.220238      274.663326    ;  uncertainty theta = 0.002376, k = 0.097322
        17        16        35     1      120.560890      277.903028    ;  uncertainty theta = 0.001956, k = 0.082534
        17        18        19     1       97.416367      599.824052    ;  uncertainty theta = 0.004172, k = 0.097309
        18        19        20     1      118.343712      422.939540    ;  uncertainty theta = 0.010707, k = 0.315634
        18        19        21     1      122.231277      352.704701    ;  uncertainty theta = 0.006225, k = 0.203942
        19        20        24     1      117.553078      400.291955    ;  uncertainty theta = 0.014091, k = 0.232736
        19        21        22     1      117.523415      478.805638    ;  uncertainty theta = 0.009332, k = 0.185558
        19        21        36     1      123.742592      284.152086    ;  uncertainty theta = 0.004505, k = 0.106920
        20        19        21     1      121.830734      600.670097    ;  uncertainty theta = 0.005687, k = 0.262160
        20        24        23     1      128.233551      771.635809    ;  uncertainty theta = 0.007974, k = 0.096640
        20        24        25     1      124.925125      821.351198    ;  uncertainty theta = 0.006695, k = 0.039949
        21        22        23     1      120.954445      605.617209    ;  uncertainty theta = 0.002855, k = 0.214241
        22        21        36     1      122.602188      271.883484    ;  uncertainty theta = 0.001791, k = 0.152020
        22        23        24     1      117.986839      418.917605    ;  uncertainty theta = 0.012285, k = 0.143306
        23        24        25     1      125.135986      821.373032    ;  uncertainty theta = 0.006542, k = 0.058983
        24        25        56     1      119.561668      466.924019    ;  uncertainty theta = 0.002489, k = 0.020698
        24        25        57     1      119.561668      466.924019    ;  uncertainty theta = 0.002489, k = 0.020698
        27         4        28     1      106.694153      317.150533    ;  uncertainty theta = 0.001181, k = 0.025577
        27         4        29     1      106.694153      317.150533    ;  uncertainty theta = 0.001181, k = 0.025577
        28         4        29     1      106.694153      317.150533    ;  uncertainty theta = 0.001181, k = 0.025577
        37        10        38     1      109.953590      406.922410    ;  uncertainty theta = 0.001519, k = 0.042570
        37        10        39     1      109.953590      406.922410    ;  uncertainty theta = 0.001519, k = 0.042570
        37        46        43     1      109.928024      568.139905    ;  uncertainty theta = 0.001022, k = 0.045527
        37        46        51     1      106.713318      393.203620    ;  uncertainty theta = 0.001471, k = 0.014310
        37        46        52     1      106.713318      393.203620    ;  uncertainty theta = 0.001471, k = 0.014310
        38        10        39     1      107.385422      331.683255    ;  uncertainty theta = 0.002008, k = 0.039222
        40         8        41     1      123.595886      798.951067    ;  uncertainty theta = 0.004663, k = 0.094438
        41         9        43     1      110.875381      641.829214    ;  uncertainty theta = 0.000955, k = 0.051859
        41         9        44     1      106.719398      454.816493    ;  uncertainty theta = 0.001516, k = 0.034501
        41         9        45     1      106.719398      454.816493    ;  uncertainty theta = 0.001516, k = 0.034501
        43         9        44     1      108.549461      399.220929    ;  uncertainty theta = 0.001370, k = 0.052698
        43         9        45     1      108.549461      399.220929    ;  uncertainty theta = 0.001370, k = 0.052698
        43        46        51     1      106.777870      390.475107    ;  uncertainty theta = 0.001573, k = 0.030739
        43        46        52     1      106.777870      390.475107    ;  uncertainty theta = 0.001573, k = 0.030739
        44         9        45     1      105.651695      317.919902    ;  uncertainty theta = 0.001419, k = 0.018666
        46        37        49     1      107.636917      394.314069    ;  uncertainty theta = 0.002154, k = 0.018055
        46        37        50     1      107.636917      394.314069    ;  uncertainty theta = 0.002154, k = 0.018055
        46        43        47     1      107.388062      393.641453    ;  uncertainty theta = 0.002055, k = 0.024978
        46        43        48     1      107.388062      393.641453    ;  uncertainty theta = 0.002055, k = 0.024978
        47        43        48     1      104.891090      316.228068    ;  uncertainty theta = 0.002265, k = 0.018809
        49        37        50     1      104.902603      317.648857    ;  uncertainty theta = 0.002420, k = 0.017621
        51        46        52     1      104.519211      319.356524    ;  uncertainty theta = 0.002280, k = 0.018234
        53        31        54     1      106.699974      316.272854    ;  uncertainty theta = 0.001469, k = 0.029784
        53        31        55     1      106.699974      316.272854    ;  uncertainty theta = 0.001469, k = 0.029784
        54        31        55     1      106.699974      316.272854    ;  uncertainty theta = 0.001469, k = 0.029784
        56        25        57     1      107.563583      266.929525    ;  uncertainty theta = 0.002389, k = 0.038828

[ dihedrals ] ; propers for gromacs 4.5 or higher, use funct 9
;       ai        aj        ak        al funct           phase               k        pn
         1         2         3         4     9        0.000000        0.164623         1    ;  uncertainty k = 0.306765
         1         2         3         4     9      180.000000        7.368152         2    ;  uncertainty k = 0.647968
         1         2         3         4     9        0.000000        1.147781         3    ;  uncertainty k = 0.239170
         1         2         3         4     9      180.000000        1.748949         4    ;  uncertainty k = 0.286244
         1         2         3         5     9        0.000000       -0.076246         1    ;  uncertainty k = 0.399613
         1         2         3         5     9      180.000000        7.804227         2    ;  uncertainty k = 0.494139
         1         2         3         5     9        0.000000        0.066312         3    ;  uncertainty k = 0.247156
         1         2         3         5     9      180.000000        1.198985         4    ;  uncertainty k = 0.263589
         1         2        22        21     9        0.000000       -0.370254         1    ;  uncertainty k = 0.338433
         1         2        22        21     9      180.000000        4.684727         2    ;  uncertainty k = 0.366485
         1         2        22        21     9        0.000000        0.688283         3    ;  uncertainty k = 0.139656
         1         2        22        21     9      180.000000        0.109192         4    ;  uncertainty k = 0.091182
         1         2        22        23     9        0.000000        1.843423         1    ;  uncertainty k = 0.658385
         1         2        22        23     9      180.000000        5.609796         2    ;  uncertainty k = 0.239575
         1         2        22        23     9        0.000000        0.517971         3    ;  uncertainty k = 0.212406
         1         2        22        23     9      180.000000        0.184456         4    ;  uncertainty k = 0.054569
         1         7         6         5     9        0.000000       -0.293860         1    ;  uncertainty k = 0.135274
         1         7         6         5     9      180.000000        8.125450         2    ;  uncertainty k = 0.357464
         1         7         6         5     9        0.000000       -0.238807         3    ;  uncertainty k = 0.138854
         1         7         6         5     9      180.000000        1.140140         4    ;  uncertainty k = 0.253598
         1         7         6        31     9        0.000000        0.194025         1    ;  uncertainty k = 0.342994
         1         7         6        31     9      180.000000        7.567413         2    ;  uncertainty k = 0.477877
         1         7         6        31     9        0.000000        1.166845         3    ;  uncertainty k = 0.220533
         1         7         6        31     9      180.000000        1.755343         4    ;  uncertainty k = 0.239591
         1         7         8        40     9        0.000000        0.353811         1    ;  uncertainty k = 0.490478
         1         7         8        40     9      180.000000        4.378267         2    ;  uncertainty k = 0.288748
         1         7         8        40     9        0.000000        0.473604         3    ;  uncertainty k = 0.176365
         1         7         8        40     9      180.000000        0.202566         4    ;  uncertainty k = 0.090163
         1         7         8        41     9        0.000000       -0.530206         1    ;  uncertainty k = 0.696216
         1         7         8        41     9      180.000000        2.614921         2    ;  uncertainty k = 0.248765
         1         7         8        41     9        0.000000        0.293830         3    ;  uncertainty k = 0.124211
         1         7         8        41     9      180.000000       -0.114331         4    ;  uncertainty k = 0.103897
         2         1         7         6     9        0.000000        0.083085         1    ;  uncertainty k = 0.402877
         2         1         7         6     9      180.000000        9.025189         2    ;  uncertainty k = 0.422333
         2         1         7         6     9        0.000000        0.280970         3    ;  uncertainty k = 0.367443
         2         1         7         6     9      180.000000        1.306886         4    ;  uncertainty k = 0.340074
         2         1         7         8     9        0.000000        0.436231         1    ;  uncertainty k = 0.406160
         2         1         7         8     9      180.000000        9.045900         2    ;  uncertainty k = 0.634746
         2         1         7         8     9        0.000000        1.605546         3    ;  uncertainty k = 0.255818
         2         1         7         8     9      180.000000        1.903675         4    ;  uncertainty k = 0.302618
         2         3         4        27     9        0.000000        0.187271         1    ;  uncertainty k = 0.130960
         2         3         4        27     9      180.000000        2.104008         2    ;  uncertainty k = 0.296374
         2         3         4        27     9        0.000000        0.406291         3    ;  uncertainty k = 0.078213
         2         3         4        27     9      180.000000        0.330437         4    ;  uncertainty k = 0.062977
         2         3         4        28     9        0.000000        0.187271         1    ;  uncertainty k = 0.130960
         2         3         4        28     9      180.000000        2.104008         2    ;  uncertainty k = 0.296374
         2         3         4        28     9        0.000000        0.406291         3    ;  uncertainty k = 0.078213
         2         3         4        28     9      180.000000        0.330437         4    ;  uncertainty k = 0.062977
         2         3         4        29     9        0.000000        0.187271         1    ;  uncertainty k = 0.130960
         2         3         4        29     9      180.000000        2.104008         2    ;  uncertainty k = 0.296374
         2         3         4        29     9        0.000000        0.406291         3    ;  uncertainty k = 0.078213
         2         3         4        29     9      180.000000        0.330437         4    ;  uncertainty k = 0.062977
         2         3         5         6     9        0.000000        0.120991         1    ;  uncertainty k = 0.163058
         2         3         5         6     9      180.000000        9.133687         2    ;  uncertainty k = 0.403975
         2         3         5         6     9        0.000000        0.463939         3    ;  uncertainty k = 0.225463
         2         3         5         6     9      180.000000        1.306233         4    ;  uncertainty k = 0.304877
         2         3         5        30     9        0.000000        0.049791         1    ;  uncertainty k = 0.327310
         2         3         5        30     9      180.000000        7.619664         2    ;  uncertainty k = 0.208801
         2         3         5        30     9        0.000000        1.533596         3    ;  uncertainty k = 0.171230
         2         3         5        30     9      180.000000        1.687882         4    ;  uncertainty k = 0.169018
         2        22        21        19     9        0.000000       -0.322279         1    ;  uncertainty k = 0.478580
         2        22        21        19     9      180.000000        7.363956         2    ;  uncertainty k = 0.519793
         2        22        21        19     9        0.000000        0.450565         3    ;  uncertainty k = 0.280740
         2        22        21        19     9      180.000000        1.272195         4    ;  uncertainty k = 0.255891
         2        22        21        36     9        0.000000       -0.173728         1    ;  uncertainty k = 0.998986
         2        22        21        36     9      180.000000        6.511476         2    ;  uncertainty k = 0.257892
         2        22        21        36     9        0.000000        0.704054         3    ;  uncertainty k = 0.308207
         2        22        21        36     9      180.000000        1.015865         4    ;  uncertainty k = 0.218201
         2        22        23        24     9        0.000000        0.251544         1    ;  uncertainty k = 1.107446
         2        22        23        24     9      180.000000       14.974400         2    ;  uncertainty k = 0.598159
         2        22        23        24     9        0.000000        1.754871         3    ;  uncertainty k = 0.720377
         2        22        23        24     9      180.000000        1.263508         4    ;  uncertainty k = 0.361109
         3         2         1         7     9        0.000000        0.069104         1    ;  uncertainty k = 0.294506
         3         2         1         7     9      180.000000        9.027602         2    ;  uncertainty k = 0.516923
         3         2         1         7     9        0.000000        0.262754         3    ;  uncertainty k = 0.150136
         3         2         1         7     9      180.000000        1.215305         4    ;  uncertainty k = 0.287787
         3         2         1        26     9        0.000000        0.146091         1    ;  uncertainty k = 0.191685
         3         2         1        26     9      180.000000        7.352949         2    ;  uncertainty k = 0.378001
         3         2         1        26     9        0.000000        1.303065         3    ;  uncertainty k = 0.212891
         3         2         1        26     9      180.000000        1.632868         4    ;  uncertainty k = 0.164618
         3         2        22        21     9        0.000000        0.445025         1    ;  uncertainty k = 0.569262
         3         2        22        21     9      180.000000        4.976852         2    ;  uncertainty k = 0.236505
         3         2        22        21     9        0.000000       -0.003697         3    ;  uncertainty k = 0.157487
         3         2        22        21     9      180.000000        0.233479         4    ;  uncertainty k = 0.196137
         3         2        22        23     9        0.000000        0.849904         1    ;  uncertainty k = 0.858554
         3         2        22        23     9      180.000000        5.465172         2    ;  uncertainty k = 0.274250
         3         2        22        23     9        0.000000        0.951075         3    ;  uncertainty k = 0.300112
         3         2        22        23     9      180.000000        0.207830         4    ;  uncertainty k = 0.059231
         3         5         6         7     9        0.000000       -0.052289         1    ;  uncertainty k = 0.242457
         3         5         6         7     9      180.000000        9.058405         2    ;  uncertainty k = 0.462789
         3         5         6         7     9        0.000000        0.352678         3    ;  uncertainty k = 0.272783
         3         5         6         7     9      180.000000        1.301841         4    ;  uncertainty k = 0.307234
         3         5         6        31     9        0.000000        0.069863         1    ;  uncertainty k = 0.212281
         3         5         6        31     9      180.000000        9.655667         2    ;  uncertainty k = 0.454675
         3         5         6        31     9        0.000000        1.454590         3    ;  uncertainty k = 0.193075
         3         5         6        31     9      180.000000        1.858204         4    ;  uncertainty k = 0.240682
         4         3         2        22     9        0.000000       -0.080454         1    ;  uncertainty k = 0.439447
         4         3         2        22     9      180.000000        9.094071         2    ;  uncertainty k = 0.262427
         4         3         2        22     9        0.000000        0.955494         3    ;  uncertainty k = 0.212458
         4         3         2        22     9      180.000000        1.367454         4    ;  uncertainty k = 0.164062
         4         3         5         6     9        0.000000        0.107279         1    ;  uncertainty k = 0.249614
         4         3         5         6     9      180.000000        9.350172         2    ;  uncertainty k = 0.482292
         4         3         5         6     9        0.000000        1.504011         3    ;  uncertainty k = 0.236517
         4         3         5         6     9      180.000000        1.867249         4    ;  uncertainty k = 0.225363
         4         3         5        30     9        0.000000       -0.286977         1    ;  uncertainty k = 0.403136
         4         3         5        30     9      180.000000        8.721453         2    ;  uncertainty k = 0.323593
         4         3         5        30     9        0.000000        0.417568         3    ;  uncertainty k = 0.150481
         4         3         5        30     9      180.000000        1.068619         4    ;  uncertainty k = 0.186230
         5         3         2        22     9        0.000000        0.262343         1    ;  uncertainty k = 0.328082
         5         3         2        22     9      180.000000        7.730922         2    ;  uncertainty k = 0.499417
         5         3         2        22     9        0.000000        1.492493         3    ;  uncertainty k = 0.421186
         5         3         2        22     9      180.000000        1.753740         4    ;  uncertainty k = 0.222285
         5         3         4        27     9        0.000000       -0.167719         1    ;  uncertainty k = 0.181656
         5         3         4        27     9      180.000000        1.776973         2    ;  uncertainty k = 0.164038
         5         3         4        27     9        0.000000        0.426580         3    ;  uncertainty k = 0.080680
         5         3         4        27     9      180.000000        0.263412         4    ;  uncertainty k = 0.013999
         5         3         4        28     9        0.000000       -0.167719         1    ;  uncertainty k = 0.181656
         5         3         4        28     9      180.000000        1.776973         2    ;  uncertainty k = 0.164038
         5         3         4        28     9        0.000000        0.426580         3    ;  uncertainty k = 0.080680
         5         3         4        28     9      180.000000        0.263412         4    ;  uncertainty k = 0.013999
         5         3         4        29     9        0.000000       -0.167719         1    ;  uncertainty k = 0.181656
         5         3         4        29     9      180.000000        1.776973         2    ;  uncertainty k = 0.164038
         5         3         4        29     9        0.000000        0.426580         3    ;  uncertainty k = 0.080680
         5         3         4        29     9      180.000000        0.263412         4    ;  uncertainty k = 0.013999
         5         6         7         8     9        0.000000        0.497611         1    ;  uncertainty k = 0.434580
         5         6         7         8     9      180.000000        7.634845         2    ;  uncertainty k = 0.628569
         5         6         7         8     9        0.000000        1.636562         3    ;  uncertainty k = 0.315051
         5         6         7         8     9      180.000000        1.761964         4    ;  uncertainty k = 0.263641
         5         6        31        53     9        0.000000       -0.205925         1    ;  uncertainty k = 0.272589
         5         6        31        53     9      180.000000        1.837766         2    ;  uncertainty k = 0.160457
         5         6        31        53     9        0.000000        0.442312         3    ;  uncertainty k = 0.068830
         5         6        31        53     9      180.000000        0.263728         4    ;  uncertainty k = 0.017497
         5         6        31        54     9        0.000000       -0.205925         1    ;  uncertainty k = 0.272589
         5         6        31        54     9      180.000000        1.837766         2    ;  uncertainty k = 0.160457
         5         6        31        54     9        0.000000        0.442312         3    ;  uncertainty k = 0.068830
         5         6        31        54     9      180.000000        0.263728         4    ;  uncertainty k = 0.017497
         5         6        31        55     9        0.000000       -0.205925         1    ;  uncertainty k = 0.272589
         5         6        31        55     9      180.000000        1.837766         2    ;  uncertainty k = 0.160457
         5         6        31        55     9        0.000000        0.442312         3    ;  uncertainty k = 0.068830
         5         6        31        55     9      180.000000        0.263728         4    ;  uncertainty k = 0.017497
         6         7         1        26     9        0.000000        0.211412         1    ;  uncertainty k = 0.226075
         6         7         1        26     9      180.000000        7.483479         2    ;  uncertainty k = 0.410380
         6         7         1        26     9        0.000000        1.278343         3    ;  uncertainty k = 0.298338
         6         7         1        26     9      180.000000        1.702002         4    ;  uncertainty k = 0.237389
         6         7         8        40     9        0.000000       -1.052431         1    ;  uncertainty k = 0.231619
         6         7         8        40     9      180.000000        4.699883         2    ;  uncertainty k = 0.244714
         6         7         8        40     9        0.000000        0.452944         3    ;  uncertainty k = 0.156370
         6         7         8        40     9      180.000000        0.295000         4    ;  uncertainty k = 0.085971
         6         7         8        41     9        0.000000        0.979488         1    ;  uncertainty k = 0.573019
         6         7         8        41     9      180.000000        2.191819         2    ;  uncertainty k = 0.157373
         6         7         8        41     9        0.000000        0.012592         3    ;  uncertainty k = 0.074309
         6         7         8        41     9      180.000000       -0.102635         4    ;  uncertainty k = 0.020616
         7         1         2        22     9        0.000000        0.128788         1    ;  uncertainty k = 0.367097
         7         1         2        22     9      180.000000        8.556217         2    ;  uncertainty k = 0.592833
         7         1         2        22     9        0.000000        1.275801         3    ;  uncertainty k = 0.214699
         7         1         2        22     9      180.000000        1.839651         4    ;  uncertainty k = 0.210702
         7         6         5        30     9        0.000000       -0.021991         1    ;  uncertainty k = 0.438521
         7         6         5        30     9      180.000000        7.621873         2    ;  uncertainty k = 0.302746
         7         6         5        30     9        0.000000        1.443735         3    ;  uncertainty k = 0.167878
         7         6         5        30     9      180.000000        1.658515         4    ;  uncertainty k = 0.166420
         7         6        31        53     9        0.000000        0.386704         1    ;  uncertainty k = 0.220847
         7         6        31        53     9      180.000000        2.106354         2    ;  uncertainty k = 0.214834
         7         6        31        53     9        0.000000        0.232895         3    ;  uncertainty k = 0.123793
         7         6        31        53     9      180.000000        0.310410         4    ;  uncertainty k = 0.098104
         7         6        31        54     9        0.000000        0.386704         1    ;  uncertainty k = 0.220847
         7         6        31        54     9      180.000000        2.106354         2    ;  uncertainty k = 0.214834
         7         6        31        54     9        0.000000        0.232895         3    ;  uncertainty k = 0.123793
         7         6        31        54     9      180.000000        0.310410         4    ;  uncertainty k = 0.098104
         7         6        31        55     9        0.000000        0.386704         1    ;  uncertainty k = 0.220847
         7         6        31        55     9      180.000000        2.106354         2    ;  uncertainty k = 0.214834
         7         6        31        55     9        0.000000        0.232895         3    ;  uncertainty k = 0.123793
         7         6        31        55     9      180.000000        0.310410         4    ;  uncertainty k = 0.098104
         7         8        41         9     9        0.000000        5.558028         1    ;  uncertainty k = 1.426024
         7         8        41         9     9      180.000000       11.847676         2    ;  uncertainty k = 0.208294
         7         8        41         9     9        0.000000        1.989183         3    ;  uncertainty k = 0.549787
         7         8        41         9     9      180.000000       -1.126465         4    ;  uncertainty k = 0.314341
         7         8        41        42     9        0.000000        0.487480         1    ;  uncertainty k = 0.904962
         7         8        41        42     9      180.000000        6.931852         2    ;  uncertainty k = 0.588339
         7         8        41        42     9        0.000000        2.450317         3    ;  uncertainty k = 0.226701
         7         8        41        42     9      180.000000        0.113359         4    ;  uncertainty k = 0.262575
         8         7         1        26     9        0.000000       -0.135871         1    ;  uncertainty k = 0.590357
         8         7         1        26     9      180.000000        8.857632         2    ;  uncertainty k = 0.679599
         8         7         1        26     9        0.000000        1.159803         3    ;  uncertainty k = 0.110877
         8         7         1        26     9      180.000000        1.268814         4    ;  uncertainty k = 0.381258
         8         7         6        31     9        0.000000       -0.159034         1    ;  uncertainty k = 0.539980
         8         7         6        31     9      180.000000       10.114390         2    ;  uncertainty k = 0.361783
         8         7         6        31     9        0.000000        1.290403         3    ;  uncertainty k = 0.313631
         8         7         6        31     9      180.000000        1.314322         4    ;  uncertainty k = 0.286655
         8        41         9        43     9        0.000000       -0.729670         1    ;  uncertainty k = 0.234427
         8        41         9        43     9      180.000000       -0.078322         2    ;  uncertainty k = 0.203713
         8        41         9        43     9        0.000000        0.213152         3    ;  uncertainty k = 0.099660
         8        41         9        43     9      180.000000        0.400437         4    ;  uncertainty k = 0.023788
         8        41         9        44     9        0.000000        0.815278         1    ;  uncertainty k = 0.251005
         8        41         9        44     9      180.000000       -0.501035         2    ;  uncertainty k = 0.219552
         8        41         9        44     9        0.000000        0.314563         3    ;  uncertainty k = 0.060855
         8        41         9        44     9      180.000000        0.311363         4    ;  uncertainty k = 0.062159
         8        41         9        45     9        0.000000        0.815278         1    ;  uncertainty k = 0.251005
         8        41         9        45     9      180.000000       -0.501035         2    ;  uncertainty k = 0.219552
         8        41         9        45     9        0.000000        0.314563         3    ;  uncertainty k = 0.060855
         8        41         9        45     9      180.000000        0.311363         4    ;  uncertainty k = 0.062159
         9        41         8        40     9        0.000000        2.973383         1    ;  uncertainty k = 0.734835
         9        41         8        40     9      180.000000       12.670470         2    ;  uncertainty k = 0.222773
         9        41         8        40     9        0.000000        0.197385         3    ;  uncertainty k = 0.389382
         9        41         8        40     9      180.000000        0.184036         4    ;  uncertainty k = 0.237816
         9        43        46        37     9        0.000000       -6.049486         1    ;  uncertainty k = 0.647268
         9        43        46        37     9      180.000000       -0.897490         2    ;  uncertainty k = 0.174982
         9        43        46        37     9        0.000000        1.831760         3    ;  uncertainty k = 0.152594
         9        43        46        37     9      180.000000       -0.609660         4    ;  uncertainty k = 0.049027
         9        43        46        51     9        0.000000       -1.570911         1    ;  uncertainty k = 0.327276
         9        43        46        51     9      180.000000       -0.838786         2    ;  uncertainty k = 0.217621
         9        43        46        51     9        0.000000        0.971680         3    ;  uncertainty k = 0.099222
         9        43        46        51     9      180.000000       -0.314131         4    ;  uncertainty k = 0.050841
         9        43        46        52     9        0.000000       -1.570911         1    ;  uncertainty k = 0.327276
         9        43        46        52     9      180.000000       -0.838786         2    ;  uncertainty k = 0.217621
         9        43        46        52     9        0.000000        0.971680         3    ;  uncertainty k = 0.099222
         9        43        46        52     9      180.000000       -0.314131         4    ;  uncertainty k = 0.050841
        10        11        12        13     9        0.000000       -0.165308         1    ;  uncertainty k = 0.944864
        10        11        12        13     9      180.000000        7.115231         2    ;  uncertainty k = 0.214134
        10        11        12        13     9        0.000000        0.590222         3    ;  uncertainty k = 0.089301
        10        11        12        13     9      180.000000        0.194030         4    ;  uncertainty k = 0.082103
        10        11        12        14     9        0.000000        1.057230         1    ;  uncertainty k = 0.617024
        10        11        12        14     9      180.000000        7.194342         2    ;  uncertainty k = 0.091145
        10        11        12        14     9        0.000000        0.709204         3    ;  uncertainty k = 0.090886
        10        11        12        14     9      180.000000        0.178877         4    ;  uncertainty k = 0.032601
        10        37        46        43     9        0.000000       -5.655926         1    ;  uncertainty k = 0.538880
        10        37        46        43     9      180.000000       -0.850646         2    ;  uncertainty k = 0.130367
        10        37        46        43     9        0.000000        1.672055         3    ;  uncertainty k = 0.158773
        10        37        46        43     9      180.000000       -0.580010         4    ;  uncertainty k = 0.037776
        10        37        46        51     9        0.000000       -1.442390         1    ;  uncertainty k = 0.379728
        10        37        46        51     9      180.000000       -1.006209         2    ;  uncertainty k = 0.162305
        10        37        46        51     9        0.000000        0.943707         3    ;  uncertainty k = 0.083889
        10        37        46        51     9      180.000000       -0.308465         4    ;  uncertainty k = 0.039875
        10        37        46        52     9        0.000000       -1.442390         1    ;  uncertainty k = 0.379728
        10        37        46        52     9      180.000000       -1.006209         2    ;  uncertainty k = 0.162305
        10        37        46        52     9        0.000000        0.943707         3    ;  uncertainty k = 0.083889
        10        37        46        52     9      180.000000       -0.308465         4    ;  uncertainty k = 0.039875
        11        10        37        46     9        0.000000       -3.729477         1    ;  uncertainty k = 0.913011
        11        10        37        46     9      180.000000       -2.024780         2    ;  uncertainty k = 0.338179
        11        10        37        46     9        0.000000        2.396997         3    ;  uncertainty k = 0.234724
        11        10        37        46     9      180.000000       -0.494958         4    ;  uncertainty k = 0.207340
        11        10        37        49     9        0.000000        0.262426         1    ;  uncertainty k = 0.515581
        11        10        37        49     9      180.000000       -2.257909         2    ;  uncertainty k = 0.319945
        11        10        37        49     9        0.000000        1.442359         3    ;  uncertainty k = 0.103641
        11        10        37        49     9      180.000000        0.054384         4    ;  uncertainty k = 0.068737
        11        10        37        50     9        0.000000        0.262426         1    ;  uncertainty k = 0.515581
        11        10        37        50     9      180.000000       -2.257909         2    ;  uncertainty k = 0.319945
        11        10        37        50     9        0.000000        1.442359         3    ;  uncertainty k = 0.103641
        11        10        37        50     9      180.000000        0.054384         4    ;  uncertainty k = 0.068737
        11        12        13        17     9        0.000000       -0.103625         1    ;  uncertainty k = 0.239497
        11        12        13        17     9      180.000000       11.293619         2    ;  uncertainty k = 0.388009
        11        12        13        17     9        0.000000        1.056571         3    ;  uncertainty k = 0.344275
        11        12        13        17     9      180.000000        1.486372         4    ;  uncertainty k = 0.125474
        11        12        13        32     9        0.000000       -0.203804         1    ;  uncertainty k = 0.276369
        11        12        13        32     9      180.000000        8.509561         2    ;  uncertainty k = 0.222679
        11        12        13        32     9        0.000000        0.691890         3    ;  uncertainty k = 0.072040
        11        12        13        32     9      180.000000        1.095945         4    ;  uncertainty k = 0.144738
        11        12        14        15     9        0.000000        0.007719         1    ;  uncertainty k = 0.306458
        11        12        14        15     9      180.000000       10.720047         2    ;  uncertainty k = 0.491159
        11        12        14        15     9        0.000000        1.154733         3    ;  uncertainty k = 0.202073
        11        12        14        15     9      180.000000        1.626459         4    ;  uncertainty k = 0.121278
        11        12        14        33     9        0.000000       -0.204786         1    ;  uncertainty k = 0.277842
        11        12        14        33     9      180.000000        8.352977         2    ;  uncertainty k = 0.234690
        11        12        14        33     9        0.000000        0.670117         3    ;  uncertainty k = 0.130310
        11        12        14        33     9      180.000000        1.037829         4    ;  uncertainty k = 0.192081
        12        11        10        37     9        0.000000       -1.403560         1    ;  uncertainty k = 0.466798
        12        11        10        37     9      180.000000       -0.128748         2    ;  uncertainty k = 0.142834
        12        11        10        37     9        0.000000        0.766755         3    ;  uncertainty k = 0.112334
        12        11        10        37     9      180.000000        0.490651         4    ;  uncertainty k = 0.066113
        12        11        10        38     9        0.000000        0.684068         1    ;  uncertainty k = 0.350974
        12        11        10        38     9      180.000000       -1.180992         2    ;  uncertainty k = 0.094259
        12        11        10        38     9        0.000000        0.549815         3    ;  uncertainty k = 0.037952
        12        11        10        38     9      180.000000        0.270171         4    ;  uncertainty k = 0.081362
        12        11        10        39     9        0.000000        0.684068         1    ;  uncertainty k = 0.350974
        12        11        10        39     9      180.000000       -1.180992         2    ;  uncertainty k = 0.094259
        12        11        10        39     9        0.000000        0.549815         3    ;  uncertainty k = 0.037952
        12        11        10        39     9      180.000000        0.270171         4    ;  uncertainty k = 0.081362
        12        13        17        16     9        0.000000       -0.249292         1    ;  uncertainty k = 0.276089
        12        13        17        16     9      180.000000       10.846675         2    ;  uncertainty k = 0.531695
        12        13        17        16     9        0.000000       -0.135509         3    ;  uncertainty k = 0.458636
        12        13        17        16     9      180.000000        1.012210         4    ;  uncertainty k = 0.349406
        12        13        17        18     9        0.000000       -0.180940         1    ;  uncertainty k = 0.312039
        12        13        17        18     9      180.000000        7.846644         2    ;  uncertainty k = 0.685345
        12        13        17        18     9        0.000000        1.230130         3    ;  uncertainty k = 0.308106
        12        13        17        18     9      180.000000        1.645800         4    ;  uncertainty k = 0.139410
        12        14        15        16     9        0.000000       -0.189054         1    ;  uncertainty k = 0.185938
        12        14        15        16     9      180.000000       14.296446         2    ;  uncertainty k = 0.230038
        12        14        15        16     9        0.000000       -0.895857         3    ;  uncertainty k = 0.403009
        12        14        15        16     9      180.000000        0.763233         4    ;  uncertainty k = 0.178198
        12        14        15        34     9        0.000000        0.006137         1    ;  uncertainty k = 0.170351
        12        14        15        34     9      180.000000        7.759318         2    ;  uncertainty k = 0.357537
        12        14        15        34     9        0.000000        1.354014         3    ;  uncertainty k = 0.242762
        12        14        15        34     9      180.000000        1.734051         4    ;  uncertainty k = 0.087799
        13        12        14        15     9        0.000000       -0.059338         1    ;  uncertainty k = 0.123480
        13        12        14        15     9      180.000000        9.313735         2    ;  uncertainty k = 0.482509
        13        12        14        15     9        0.000000        0.006901         3    ;  uncertainty k = 0.360505
        13        12        14        15     9      180.000000        1.149873         4    ;  uncertainty k = 0.372705
        13        12        14        33     9        0.000000        0.243458         1    ;  uncertainty k = 0.301228
        13        12        14        33     9      180.000000        6.049472         2    ;  uncertainty k = 0.661855
        13        12        14        33     9        0.000000        1.422868         3    ;  uncertainty k = 0.292614
        13        12        14        33     9      180.000000        1.575432         4    ;  uncertainty k = 0.160894
        13        17        16        15     9        0.000000       -0.250958         1    ;  uncertainty k = 0.222384
        13        17        16        15     9      180.000000       11.373540         2    ;  uncertainty k = 0.493824
        13        17        16        15     9        0.000000       -0.494942         3    ;  uncertainty k = 0.474139
        13        17        16        15     9      180.000000        0.840792         4    ;  uncertainty k = 0.421190
        13        17        16        35     9        0.000000        0.150215         1    ;  uncertainty k = 0.355090
        13        17        16        35     9      180.000000        6.678951         2    ;  uncertainty k = 0.842110
        13        17        16        35     9        0.000000        1.422731         3    ;  uncertainty k = 0.396410
        13        17        16        35     9      180.000000        1.582297         4    ;  uncertainty k = 0.239697
        13        17        18        19     9        0.000000        2.302348         1    ;  uncertainty k = 0.765604
        13        17        18        19     9      180.000000        3.631283         2    ;  uncertainty k = 0.437982
        13        17        18        19     9        0.000000        0.455435         3    ;  uncertainty k = 0.439458
        13        17        18        19     9      180.000000        0.466979         4    ;  uncertainty k = 0.171761
        14        12        13        17     9        0.000000       -0.066652         1    ;  uncertainty k = 0.264123
        14        12        13        17     9      180.000000        9.488776         2    ;  uncertainty k = 0.520436
        14        12        13        17     9        0.000000        0.044701         3    ;  uncertainty k = 0.473493
        14        12        13        17     9      180.000000        1.211826         4    ;  uncertainty k = 0.270772
        14        12        13        32     9        0.000000        0.294816         1    ;  uncertainty k = 0.384806
        14        12        13        32     9      180.000000        6.268847         2    ;  uncertainty k = 0.595981
        14        12        13        32     9        0.000000        1.452136         3    ;  uncertainty k = 0.284720
        14        12        13        32     9      180.000000        1.610127         4    ;  uncertainty k = 0.154938
        14        15        16        17     9        0.000000       -0.189473         1    ;  uncertainty k = 0.271968
        14        15        16        17     9      180.000000       14.723929         2    ;  uncertainty k = 0.282975
        14        15        16        17     9        0.000000       -1.114895         3    ;  uncertainty k = 0.629787
        14        15        16        17     9      180.000000        0.589617         4    ;  uncertainty k = 0.244449
        14        15        16        35     9        0.000000        0.069684         1    ;  uncertainty k = 0.074944
        14        15        16        35     9      180.000000        7.934168         2    ;  uncertainty k = 0.457845
        14        15        16        35     9        0.000000        1.410814         3    ;  uncertainty k = 0.271319
        14        15        16        35     9      180.000000        1.814250         4    ;  uncertainty k = 0.131306
        15        16        17        18     9        0.000000        0.051614         1    ;  uncertainty k = 0.157031
        15        16        17        18     9      180.000000        7.399041         2    ;  uncertainty k = 0.620739
        15        16        17        18     9        0.000000        1.224052         3    ;  uncertainty k = 0.248072
        15        16        17        18     9      180.000000        1.737922         4    ;  uncertainty k = 0.159975
        16        15        14        33     9        0.000000        0.083035         1    ;  uncertainty k = 0.086215
        16        15        14        33     9      180.000000        7.590650         2    ;  uncertainty k = 0.360245
        16        15        14        33     9        0.000000        1.541161         3    ;  uncertainty k = 0.248609
        16        15        14        33     9      180.000000        1.831195         4    ;  uncertainty k = 0.134139
        16        17        13        32     9        0.000000        0.337963         1    ;  uncertainty k = 0.324766
        16        17        13        32     9      180.000000        6.886391         2    ;  uncertainty k = 0.731167
        16        17        13        32     9        0.000000        1.477709         3    ;  uncertainty k = 0.354774
        16        17        13        32     9      180.000000        1.596056         4    ;  uncertainty k = 0.213489
        16        17        18        19     9        0.000000        3.392874         1    ;  uncertainty k = 0.693146
        16        17        18        19     9      180.000000        3.798036         2    ;  uncertainty k = 0.335015
        16        17        18        19     9        0.000000        0.388033         3    ;  uncertainty k = 0.372332
        16        17        18        19     9      180.000000        0.459840         4    ;  uncertainty k = 0.101134
        17        16        15        34     9        0.000000        0.006187         1    ;  uncertainty k = 0.092045
        17        16        15        34     9      180.000000        7.949119         2    ;  uncertainty k = 0.316339
        17        16        15        34     9        0.000000        1.322745         3    ;  uncertainty k = 0.175485
        17        16        15        34     9      180.000000        1.813447         4    ;  uncertainty k = 0.154574
        17        18        19        20     9        0.000000        3.765452         1    ;  uncertainty k = 0.992611
        17        18        19        20     9      180.000000        8.864736         2    ;  uncertainty k = 0.109625
        17        18        19        20     9        0.000000        0.939562         3    ;  uncertainty k = 0.339407
        17        18        19        20     9      180.000000        0.280842         4    ;  uncertainty k = 0.144570
        17        18        19        21     9        0.000000        3.491396         1    ;  uncertainty k = 0.291092
        17        18        19        21     9      180.000000        7.073733         2    ;  uncertainty k = 0.306286
        17        18        19        21     9        0.000000       -0.317401         3    ;  uncertainty k = 0.404247
        17        18        19        21     9      180.000000        0.367506         4    ;  uncertainty k = 0.210077
        18        17        13        32     9        0.000000       -0.484592         1    ;  uncertainty k = 0.557406
        18        17        13        32     9      180.000000        6.334212         2    ;  uncertainty k = 0.847640
        18        17        13        32     9        0.000000        0.812563         3    ;  uncertainty k = 0.246155
        18        17        13        32     9      180.000000        1.059509         4    ;  uncertainty k = 0.157229
        18        17        16        35     9        0.000000       -0.587051         1    ;  uncertainty k = 0.599834
        18        17        16        35     9      180.000000        6.143008         2    ;  uncertainty k = 0.791027
        18        17        16        35     9        0.000000        0.806016         3    ;  uncertainty k = 0.243163
        18        17        16        35     9      180.000000        1.030587         4    ;  uncertainty k = 0.152200
        18        19        20        24     9        0.000000        0.149143         1    ;  uncertainty k = 1.542211
        18        19        20        24     9      180.000000       13.039451         2    ;  uncertainty k = 0.563008
        18        19        20        24     9        0.000000        1.868776         3    ;  uncertainty k = 0.539719
        18        19        20        24     9      180.000000        1.542393         4    ;  uncertainty k = 0.406661
        18        19        21        22     9        0.000000       -0.529011         1    ;  uncertainty k = 0.609464
        18        19        21        22     9      180.000000        5.500503         2    ;  uncertainty k = 0.659960
        18        19        21        22     9        0.000000        0.390030         3    ;  uncertainty k = 0.275237
        18        19        21        22     9      180.000000        1.314801         4    ;  uncertainty k = 0.180540
        18        19        21        36     9        0.000000       -0.492516         1    ;  uncertainty k = 0.700004
        18        19        21        36     9      180.000000        5.350514         2    ;  uncertainty k = 0.349598
        18        19        21        36     9        0.000000        0.687302         3    ;  uncertainty k = 0.222819
        18        19        21        36     9      180.000000        0.979019         4    ;  uncertainty k = 0.125436
        19        20        24        23     9        0.000000       -0.790162         1    ;  uncertainty k = 0.918901
        19        20        24        23     9      180.000000        8.412010         2    ;  uncertainty k = 0.873302
        19        20        24        23     9        0.000000        0.774135         3    ;  uncertainty k = 0.517735
        19        20        24        23     9      180.000000        0.770872         4    ;  uncertainty k = 0.214375
        19        20        24        25     9        0.000000        0.121619         1    ;  uncertainty k = 1.035040
        19        20        24        25     9      180.000000       11.040288         2    ;  uncertainty k = 0.697808
        19        20        24        25     9        0.000000        2.519842         3    ;  uncertainty k = 0.744252
        19        20        24        25     9      180.000000        1.120453         4    ;  uncertainty k = 0.384524
        19        21        22        23     9        0.000000       -0.135195         1    ;  uncertainty k = 0.254792
        19        21        22        23     9      180.000000       11.994870         2    ;  uncertainty k = 0.528186
        19        21        22        23     9        0.000000       -1.060410         3    ;  uncertainty k = 0.613301
        19        21        22        23     9      180.000000        1.038195         4    ;  uncertainty k = 0.258421
        20        19        21        22     9        0.000000       -0.171622         1    ;  uncertainty k = 0.192872
        20        19        21        22     9      180.000000       10.437154         2    ;  uncertainty k = 0.553256
        20        19        21        22     9        0.000000       -0.922829         3    ;  uncertainty k = 0.489546
        20        19        21        22     9      180.000000        1.094774         4    ;  uncertainty k = 0.189559
        20        19        21        36     9        0.000000        0.155551         1    ;  uncertainty k = 0.567158
        20        19        21        36     9      180.000000        7.921094         2    ;  uncertainty k = 0.358352
        20        19        21        36     9        0.000000        1.252033         3    ;  uncertainty k = 0.346432
        20        19        21        36     9      180.000000        1.541009         4    ;  uncertainty k = 0.118534
        20        24        23        22     9        0.000000       -0.923543         1    ;  uncertainty k = 1.162534
        20        24        23        22     9      180.000000        7.292740         2    ;  uncertainty k = 0.686645
        20        24        23        22     9        0.000000        0.711435         3    ;  uncertainty k = 0.593264
        20        24        23        22     9      180.000000        0.884056         4    ;  uncertainty k = 0.247018
        20        24        25        56     9        0.000000       22.309368         1    ;  uncertainty k = 0.168729
        20        24        25        56     9      180.000000       10.862981         2    ;  uncertainty k = 0.185479
        20        24        25        56     9        0.000000        0.941134         3    ;  uncertainty k = 0.131005
        20        24        25        56     9      180.000000       -0.460732         4    ;  uncertainty k = 0.115162
        20        24        25        57     9        0.000000       22.309368         1    ;  uncertainty k = 0.168729
        20        24        25        57     9      180.000000       10.862981         2    ;  uncertainty k = 0.185479
        20        24        25        57     9        0.000000        0.941134         3    ;  uncertainty k = 0.131005
        20        24        25        57     9      180.000000       -0.460732         4    ;  uncertainty k = 0.115162
        21        19        20        24     9        0.000000       -0.624430         1    ;  uncertainty k = 0.433365
        21        19        20        24     9      180.000000       13.053959         2    ;  uncertainty k = 0.522515
        21        19        20        24     9        0.000000       -0.079976         3    ;  uncertainty k = 0.849066
        21        19        20        24     9      180.000000        1.107823         4    ;  uncertainty k = 0.303205
        21        22        23        24     9        0.000000       -0.229365         1    ;  uncertainty k = 0.339247
        21        22        23        24     9      180.000000       14.317761         2    ;  uncertainty k = 0.435630
        21        22        23        24     9        0.000000        0.271205         3    ;  uncertainty k = 0.665524
        21        22        23        24     9      180.000000        1.088027         4    ;  uncertainty k = 0.200237
        22         2         1        26     9        0.000000       -0.177838         1    ;  uncertainty k = 0.112445
        22         2         1        26     9      180.000000        8.097824         2    ;  uncertainty k = 0.256899
        22         2         1        26     9        0.000000        0.902702         3    ;  uncertainty k = 0.166973
        22         2         1        26     9      180.000000        1.422873         4    ;  uncertainty k = 0.128312
        22        23        24        25     9        0.000000        0.026038         1    ;  uncertainty k = 0.956791
        22        23        24        25     9      180.000000       10.495086         2    ;  uncertainty k = 0.574099
        22        23        24        25     9        0.000000        2.442607         3    ;  uncertainty k = 0.604072
        22        23        24        25     9      180.000000        1.241089         4    ;  uncertainty k = 0.285244
        23        22        21        36     9        0.000000        0.243347         1    ;  uncertainty k = 0.526188
        23        22        21        36     9      180.000000        8.480912         2    ;  uncertainty k = 0.400410
        23        22        21        36     9        0.000000        1.248751         3    ;  uncertainty k = 0.282052
        23        22        21        36     9      180.000000        1.616547         4    ;  uncertainty k = 0.078138
        23        24        25        56     9        0.000000       21.464028         1    ;  uncertainty k = 0.149778
        23        24        25        56     9      180.000000       10.874757         2    ;  uncertainty k = 0.126501
        23        24        25        56     9        0.000000        0.917179         3    ;  uncertainty k = 0.125268
        23        24        25        56     9      180.000000       -0.407902         4    ;  uncertainty k = 0.152327
        23        24        25        57     9        0.000000       21.464028         1    ;  uncertainty k = 0.149778
        23        24        25        57     9      180.000000       10.874757         2    ;  uncertainty k = 0.126501
        23        24        25        57     9        0.000000        0.917179         3    ;  uncertainty k = 0.125268
        23        24        25        57     9      180.000000       -0.407902         4    ;  uncertainty k = 0.152327
        30         5         6        31     9        0.000000       -0.270139         1    ;  uncertainty k = 0.463152
        30         5         6        31     9      180.000000        8.731840         2    ;  uncertainty k = 0.254873
        30         5         6        31     9        0.000000        0.437392         3    ;  uncertainty k = 0.195641
        30         5         6        31     9      180.000000        1.095686         4    ;  uncertainty k = 0.166265
        33        14        15        34     9        0.000000       -0.065941         1    ;  uncertainty k = 0.169908
        33        14        15        34     9      180.000000        7.437915         2    ;  uncertainty k = 0.367427
        33        14        15        34     9        0.000000       -0.428610         3    ;  uncertainty k = 0.260727
        33        14        15        34     9      180.000000        0.090397         4    ;  uncertainty k = 0.132845
        34        15        16        35     9        0.000000       -0.138780         1    ;  uncertainty k = 0.186227
        34        15        16        35     9      180.000000        7.328242         2    ;  uncertainty k = 0.398329
        34        15        16        35     9        0.000000       -0.404427         3    ;  uncertainty k = 0.300662
        34        15        16        35     9      180.000000        0.127788         4    ;  uncertainty k = 0.143072
        37        46        43        47     9        0.000000       -2.030303         1    ;  uncertainty k = 0.300737
        37        46        43        47     9      180.000000       -0.598016         2    ;  uncertainty k = 0.172461
        37        46        43        47     9        0.000000        1.051675         3    ;  uncertainty k = 0.086473
        37        46        43        47     9      180.000000       -0.308999         4    ;  uncertainty k = 0.053561
        37        46        43        48     9        0.000000       -2.030303         1    ;  uncertainty k = 0.300737
        37        46        43        48     9      180.000000       -0.598016         2    ;  uncertainty k = 0.172461
        37        46        43        48     9        0.000000        1.051675         3    ;  uncertainty k = 0.086473
        37        46        43        48     9      180.000000       -0.308999         4    ;  uncertainty k = 0.053561
        38        10        37        46     9        0.000000       -2.259792         1    ;  uncertainty k = 0.408856
        38        10        37        46     9      180.000000        0.225439         2    ;  uncertainty k = 0.114552
        38        10        37        46     9        0.000000        0.957554         3    ;  uncertainty k = 0.117304
        38        10        37        46     9      180.000000       -0.393235         4    ;  uncertainty k = 0.094978
        38        10        37        49     9        0.000000        0.464646         1    ;  uncertainty k = 0.149930
        38        10        37        49     9      180.000000       -0.433917         2    ;  uncertainty k = 0.112579
        38        10        37        49     9        0.000000        0.075622         3    ;  uncertainty k = 0.073020
        38        10        37        49     9      180.000000       -0.047421         4    ;  uncertainty k = 0.067990
        38        10        37        50     9        0.000000        0.464646         1    ;  uncertainty k = 0.149930
        38        10        37        50     9      180.000000       -0.433917         2    ;  uncertainty k = 0.112579
        38        10        37        50     9        0.000000        0.075622         3    ;  uncertainty k = 0.073020
        38        10        37        50     9      180.000000       -0.047421         4    ;  uncertainty k = 0.067990
        39        10        37        46     9        0.000000       -2.259792         1    ;  uncertainty k = 0.408856
        39        10        37        46     9      180.000000        0.225439         2    ;  uncertainty k = 0.114552
        39        10        37        46     9        0.000000        0.957554         3    ;  uncertainty k = 0.117304
        39        10        37        46     9      180.000000       -0.393235         4    ;  uncertainty k = 0.094978
        39        10        37        49     9        0.000000        0.464646         1    ;  uncertainty k = 0.149930
        39        10        37        49     9      180.000000       -0.433917         2    ;  uncertainty k = 0.112579
        39        10        37        49     9        0.000000        0.075622         3    ;  uncertainty k = 0.073020
        39        10        37        49     9      180.000000       -0.047421         4    ;  uncertainty k = 0.067990
        39        10        37        50     9        0.000000        0.464646         1    ;  uncertainty k = 0.149930
        39        10        37        50     9      180.000000       -0.433917         2    ;  uncertainty k = 0.112579
        39        10        37        50     9        0.000000        0.075622         3    ;  uncertainty k = 0.073020
        39        10        37        50     9      180.000000       -0.047421         4    ;  uncertainty k = 0.067990
        40         8        41        42     9        0.000000        3.024781         1    ;  uncertainty k = 0.766769
        40         8        41        42     9      180.000000       15.322649         2    ;  uncertainty k = 0.159456
        40         8        41        42     9        0.000000        1.643297         3    ;  uncertainty k = 0.304488
        40         8        41        42     9      180.000000       -0.331877         4    ;  uncertainty k = 0.194774
        41         9        43        46     9        0.000000       -4.459819         1    ;  uncertainty k = 0.674056
        41         9        43        46     9      180.000000       -1.008585         2    ;  uncertainty k = 0.429296
        41         9        43        46     9        0.000000        1.972996         3    ;  uncertainty k = 0.181590
        41         9        43        46     9      180.000000       -0.448502         4    ;  uncertainty k = 0.128720
        41         9        43        47     9        0.000000       -0.554168         1    ;  uncertainty k = 0.364840
        41         9        43        47     9      180.000000       -2.159012         2    ;  uncertainty k = 0.292619
        41         9        43        47     9        0.000000        1.427883         3    ;  uncertainty k = 0.197156
        41         9        43        47     9      180.000000       -0.100119         4    ;  uncertainty k = 0.075331
        41         9        43        48     9        0.000000       -0.554168         1    ;  uncertainty k = 0.364840
        41         9        43        48     9      180.000000       -2.159012         2    ;  uncertainty k = 0.292619
        41         9        43        48     9        0.000000        1.427883         3    ;  uncertainty k = 0.197156
        41         9        43        48     9      180.000000       -0.100119         4    ;  uncertainty k = 0.075331
        42        41         9        43     9        0.000000        1.416816         1    ;  uncertainty k = 0.544016
        42        41         9        43     9      180.000000       -1.770267         2    ;  uncertainty k = 0.230269
        42        41         9        43     9        0.000000        0.450006         3    ;  uncertainty k = 0.062990
        42        41         9        43     9      180.000000        0.015183         4    ;  uncertainty k = 0.045631
        42        41         9        44     9        0.000000        0.429562         1    ;  uncertainty k = 0.146565
        42        41         9        44     9      180.000000       -0.811920         2    ;  uncertainty k = 0.188490
        42        41         9        44     9        0.000000        0.258842         3    ;  uncertainty k = 0.035702
        42        41         9        44     9      180.000000        0.200111         4    ;  uncertainty k = 0.043651
        42        41         9        45     9        0.000000        0.429562         1    ;  uncertainty k = 0.146565
        42        41         9        45     9      180.000000       -0.811920         2    ;  uncertainty k = 0.188490
        42        41         9        45     9        0.000000        0.258842         3    ;  uncertainty k = 0.035702
        42        41         9        45     9      180.000000        0.200111         4    ;  uncertainty k = 0.043651
        43        46        37        49     9        0.000000       -2.060795         1    ;  uncertainty k = 0.287463
        43        46        37        49     9      180.000000       -0.487407         2    ;  uncertainty k = 0.159857
        43        46        37        49     9        0.000000        1.042304         3    ;  uncertainty k = 0.064937
        43        46        37        49     9      180.000000       -0.325320         4    ;  uncertainty k = 0.043990
        43        46        37        50     9        0.000000       -2.060795         1    ;  uncertainty k = 0.287463
        43        46        37        50     9      180.000000       -0.487407         2    ;  uncertainty k = 0.159857
        43        46        37        50     9        0.000000        1.042304         3    ;  uncertainty k = 0.064937
        43        46        37        50     9      180.000000       -0.325320         4    ;  uncertainty k = 0.043990
        44         9        43        46     9        0.000000       -1.976450         1    ;  uncertainty k = 0.460325
        44         9        43        46     9      180.000000       -0.004415         2    ;  uncertainty k = 0.229824
        44         9        43        46     9        0.000000        0.900813         3    ;  uncertainty k = 0.086225
        44         9        43        46     9      180.000000       -0.353423         4    ;  uncertainty k = 0.099741
        44         9        43        47     9        0.000000        0.821082         1    ;  uncertainty k = 0.236292
        44         9        43        47     9      180.000000       -0.467131         2    ;  uncertainty k = 0.137913
        44         9        43        47     9        0.000000        0.004094         3    ;  uncertainty k = 0.044427
        44         9        43        47     9      180.000000       -0.064208         4    ;  uncertainty k = 0.055315
        44         9        43        48     9        0.000000        0.821082         1    ;  uncertainty k = 0.236292
        44         9        43        48     9      180.000000       -0.467131         2    ;  uncertainty k = 0.137913
        44         9        43        48     9        0.000000        0.004094         3    ;  uncertainty k = 0.044427
        44         9        43        48     9      180.000000       -0.064208         4    ;  uncertainty k = 0.055315
        45         9        43        46     9        0.000000       -1.976450         1    ;  uncertainty k = 0.460325
        45         9        43        46     9      180.000000       -0.004415         2    ;  uncertainty k = 0.229824
        45         9        43        46     9        0.000000        0.900813         3    ;  uncertainty k = 0.086225
        45         9        43        46     9      180.000000       -0.353423         4    ;  uncertainty k = 0.099741
        45         9        43        47     9        0.000000        0.821082         1    ;  uncertainty k = 0.236292
        45         9        43        47     9      180.000000       -0.467131         2    ;  uncertainty k = 0.137913
        45         9        43        47     9        0.000000        0.004094         3    ;  uncertainty k = 0.044427
        45         9        43        47     9      180.000000       -0.064208         4    ;  uncertainty k = 0.055315
        45         9        43        48     9        0.000000        0.821082         1    ;  uncertainty k = 0.236292
        45         9        43        48     9      180.000000       -0.467131         2    ;  uncertainty k = 0.137913
        45         9        43        48     9        0.000000        0.004094         3    ;  uncertainty k = 0.044427
        45         9        43        48     9      180.000000       -0.064208         4    ;  uncertainty k = 0.055315
        47        43        46        51     9        0.000000        1.134902         1    ;  uncertainty k = 0.379316
        47        43        46        51     9      180.000000       -0.737200         2    ;  uncertainty k = 0.065538
        47        43        46        51     9        0.000000       -0.006924         3    ;  uncertainty k = 0.040434
        47        43        46        51     9      180.000000       -0.054892         4    ;  uncertainty k = 0.061332
        47        43        46        52     9        0.000000        1.134902         1    ;  uncertainty k = 0.379316
        47        43        46        52     9      180.000000       -0.737200         2    ;  uncertainty k = 0.065538
        47        43        46        52     9        0.000000       -0.006924         3    ;  uncertainty k = 0.040434
        47        43        46        52     9      180.000000       -0.054892         4    ;  uncertainty k = 0.061332
        48        43        46        51     9        0.000000        1.134902         1    ;  uncertainty k = 0.379316
        48        43        46        51     9      180.000000       -0.737200         2    ;  uncertainty k = 0.065538
        48        43        46        51     9        0.000000       -0.006924         3    ;  uncertainty k = 0.040434
        48        43        46        51     9      180.000000       -0.054892         4    ;  uncertainty k = 0.061332
        48        43        46        52     9        0.000000        1.134902         1    ;  uncertainty k = 0.379316
        48        43        46        52     9      180.000000       -0.737200         2    ;  uncertainty k = 0.065538
        48        43        46        52     9        0.000000       -0.006924         3    ;  uncertainty k = 0.040434
        48        43        46        52     9      180.000000       -0.054892         4    ;  uncertainty k = 0.061332
        49        37        46        51     9        0.000000        1.137983         1    ;  uncertainty k = 0.327538
        49        37        46        51     9      180.000000       -0.708433         2    ;  uncertainty k = 0.072446
        49        37        46        51     9        0.000000       -0.003091         3    ;  uncertainty k = 0.054028
        49        37        46        51     9      180.000000       -0.049108         4    ;  uncertainty k = 0.064745
        49        37        46        52     9        0.000000        1.137983         1    ;  uncertainty k = 0.327538
        49        37        46        52     9      180.000000       -0.708433         2    ;  uncertainty k = 0.072446
        49        37        46        52     9        0.000000       -0.003091         3    ;  uncertainty k = 0.054028
        49        37        46        52     9      180.000000       -0.049108         4    ;  uncertainty k = 0.064745
        50        37        46        51     9        0.000000        1.137983         1    ;  uncertainty k = 0.327538
        50        37        46        51     9      180.000000       -0.708433         2    ;  uncertainty k = 0.072446
        50        37        46        51     9        0.000000       -0.003091         3    ;  uncertainty k = 0.054028
        50        37        46        51     9      180.000000       -0.049108         4    ;  uncertainty k = 0.064745
        50        37        46        52     9        0.000000        1.137983         1    ;  uncertainty k = 0.327538
        50        37        46        52     9      180.000000       -0.708433         2    ;  uncertainty k = 0.072446
        50        37        46        52     9        0.000000       -0.003091         3    ;  uncertainty k = 0.054028
        50        37        46        52     9      180.000000       -0.049108         4    ;  uncertainty k = 0.064745

[ dihedrals ] ; impropers
;       ai        aj        ak        al funct           phase               k        pn
         1         2         7        26     4      180.000000        4.469237         2    ;  uncertainty k = 0.272253
         1         7        26         2     4      180.000000        4.469237         2    ;  uncertainty k = 0.272253
         1        26         2         7     4      180.000000        4.469237         2    ;  uncertainty k = 0.272253
         2         1         3        22     4      180.000000       10.293324         2    ;  uncertainty k = 0.223225
         2         3        22         1     4      180.000000       10.293324         2    ;  uncertainty k = 0.223225
         2        22         1         3     4      180.000000       10.293324         2    ;  uncertainty k = 0.223225
         3         2         4         5     4      180.000000       18.102052         2    ;  uncertainty k = 0.082045
         3         4         5         2     4      180.000000       18.102052         2    ;  uncertainty k = 0.082045
         3         5         2         4     4      180.000000       18.102052         2    ;  uncertainty k = 0.082045
         5         3         6        30     4      180.000000        2.137765         2    ;  uncertainty k = 0.427529
         5         6        30         3     4      180.000000        2.137765         2    ;  uncertainty k = 0.427529
         5        30         3         6     4      180.000000        2.137765         2    ;  uncertainty k = 0.427529
         6         5         7        31     4      180.000000       17.251959         2    ;  uncertainty k = 0.122872
         6         7        31         5     4      180.000000       17.251959         2    ;  uncertainty k = 0.122872
         6        31         5         7     4      180.000000       17.251959         2    ;  uncertainty k = 0.122872
         7         1         6         8     4      180.000000        8.328283         2    ;  uncertainty k = 0.269550
         7         6         8         1     4      180.000000        8.328283         2    ;  uncertainty k = 0.269550
         7         8         1         6     4      180.000000        8.328283         2    ;  uncertainty k = 0.269550
         8         7        40        41     4      180.000000       52.996764         2    ;  uncertainty k = 0.041017
         8        40        41         7     4      180.000000       52.996764         2    ;  uncertainty k = 0.041017
         8        41         7        40     4      180.000000       52.996764         2    ;  uncertainty k = 0.041017
        12        11        13        14     4      180.000000       19.439116         2    ;  uncertainty k = 0.064057
        12        13        14        11     4      180.000000       19.439116         2    ;  uncertainty k = 0.064057
        12        14        11        13     4      180.000000       19.439116         2    ;  uncertainty k = 0.064057
        13        12        17        32     4      180.000000        3.644129         2    ;  uncertainty k = 0.305344
        13        17        32        12     4      180.000000        3.644129         2    ;  uncertainty k = 0.305344
        13        32        12        17     4      180.000000        3.644129         2    ;  uncertainty k = 0.305344
        14        12        15        33     4      180.000000        2.924365         2    ;  uncertainty k = 0.101750
        14        15        33        12     4      180.000000        2.924365         2    ;  uncertainty k = 0.101750
        14        33        12        15     4      180.000000        2.924365         2    ;  uncertainty k = 0.101750
        15        14        16        34     4      180.000000        4.587996         2    ;  uncertainty k = 0.134006
        15        16        34        14     4      180.000000        4.587996         2    ;  uncertainty k = 0.134006
        15        34        14        16     4      180.000000        4.587996         2    ;  uncertainty k = 0.134006
        16        15        17        35     4      180.000000        3.975100         2    ;  uncertainty k = 0.104729
        16        17        35        15     4      180.000000        3.975100         2    ;  uncertainty k = 0.104729
        16        35        15        17     4      180.000000        3.975100         2    ;  uncertainty k = 0.104729
        17        13        16        18     4      180.000000       13.701997         2    ;  uncertainty k = 0.059090
        17        16        18        13     4      180.000000       13.701997         2    ;  uncertainty k = 0.059090
        17        18        13        16     4      180.000000       13.701997         2    ;  uncertainty k = 0.059090
        19        18        20        21     4      180.000000       28.872205         2    ;  uncertainty k = 0.044335
        19        20        21        18     4      180.000000       28.872205         2    ;  uncertainty k = 0.044335
        19        21        18        20     4      180.000000       28.872205         2    ;  uncertainty k = 0.044335
        21        19        22        36     4      180.000000        1.363715         2    ;  uncertainty k = 0.704912
        21        22        36        19     4      180.000000        1.363715         2    ;  uncertainty k = 0.704912
        21        36        19        22     4      180.000000        1.363715         2    ;  uncertainty k = 0.704912
        22         2        21        23     4      180.000000       29.304314         2    ;  uncertainty k = 0.054498
        22        21        23         2     4      180.000000       29.304314         2    ;  uncertainty k = 0.054498
        22        23         2        21     4      180.000000       29.304314         2    ;  uncertainty k = 0.054498
        24        20        23        25     4      180.000000       46.058933         2    ;  uncertainty k = 0.067793
        24        23        25        20     4      180.000000       46.058933         2    ;  uncertainty k = 0.067793
        24        25        20        23     4      180.000000       46.058933         2    ;  uncertainty k = 0.067793
        25        24        56        57     4      180.000000        0.357920         2    ;  uncertainty k = 0.555992
        25        56        57        24     4      180.000000        0.357920         2    ;  uncertainty k = 0.555992
        25        57        24        56     4      180.000000        0.357920         2    ;  uncertainty k = 0.555992
        41         8         9        42     4      180.000000        0.325926         2    ;  uncertainty k = 0.728792
        41         9        42         8     4      180.000000        0.325926         2    ;  uncertainty k = 0.728792
        41        42         8         9     4      180.000000        0.325926         2    ;  uncertainty k = 0.728792

[ pairs ]
;       ai        aj funct
         1         4     1
         1         5     1
         1        21     1
         1        23     1
         1        31     1
         1        40     1
         1        41     1
         2         6     1
         2         8     1
         2        19     1
         2        24     1
         2        27     1
         2        28     1
         2        29     1
         2        30     1
         2        36     1
         3         7     1
         3        21     1
         3        23     1
         3        26     1
         3        31     1
         4         6     1
         4        22     1
         4        30     1
         5         8     1
         5        22     1
         5        27     1
         5        28     1
         5        29     1
         5        53     1
         5        54     1
         5        55     1
         6        26     1
         6        40     1
         6        41     1
         7         9     1
         7        22     1
         7        30     1
         7        42     1
         7        53     1
         7        54     1
         7        55     1
         8        26     1
         8        31     1
         8        43     1
         8        44     1
         8        45     1
         9        37     1
         9        40     1
         9        51     1
         9        52     1
        10        13     1
        10        14     1
        10        43     1
        10        51     1
        10        52     1
        11        15     1
        11        17     1
        11        32     1
        11        33     1
        11        46     1
        11        49     1
        11        50     1
        12        16     1
        12        18     1
        12        34     1
        12        37     1
        12        38     1
        12        39     1
        13        15     1
        13        19     1
        13        33     1
        13        35     1
        14        17     1
        14        32     1
        14        35     1
        15        18     1
        16        19     1
        16        32     1
        16        33     1
        17        20     1
        17        21     1
        17        34     1
        18        22     1
        18        24     1
        18        32     1
        18        35     1
        18        36     1
        19        23     1
        19        25     1
        20        22     1
        20        36     1
        20        56     1
        20        57     1
        21        24     1
        22        25     1
        22        26     1
        23        36     1
        23        56     1
        23        57     1
        30        31     1
        33        34     1
        34        35     1
        37        47     1
        37        48     1
        38        46     1
        38        49     1
        38        50     1
        39        46     1
        39        49     1
        39        50     1
        40        42     1
        41        46     1
        41        47     1
        41        48     1
        42        43     1
        42        44     1
        42        45     1
        43        49     1
        43        50     1
        44        46     1
        44        47     1
        44        48     1
        45        46     1
        45        47     1
        45        48     1
        47        51     1
        47        52     1
        48        51     1
        48        52     1
        49        51     1
        49        52     1
        50        51     1
        50        52     1
