; ITP file created by ByteFF-joint-25, 2025-07-14 11:32:38.668149

[ atomtypes ]
;name           bonded.type        at.num        mass        charge   ptype           sigma         epsilon
 c0bf                                   6      0.0000       0.00000       A     3.31519e-01     4.13498e-01    ;  uncertainty sigma = 0.000014, epsilon = 0.000764
 c1bf                                   6      0.0000       0.00000       A     3.31527e-01     4.13080e-01    ;  uncertainty sigma = 0.000007, epsilon = 0.000533
 c2bf                                   6      0.0000       0.00000       A     3.31524e-01     4.13156e-01    ;  uncertainty sigma = 0.000003, epsilon = 0.000636
 c3bf                                   6      0.0000       0.00000       A     3.31525e-01     4.13125e-01    ;  uncertainty sigma = 0.000008, epsilon = 0.000714
 c4bf                                   6      0.0000       0.00000       A     3.31525e-01     4.13293e-01    ;  uncertainty sigma = 0.000023, epsilon = 0.000917
 c5bf                                   6      0.0000       0.00000       A     3.31530e-01     4.13168e-01    ;  uncertainty sigma = 0.000021, epsilon = 0.000971
 c6bf                                   6      0.0000       0.00000       A     3.31538e-01     4.12642e-01    ;  uncertainty sigma = 0.000013, epsilon = 0.000485
 c7bf                                   6      0.0000       0.00000       A     3.39777e-01     4.51036e-01    ;  uncertainty sigma = 0.000005, epsilon = 0.000506
 o8bf                                   8      0.0000       0.00000       A     3.04808e-01     6.12545e-01    ;  uncertainty sigma = 0.000014, epsilon = 0.001009
 n9bf                                   7      0.0000       0.00000       A     3.26982e-01     4.90443e-01    ;  uncertainty sigma = 0.000018, epsilon = 0.001799
 c10bf                                  6      0.0000       0.00000       A     3.39781e-01     4.50873e-01    ;  uncertainty sigma = 0.000004, epsilon = 0.000517
 c11bf                                  6      0.0000       0.00000       A     3.31530e-01     4.13378e-01    ;  uncertainty sigma = 0.000014, epsilon = 0.000852
 c12bf                                  6      0.0000       0.00000       A     3.31530e-01     4.13276e-01    ;  uncertainty sigma = 0.000006, epsilon = 0.001128
 c13bf                                  6      0.0000       0.00000       A     3.31565e-01     4.13272e-01    ;  uncertainty sigma = 0.000023, epsilon = 0.000730
 n14bf                                  7      0.0000       0.00000       A     3.38493e-01     3.93345e-01    ;  uncertainty sigma = 0.000032, epsilon = 0.001124
 c15bf                                  6      0.0000       0.00000       A     3.31540e-01     4.12734e-01    ;  uncertainty sigma = 0.000022, epsilon = 0.001493
 n16bf                                  7      0.0000       0.00000       A     3.38478e-01     3.93740e-01    ;  uncertainty sigma = 0.000043, epsilon = 0.001174
 n17bf                                  7      0.0000       0.00000       A     3.36875e-01     4.69390e-01    ;  uncertainty sigma = 0.000045, epsilon = 0.002027
 c18bf                                  6      0.0000       0.00000       A     3.39770e-01     4.50674e-01    ;  uncertainty sigma = 0.000006, epsilon = 0.001192
 c19bf                                  6      0.0000       0.00000       A     3.39753e-01     4.50801e-01    ;  uncertainty sigma = 0.000017, epsilon = 0.001090
 c20bf                                  6      0.0000       0.00000       A     3.39761e-01     4.50543e-01    ;  uncertainty sigma = 0.000007, epsilon = 0.001098
 n21bf                                  7      0.0000       0.00000       A     3.26963e-01     4.90940e-01    ;  uncertainty sigma = 0.000011, epsilon = 0.001543
 c22bf                                  6      0.0000       0.00000       A     3.31502e-01     4.13128e-01    ;  uncertainty sigma = 0.000006, epsilon = 0.000899
 c23bf                                  6      0.0000       0.00000       A     3.39783e-01     4.50356e-01    ;  uncertainty sigma = 0.000013, epsilon = 0.000769
 o24bf                                  8      0.0000       0.00000       A     3.04828e-01     6.13068e-01    ;  uncertainty sigma = 0.000008, epsilon = 0.001227
 c25bf                                  6      0.0000       0.00000       A     3.39755e-01     4.51734e-01    ;  uncertainty sigma = 0.000007, epsilon = 0.001142
 s26bf                                 16      0.0000       0.00000       A     3.53260e-01     1.18142e+00    ;  uncertainty sigma = 0.000025, epsilon = 0.002633
 h27bf                                  1      0.0000       0.00000       A     2.62559e-01     6.71111e-02    ;  uncertainty sigma = 0.000013, epsilon = 0.000423
 h28bf                                  1      0.0000       0.00000       A     2.62586e-01     6.76143e-02    ;  uncertainty sigma = 0.000011, epsilon = 0.001010
 h29bf                                  1      0.0000       0.00000       A     2.60030e-01     8.67016e-02    ;  uncertainty sigma = 0.000007, epsilon = 0.000472
 h30bf                                  1      0.0000       0.00000       A     2.60030e-01     8.67016e-02    ;  uncertainty sigma = 0.000007, epsilon = 0.000472
 h31bf                                  1      0.0000       0.00000       A     2.60030e-01     8.67016e-02    ;  uncertainty sigma = 0.000007, epsilon = 0.000472
 h32bf                                  1      0.0000       0.00000       A     1.10655e-01     4.12404e-02    ;  uncertainty sigma = 0.000082, epsilon = 0.001053
 h33bf                                  1      0.0000       0.00000       A     2.60029e-01     8.67217e-02    ;  uncertainty sigma = 0.000007, epsilon = 0.000441
 h34bf                                  1      0.0000       0.00000       A     2.60029e-01     8.67217e-02    ;  uncertainty sigma = 0.000007, epsilon = 0.000441
 h35bf                                  1      0.0000       0.00000       A     2.60029e-01     8.67217e-02    ;  uncertainty sigma = 0.000007, epsilon = 0.000441
 h36bf                                  1      0.0000       0.00000       A     2.62579e-01     6.69782e-02    ;  uncertainty sigma = 0.000018, epsilon = 0.000797
 h37bf                                  1      0.0000       0.00000       A     1.10715e-01     4.07949e-02    ;  uncertainty sigma = 0.000035, epsilon = 0.001109
 h38bf                                  1      0.0000       0.00000       A     1.10715e-01     4.07949e-02    ;  uncertainty sigma = 0.000035, epsilon = 0.001109
 h39bf                                  1      0.0000       0.00000       A     2.42220e-01     8.67156e-02    ;  uncertainty sigma = 0.000032, epsilon = 0.000915
 h40bf                                  1      0.0000       0.00000       A     2.42220e-01     8.67156e-02    ;  uncertainty sigma = 0.000032, epsilon = 0.000915
 h41bf                                  1      0.0000       0.00000       A     2.60044e-01     8.63597e-02    ;  uncertainty sigma = 0.000020, epsilon = 0.000831
 h42bf                                  1      0.0000       0.00000       A     2.60044e-01     8.63597e-02    ;  uncertainty sigma = 0.000020, epsilon = 0.000831
 h43bf                                  1      0.0000       0.00000       A     2.42222e-01     8.67077e-02    ;  uncertainty sigma = 0.000028, epsilon = 0.000837
 h44bf                                  1      0.0000       0.00000       A     2.42222e-01     8.67077e-02    ;  uncertainty sigma = 0.000028, epsilon = 0.000837
 h45bf                                  1      0.0000       0.00000       A     1.10638e-01     4.10389e-02    ;  uncertainty sigma = 0.000077, epsilon = 0.001002
 h46bf                                  1      0.0000       0.00000       A     2.60029e-01     8.63452e-02    ;  uncertainty sigma = 0.000013, epsilon = 0.000501
 h47bf                                  1      0.0000       0.00000       A     2.60029e-01     8.63452e-02    ;  uncertainty sigma = 0.000013, epsilon = 0.000501
 h48bf                                  1      0.0000       0.00000       A     2.42207e-01     8.70472e-02    ;  uncertainty sigma = 0.000045, epsilon = 0.001156
 h49bf                                  1      0.0000       0.00000       A     2.42207e-01     8.70473e-02    ;  uncertainty sigma = 0.000045, epsilon = 0.001156

[ moleculetype ]
;name             nrexcl
 MOL                   3

[ atoms ]
;       nr            type      resi   res      atom      cgnr      charge          mass ; qtot
         1            c0bf         1   UNL        c0         1    -0.16834       12.0110 ; qtot   -0.168
         2            c1bf         1   UNL        c1         2    -0.01847       12.0110 ; qtot   -0.187
         3            c2bf         1   UNL        c2         3    -0.15382       12.0110 ; qtot   -0.341
         4            c3bf         1   UNL        c3         4    -0.01570       12.0110 ; qtot   -0.356
         5            c4bf         1   UNL        c4         5    -0.15924       12.0110 ; qtot   -0.516
         6            c5bf         1   UNL        c5         6    -0.05700       12.0110 ; qtot   -0.573
         7            c6bf         1   UNL        c6         7     0.67700       12.0110 ; qtot    0.104
         8            c7bf         1   UNL        c7         8    -0.05362       12.0110 ; qtot    0.051
         9            o8bf         1   UNL        o8         9    -0.59919       15.9990 ; qtot   -0.548
        10            n9bf         1   UNL        n9        10    -0.57941       14.0070 ; qtot   -1.128
        11           c10bf         1   UNL       c10        11    -0.05067       12.0110 ; qtot   -1.178
        12           c11bf         1   UNL       c11        12     0.55582       12.0110 ; qtot   -0.623
        13           c12bf         1   UNL       c12        13    -0.38722       12.0110 ; qtot   -1.010
        14           c13bf         1   UNL       c13        14     0.59295       12.0110 ; qtot   -0.417
        15           n14bf         1   UNL       n14        15    -0.78318       14.0070 ; qtot   -1.200
        16           c15bf         1   UNL       c15        16     0.89267       12.0110 ; qtot   -0.307
        17           n16bf         1   UNL       n16        17    -0.77913       14.0070 ; qtot   -1.087
        18           n17bf         1   UNL       n17        18    -0.93021       14.0070 ; qtot   -2.017
        19           c18bf         1   UNL       c18        19     0.10598       12.0110 ; qtot   -1.911
        20           c19bf         1   UNL       c19        20    -0.12657       12.0110 ; qtot   -2.037
        21           c20bf         1   UNL       c20        21     0.10553       12.0110 ; qtot   -1.932
        22           n21bf         1   UNL       n21        22    -0.58363       14.0070 ; qtot   -2.515
        23           c22bf         1   UNL       c22        23     0.66568       12.0110 ; qtot   -1.850
        24           c23bf         1   UNL       c23        24    -0.15621       12.0110 ; qtot   -2.006
        25           o24bf         1   UNL       o24        25    -0.60454       15.9990 ; qtot   -2.611
        26           c25bf         1   UNL       c25        26     0.02376       12.0110 ; qtot   -2.587
        27           s26bf         1   UNL       s26        27    -0.32180       32.0670 ; qtot   -2.909
        28           h27bf         1   UNL       h27        28     0.13288        1.0080 ; qtot   -2.776
        29           h28bf         1   UNL       h28        29     0.15308        1.0080 ; qtot   -2.623
        30           h29bf         1   UNL       h29        30     0.05043        1.0080 ; qtot   -2.572
        31           h30bf         1   UNL       h30        31     0.05043        1.0080 ; qtot   -2.522
        32           h31bf         1   UNL       h31        32     0.05043        1.0080 ; qtot   -2.471
        33           h32bf         1   UNL       h32        33     0.31990        1.0080 ; qtot   -2.151
        34           h33bf         1   UNL       h33        34     0.04818        1.0080 ; qtot   -2.103
        35           h34bf         1   UNL       h34        35     0.04818        1.0080 ; qtot   -2.055
        36           h35bf         1   UNL       h35        36     0.04818        1.0080 ; qtot   -2.007
        37           h36bf         1   UNL       h36        37     0.16450        1.0080 ; qtot   -1.842
        38           h37bf         1   UNL       h37        38     0.42848        1.0080 ; qtot   -1.414
        39           h38bf         1   UNL       h38        39     0.42848        1.0080 ; qtot   -0.985
        40           h39bf         1   UNL       h39        40     0.05830        1.0080 ; qtot   -0.927
        41           h40bf         1   UNL       h40        41     0.05830        1.0080 ; qtot   -0.869
        42           h41bf         1   UNL       h41        42     0.05712        1.0080 ; qtot   -0.812
        43           h42bf         1   UNL       h42        43     0.05712        1.0080 ; qtot   -0.755
        44           h43bf         1   UNL       h43        44     0.05813        1.0080 ; qtot   -0.696
        45           h44bf         1   UNL       h44        45     0.05813        1.0080 ; qtot   -0.638
        46           h45bf         1   UNL       h45        46     0.32118        1.0080 ; qtot   -0.317
        47           h46bf         1   UNL       h46        47     0.07275        1.0080 ; qtot   -0.244
        48           h47bf         1   UNL       h47        48     0.07275        1.0080 ; qtot   -0.172
        49           h48bf         1   UNL       h48        49     0.08580        1.0080 ; qtot   -0.086
        50           h49bf         1   UNL       h49        50     0.08583        1.0080 ; qtot   -0.000

[ bonds ]
;       ai        aj funct               r               k
         1         2     1        0.140882   327170.949561    ;  uncertainty r = 0.000085, k = 6.538525
         1         6     1        0.139704   340097.502344    ;  uncertainty r = 0.000105, k = 3.696929
         1        12     1        0.148113   271130.375928    ;  uncertainty r = 0.000138, k = 7.011452
         2         3     1        0.139953   351815.766797    ;  uncertainty r = 0.000065, k = 3.258894
         2        11     1        0.151213   233018.742822    ;  uncertainty r = 0.000030, k = 2.477928
         3         4     1        0.139953   350886.420312    ;  uncertainty r = 0.000046, k = 2.256508
         3        28     1        0.108841   333904.472412    ;  uncertainty r = 0.000022, k = 1.910556
         4         5     1        0.140859   333663.912842    ;  uncertainty r = 0.000105, k = 10.508905
         4         8     1        0.151319   234501.606152    ;  uncertainty r = 0.000039, k = 4.763807
         5         6     1        0.139722   346890.526660    ;  uncertainty r = 0.000117, k = 4.085460
         5         7     1        0.150123   250943.188818    ;  uncertainty r = 0.000060, k = 14.156713
         6        29     1        0.108647   332145.272021    ;  uncertainty r = 0.000028, k = 2.025062
         7         9     1        0.123703   768632.414941    ;  uncertainty r = 0.000039, k = 7.991164
         7        10     1        0.137425   289170.734863    ;  uncertainty r = 0.000110, k = 14.516622
         8        30     1        0.109434   309432.413721    ;  uncertainty r = 0.000007, k = 1.462291
         8        31     1        0.109434   309432.413721    ;  uncertainty r = 0.000007, k = 1.462291
         8        32     1        0.109434   309432.413721    ;  uncertainty r = 0.000007, k = 1.462291
        10        19     1        0.145444   252842.715625    ;  uncertainty r = 0.000062, k = 7.557727
        10        33     1        0.101445   418064.008252    ;  uncertainty r = 0.000036, k = 2.247490
        11        34     1        0.109452   309284.681543    ;  uncertainty r = 0.000013, k = 1.664185
        11        35     1        0.109452   309284.681543    ;  uncertainty r = 0.000013, k = 1.664185
        11        36     1        0.109452   309284.681543    ;  uncertainty r = 0.000013, k = 1.664185
        12        13     1        0.141210   407119.543750    ;  uncertainty r = 0.000180, k = 15.265442
        12        17     1        0.135329   439052.830762    ;  uncertainty r = 0.000115, k = 9.016592
        13        14     1        0.141465   403290.126514    ;  uncertainty r = 0.000088, k = 10.781670
        13        37     1        0.108878   346846.653906    ;  uncertainty r = 0.000084, k = 3.115927
        14        15     1        0.134890   427176.670361    ;  uncertainty r = 0.000294, k = 11.965192
        14        27     1        0.177974   201565.247021    ;  uncertainty r = 0.000087, k = 10.958620
        15        16     1        0.137558   542490.994434    ;  uncertainty r = 0.000154, k = 5.218690
        16        17     1        0.137364   540919.389648    ;  uncertainty r = 0.000168, k = 14.207862
        16        18     1        0.141745   595578.354590    ;  uncertainty r = 0.000249, k = 17.463644
        18        38     1        0.102337   440328.154004    ;  uncertainty r = 0.000034, k = 2.569297
        18        39     1        0.102337   440328.154004    ;  uncertainty r = 0.000034, k = 2.569297
        19        20     1        0.153426   210603.276929    ;  uncertainty r = 0.000067, k = 4.158909
        19        40     1        0.109436   304980.606055    ;  uncertainty r = 0.000016, k = 2.282473
        19        41     1        0.109436   304980.606055    ;  uncertainty r = 0.000016, k = 2.282473
        20        21     1        0.153417   210918.826221    ;  uncertainty r = 0.000058, k = 4.574289
        20        42     1        0.109668   309176.914941    ;  uncertainty r = 0.000022, k = 1.877231
        20        43     1        0.109668   309176.914941    ;  uncertainty r = 0.000022, k = 1.877231
        21        22     1        0.145547   252203.470703    ;  uncertainty r = 0.000041, k = 6.337694
        21        44     1        0.109441   305412.796094    ;  uncertainty r = 0.000022, k = 1.952095
        21        45     1        0.109441   305412.796094    ;  uncertainty r = 0.000022, k = 1.952095
        22        23     1        0.137080   310494.987305    ;  uncertainty r = 0.000067, k = 19.642827
        22        46     1        0.101573   419430.192529    ;  uncertainty r = 0.000039, k = 1.853529
        23        24     1        0.152744   206178.576904    ;  uncertainty r = 0.000106, k = 5.902195
        23        25     1        0.123922   721996.750098    ;  uncertainty r = 0.000065, k = 7.278499
        24        26     1        0.153155   207394.973267    ;  uncertainty r = 0.000117, k = 9.727118
        24        47     1        0.109670   314077.358545    ;  uncertainty r = 0.000034, k = 3.210032
        24        48     1        0.109670   314077.358545    ;  uncertainty r = 0.000034, k = 3.210032
        26        27     1        0.182543   143136.187549    ;  uncertainty r = 0.000106, k = 5.736074
        26        49     1        0.109358   311881.780029    ;  uncertainty r = 0.000023, k = 2.336727
        26        50     1        0.109358   311881.780029    ;  uncertainty r = 0.000023, k = 2.336727

[ angles ]
;       ai        aj        ak funct           theta             cth
         1         2         3     1      120.753174      474.686598    ;  uncertainty theta = 0.004340, k = 0.094989
         1         2        11     1      119.128822      420.764034    ;  uncertainty theta = 0.002445, k = 0.071083
         1         6         5     1      124.862206      499.151851    ;  uncertainty theta = 0.005075, k = 0.221244
         1         6        29     1      117.866295      266.681863    ;  uncertainty theta = 0.002976, k = 0.049199
         1        12        13     1      121.657425      384.477206    ;  uncertainty theta = 0.004376, k = 0.212545
         1        12        17     1      118.722435      456.588385    ;  uncertainty theta = 0.006027, k = 0.137464
         2         1         6     1      123.186401      441.700984    ;  uncertainty theta = 0.004492, k = 0.140461
         2         1        12     1      118.064682      376.890514    ;  uncertainty theta = 0.003099, k = 0.175737
         2         3         4     1      125.297134      513.249772    ;  uncertainty theta = 0.002892, k = 0.237668
         2         3        28     1      117.784286      271.435053    ;  uncertainty theta = 0.002711, k = 0.093506
         2        11        34     1      109.959473      397.168288    ;  uncertainty theta = 0.000612, k = 0.029890
         2        11        35     1      109.959473      397.168288    ;  uncertainty theta = 0.000612, k = 0.029890
         2        11        36     1      109.959473      397.168288    ;  uncertainty theta = 0.000612, k = 0.029890
         3         2        11     1      119.996231      423.436014    ;  uncertainty theta = 0.003971, k = 0.196746
         3         4         5     1      120.777237      471.449514    ;  uncertainty theta = 0.003662, k = 0.143449
         3         4         8     1      120.083435      426.568364    ;  uncertainty theta = 0.002932, k = 0.102635
         4         3        28     1      117.714882      270.893762    ;  uncertainty theta = 0.003071, k = 0.062141
         4         5         6     1      123.913330      456.178993    ;  uncertainty theta = 0.003292, k = 0.085311
         4         5         7     1      118.850990      358.560966    ;  uncertainty theta = 0.003230, k = 0.182594
         4         8        30     1      109.922974      398.236665    ;  uncertainty theta = 0.000943, k = 0.033247
         4         8        31     1      109.922974      398.236665    ;  uncertainty theta = 0.000943, k = 0.033247
         4         8        32     1      109.922974      398.236665    ;  uncertainty theta = 0.000943, k = 0.033247
         5         4         8     1      119.429321      418.786728    ;  uncertainty theta = 0.003983, k = 0.060283
         5         6        29     1      118.713234      265.619439    ;  uncertainty theta = 0.004990, k = 0.134617
         5         7         9     1      123.669945      496.521274    ;  uncertainty theta = 0.004116, k = 0.105728
         5         7        10     1      114.854980      442.416215    ;  uncertainty theta = 0.004220, k = 0.160602
         6         1        12     1      116.583054      410.408257    ;  uncertainty theta = 0.002939, k = 0.126074
         6         5         7     1      117.330162      389.195219    ;  uncertainty theta = 0.003239, k = 0.114448
         7        10        19     1      116.211647      438.183152    ;  uncertainty theta = 0.002874, k = 0.072318
         7        10        33     1      115.902184      338.836837    ;  uncertainty theta = 0.003810, k = 0.129567
         9         7        10     1      123.605545      799.245127    ;  uncertainty theta = 0.004472, k = 0.093093
        10        19        20     1      110.923561      646.271074    ;  uncertainty theta = 0.001526, k = 0.094708
        10        19        40     1      106.782944      455.379777    ;  uncertainty theta = 0.001670, k = 0.044012
        10        19        41     1      106.782944      455.379777    ;  uncertainty theta = 0.001670, k = 0.044012
        12        13        14     1      117.650070      475.801804    ;  uncertainty theta = 0.009226, k = 0.235920
        12        13        37     1      122.563965      271.454110    ;  uncertainty theta = 0.001942, k = 0.148018
        12        17        16     1      118.019913      419.922937    ;  uncertainty theta = 0.012094, k = 0.149856
        13        12        17     1      120.971176      607.295125    ;  uncertainty theta = 0.002916, k = 0.202413
        13        14        15     1      121.630531      596.003062    ;  uncertainty theta = 0.005050, k = 0.208466
        13        14        27     1      122.624107      361.359610    ;  uncertainty theta = 0.003579, k = 0.148730
        14        13        37     1      123.592331      281.593300    ;  uncertainty theta = 0.004979, k = 0.089867
        14        15        16     1      118.044838      412.559248    ;  uncertainty theta = 0.012437, k = 0.153794
        14        27        26     1       96.819214      607.135965    ;  uncertainty theta = 0.002591, k = 0.067659
        15        14        27     1      120.168930      439.615049    ;  uncertainty theta = 0.008253, k = 0.187492
        15        16        17     1      128.344269      770.754779    ;  uncertainty theta = 0.008103, k = 0.081884
        15        16        18     1      124.933334      825.352225    ;  uncertainty theta = 0.007353, k = 0.033826
        16        18        38     1      119.581749      466.558040    ;  uncertainty theta = 0.002457, k = 0.016330
        16        18        39     1      119.581749      466.558040    ;  uncertainty theta = 0.002457, k = 0.016330
        17        16        18     1      125.124306      822.300285    ;  uncertainty theta = 0.006594, k = 0.055886
        19        10        33     1      111.765427      330.037963    ;  uncertainty theta = 0.003503, k = 0.071661
        19        20        21     1      110.066467      558.104779    ;  uncertainty theta = 0.001887, k = 0.122207
        19        20        42     1      107.285477      399.168450    ;  uncertainty theta = 0.001323, k = 0.053807
        19        20        43     1      107.285477      399.168450    ;  uncertainty theta = 0.001323, k = 0.053807
        20        19        40     1      108.334068      398.043444    ;  uncertainty theta = 0.001357, k = 0.058627
        20        19        41     1      108.334068      398.043444    ;  uncertainty theta = 0.001357, k = 0.058627
        20        21        22     1      110.866638      645.683019    ;  uncertainty theta = 0.001025, k = 0.075426
        20        21        44     1      108.302979      399.754878    ;  uncertainty theta = 0.001503, k = 0.050111
        20        21        45     1      108.302979      399.754878    ;  uncertainty theta = 0.001503, k = 0.050111
        21        20        42     1      107.284119      399.033678    ;  uncertainty theta = 0.001408, k = 0.056085
        21        20        43     1      107.284119      399.033678    ;  uncertainty theta = 0.001408, k = 0.056085
        21        22        23     1      116.306419      429.328797    ;  uncertainty theta = 0.003201, k = 0.098566
        21        22        46     1      111.664780      322.597055    ;  uncertainty theta = 0.003588, k = 0.035256
        22        21        44     1      106.578041      454.912544    ;  uncertainty theta = 0.001706, k = 0.033217
        22        21        45     1      106.578041      454.912544    ;  uncertainty theta = 0.001706, k = 0.033217
        22        23        24     1      113.653183      484.157291    ;  uncertainty theta = 0.002709, k = 0.081999
        22        23        25     1      124.313454      759.382848    ;  uncertainty theta = 0.002107, k = 0.058198
        23        22        46     1      114.376183      344.612055    ;  uncertainty theta = 0.001466, k = 0.051788
        23        24        26     1      109.340210      482.061779    ;  uncertainty theta = 0.002293, k = 0.167380
        23        24        47     1      107.316750      366.819317    ;  uncertainty theta = 0.002409, k = 0.091429
        23        24        48     1      107.316750      366.819317    ;  uncertainty theta = 0.002409, k = 0.091429
        24        23        25     1      123.802513      539.488035    ;  uncertainty theta = 0.003441, k = 0.088195
        24        26        27     1      109.376663      493.135372    ;  uncertainty theta = 0.000780, k = 0.102360
        24        26        49     1      109.208633      393.858774    ;  uncertainty theta = 0.000539, k = 0.060232
        24        26        50     1      109.208633      393.858774    ;  uncertainty theta = 0.000539, k = 0.060232
        26        24        47     1      108.200851      396.325563    ;  uncertainty theta = 0.002277, k = 0.065393
        26        24        48     1      108.200851      396.325563    ;  uncertainty theta = 0.002277, k = 0.065393
        27        26        49     1      104.927200      355.380607    ;  uncertainty theta = 0.001235, k = 0.051559
        27        26        50     1      104.927200      355.380607    ;  uncertainty theta = 0.001235, k = 0.051559
        30         8        31     1      106.699974      316.272854    ;  uncertainty theta = 0.001469, k = 0.029784
        30         8        32     1      106.699974      316.272854    ;  uncertainty theta = 0.001469, k = 0.029784
        31         8        32     1      106.699974      316.272854    ;  uncertainty theta = 0.001469, k = 0.029784
        34        11        35     1      106.694153      317.150501    ;  uncertainty theta = 0.001181, k = 0.025577
        34        11        36     1      106.694153      317.150501    ;  uncertainty theta = 0.001181, k = 0.025577
        35        11        36     1      106.694153      317.150501    ;  uncertainty theta = 0.001181, k = 0.025577
        38        18        39     1      107.563583      266.929493    ;  uncertainty theta = 0.002389, k = 0.038827
        40        19        41     1      105.708153      318.093235    ;  uncertainty theta = 0.001512, k = 0.024682
        42        20        43     1      105.364990      315.701844    ;  uncertainty theta = 0.001898, k = 0.052365
        44        21        45     1      105.708534      319.029489    ;  uncertainty theta = 0.001873, k = 0.022100
        47        24        48     1      105.777725      317.497710    ;  uncertainty theta = 0.001247, k = 0.031511
        49        26        50     1      106.539658      308.688684    ;  uncertainty theta = 0.000732, k = 0.058370

[ dihedrals ] ; propers for gromacs 4.5 or higher, use funct 9
;       ai        aj        ak        al funct           phase               k        pn
         1         2         3         4     9        0.000000        0.120989         1    ;  uncertainty k = 0.163056
         1         2         3         4     9      180.000000        9.133686         2    ;  uncertainty k = 0.403976
         1         2         3         4     9        0.000000        0.463939         3    ;  uncertainty k = 0.225463
         1         2         3         4     9      180.000000        1.306232         4    ;  uncertainty k = 0.304877
         1         2         3        28     9        0.000000        0.049791         1    ;  uncertainty k = 0.327309
         1         2         3        28     9      180.000000        7.619663         2    ;  uncertainty k = 0.208800
         1         2         3        28     9        0.000000        1.533596         3    ;  uncertainty k = 0.171230
         1         2         3        28     9      180.000000        1.687882         4    ;  uncertainty k = 0.169017
         1         2        11        34     9        0.000000        0.187272         1    ;  uncertainty k = 0.130961
         1         2        11        34     9      180.000000        2.104009         2    ;  uncertainty k = 0.296373
         1         2        11        34     9        0.000000        0.406291         3    ;  uncertainty k = 0.078213
         1         2        11        34     9      180.000000        0.330437         4    ;  uncertainty k = 0.062977
         1         2        11        35     9        0.000000        0.187272         1    ;  uncertainty k = 0.130961
         1         2        11        35     9      180.000000        2.104009         2    ;  uncertainty k = 0.296373
         1         2        11        35     9        0.000000        0.406291         3    ;  uncertainty k = 0.078213
         1         2        11        35     9      180.000000        0.330437         4    ;  uncertainty k = 0.062977
         1         2        11        36     9        0.000000        0.187272         1    ;  uncertainty k = 0.130961
         1         2        11        36     9      180.000000        2.104009         2    ;  uncertainty k = 0.296373
         1         2        11        36     9        0.000000        0.406291         3    ;  uncertainty k = 0.078213
         1         2        11        36     9      180.000000        0.330437         4    ;  uncertainty k = 0.062977
         1         6         5         4     9        0.000000        0.083084         1    ;  uncertainty k = 0.402877
         1         6         5         4     9      180.000000        9.025188         2    ;  uncertainty k = 0.422334
         1         6         5         4     9        0.000000        0.280970         3    ;  uncertainty k = 0.367443
         1         6         5         4     9      180.000000        1.306885         4    ;  uncertainty k = 0.340075
         1         6         5         7     9        0.000000        0.436231         1    ;  uncertainty k = 0.406160
         1         6         5         7     9      180.000000        9.045899         2    ;  uncertainty k = 0.634746
         1         6         5         7     9        0.000000        1.605545         3    ;  uncertainty k = 0.255818
         1         6         5         7     9      180.000000        1.903676         4    ;  uncertainty k = 0.302617
         1        12        13        14     9        0.000000       -0.321431         1    ;  uncertainty k = 0.425463
         1        12        13        14     9      180.000000        7.502171         2    ;  uncertainty k = 0.643996
         1        12        13        14     9        0.000000        0.415911         3    ;  uncertainty k = 0.279451
         1        12        13        14     9      180.000000        1.246044         4    ;  uncertainty k = 0.262634
         1        12        13        37     9        0.000000       -0.176129         1    ;  uncertainty k = 1.100603
         1        12        13        37     9      180.000000        6.574721         2    ;  uncertainty k = 0.250259
         1        12        13        37     9        0.000000        0.676718         3    ;  uncertainty k = 0.315037
         1        12        13        37     9      180.000000        0.972010         4    ;  uncertainty k = 0.229351
         1        12        17        16     9        0.000000        0.244259         1    ;  uncertainty k = 1.146605
         1        12        17        16     9      180.000000       14.966448         2    ;  uncertainty k = 0.593130
         1        12        17        16     9        0.000000        1.746565         3    ;  uncertainty k = 0.718817
         1        12        17        16     9      180.000000        1.264823         4    ;  uncertainty k = 0.354402
         2         1         6         5     9        0.000000        0.069104         1    ;  uncertainty k = 0.294506
         2         1         6         5     9      180.000000        9.027602         2    ;  uncertainty k = 0.516924
         2         1         6         5     9        0.000000        0.262753         3    ;  uncertainty k = 0.150136
         2         1         6         5     9      180.000000        1.215305         4    ;  uncertainty k = 0.287787
         2         1         6        29     9        0.000000        0.146092         1    ;  uncertainty k = 0.191685
         2         1         6        29     9      180.000000        7.352949         2    ;  uncertainty k = 0.378000
         2         1         6        29     9        0.000000        1.303065         3    ;  uncertainty k = 0.212890
         2         1         6        29     9      180.000000        1.632868         4    ;  uncertainty k = 0.164618
         2         1        12        13     9        0.000000        0.447284         1    ;  uncertainty k = 0.610977
         2         1        12        13     9      180.000000        4.912673         2    ;  uncertainty k = 0.231950
         2         1        12        13     9        0.000000        0.006834         3    ;  uncertainty k = 0.169188
         2         1        12        13     9      180.000000        0.234413         4    ;  uncertainty k = 0.197144
         2         1        12        17     9        0.000000        0.851673         1    ;  uncertainty k = 0.848480
         2         1        12        17     9      180.000000        5.463166         2    ;  uncertainty k = 0.281327
         2         1        12        17     9        0.000000        0.953353         3    ;  uncertainty k = 0.304387
         2         1        12        17     9      180.000000        0.208764         4    ;  uncertainty k = 0.056163
         2         3         4         5     9        0.000000       -0.052290         1    ;  uncertainty k = 0.242457
         2         3         4         5     9      180.000000        9.058402         2    ;  uncertainty k = 0.462788
         2         3         4         5     9        0.000000        0.352679         3    ;  uncertainty k = 0.272784
         2         3         4         5     9      180.000000        1.301841         4    ;  uncertainty k = 0.307233
         2         3         4         8     9        0.000000        0.069861         1    ;  uncertainty k = 0.212281
         2         3         4         8     9      180.000000        9.655664         2    ;  uncertainty k = 0.454675
         2         3         4         8     9        0.000000        1.454590         3    ;  uncertainty k = 0.193076
         2         3         4         8     9      180.000000        1.858204         4    ;  uncertainty k = 0.240681
         3         2         1         6     9        0.000000       -0.076243         1    ;  uncertainty k = 0.399614
         3         2         1         6     9      180.000000        7.804226         2    ;  uncertainty k = 0.494137
         3         2         1         6     9        0.000000        0.066313         3    ;  uncertainty k = 0.247156
         3         2         1         6     9      180.000000        1.198985         4    ;  uncertainty k = 0.263589
         3         2         1        12     9        0.000000        0.254921         1    ;  uncertainty k = 0.329271
         3         2         1        12     9      180.000000        7.748454         2    ;  uncertainty k = 0.499817
         3         2         1        12     9        0.000000        1.489991         3    ;  uncertainty k = 0.424879
         3         2         1        12     9      180.000000        1.750060         4    ;  uncertainty k = 0.219442
         3         2        11        34     9        0.000000       -0.167719         1    ;  uncertainty k = 0.181656
         3         2        11        34     9      180.000000        1.776974         2    ;  uncertainty k = 0.164039
         3         2        11        34     9        0.000000        0.426580         3    ;  uncertainty k = 0.080680
         3         2        11        34     9      180.000000        0.263411         4    ;  uncertainty k = 0.013999
         3         2        11        35     9        0.000000       -0.167719         1    ;  uncertainty k = 0.181656
         3         2        11        35     9      180.000000        1.776974         2    ;  uncertainty k = 0.164039
         3         2        11        35     9        0.000000        0.426580         3    ;  uncertainty k = 0.080680
         3         2        11        35     9      180.000000        0.263411         4    ;  uncertainty k = 0.013999
         3         2        11        36     9        0.000000       -0.167719         1    ;  uncertainty k = 0.181656
         3         2        11        36     9      180.000000        1.776974         2    ;  uncertainty k = 0.164039
         3         2        11        36     9        0.000000        0.426580         3    ;  uncertainty k = 0.080680
         3         2        11        36     9      180.000000        0.263411         4    ;  uncertainty k = 0.013999
         3         4         5         6     9        0.000000       -0.293860         1    ;  uncertainty k = 0.135274
         3         4         5         6     9      180.000000        8.125448         2    ;  uncertainty k = 0.357463
         3         4         5         6     9        0.000000       -0.238808         3    ;  uncertainty k = 0.138854
         3         4         5         6     9      180.000000        1.140141         4    ;  uncertainty k = 0.253598
         3         4         5         7     9        0.000000        0.497612         1    ;  uncertainty k = 0.434580
         3         4         5         7     9      180.000000        7.634845         2    ;  uncertainty k = 0.628568
         3         4         5         7     9        0.000000        1.636562         3    ;  uncertainty k = 0.315050
         3         4         5         7     9      180.000000        1.761964         4    ;  uncertainty k = 0.263641
         3         4         8        30     9        0.000000       -0.205924         1    ;  uncertainty k = 0.272589
         3         4         8        30     9      180.000000        1.837765         2    ;  uncertainty k = 0.160457
         3         4         8        30     9        0.000000        0.442311         3    ;  uncertainty k = 0.068830
         3         4         8        30     9      180.000000        0.263728         4    ;  uncertainty k = 0.017497
         3         4         8        31     9        0.000000       -0.205924         1    ;  uncertainty k = 0.272589
         3         4         8        31     9      180.000000        1.837765         2    ;  uncertainty k = 0.160457
         3         4         8        31     9        0.000000        0.442311         3    ;  uncertainty k = 0.068830
         3         4         8        31     9      180.000000        0.263728         4    ;  uncertainty k = 0.017497
         3         4         8        32     9        0.000000       -0.205924         1    ;  uncertainty k = 0.272589
         3         4         8        32     9      180.000000        1.837765         2    ;  uncertainty k = 0.160457
         3         4         8        32     9        0.000000        0.442311         3    ;  uncertainty k = 0.068830
         3         4         8        32     9      180.000000        0.263728         4    ;  uncertainty k = 0.017497
         4         3         2        11     9        0.000000        0.107277         1    ;  uncertainty k = 0.249614
         4         3         2        11     9      180.000000        9.350175         2    ;  uncertainty k = 0.482290
         4         3         2        11     9        0.000000        1.504012         3    ;  uncertainty k = 0.236517
         4         3         2        11     9      180.000000        1.867249         4    ;  uncertainty k = 0.225363
         4         5         6        29     9        0.000000        0.211412         1    ;  uncertainty k = 0.226074
         4         5         6        29     9      180.000000        7.483476         2    ;  uncertainty k = 0.410379
         4         5         6        29     9        0.000000        1.278343         3    ;  uncertainty k = 0.298338
         4         5         6        29     9      180.000000        1.702003         4    ;  uncertainty k = 0.237390
         4         5         7         9     9        0.000000       -1.052433         1    ;  uncertainty k = 0.231620
         4         5         7         9     9      180.000000        4.699884         2    ;  uncertainty k = 0.244713
         4         5         7         9     9        0.000000        0.452944         3    ;  uncertainty k = 0.156371
         4         5         7         9     9      180.000000        0.295001         4    ;  uncertainty k = 0.085971
         4         5         7        10     9        0.000000        0.990771         1    ;  uncertainty k = 0.573858
         4         5         7        10     9      180.000000        2.188522         2    ;  uncertainty k = 0.158101
         4         5         7        10     9        0.000000        0.012578         3    ;  uncertainty k = 0.077265
         4         5         7        10     9      180.000000       -0.103645         4    ;  uncertainty k = 0.019472
         5         4         3        28     9        0.000000       -0.021992         1    ;  uncertainty k = 0.438519
         5         4         3        28     9      180.000000        7.621873         2    ;  uncertainty k = 0.302747
         5         4         3        28     9        0.000000        1.443736         3    ;  uncertainty k = 0.167878
         5         4         3        28     9      180.000000        1.658515         4    ;  uncertainty k = 0.166420
         5         4         8        30     9        0.000000        0.386702         1    ;  uncertainty k = 0.220848
         5         4         8        30     9      180.000000        2.106355         2    ;  uncertainty k = 0.214833
         5         4         8        30     9        0.000000        0.232895         3    ;  uncertainty k = 0.123793
         5         4         8        30     9      180.000000        0.310411         4    ;  uncertainty k = 0.098103
         5         4         8        31     9        0.000000        0.386702         1    ;  uncertainty k = 0.220848
         5         4         8        31     9      180.000000        2.106355         2    ;  uncertainty k = 0.214833
         5         4         8        31     9        0.000000        0.232895         3    ;  uncertainty k = 0.123793
         5         4         8        31     9      180.000000        0.310411         4    ;  uncertainty k = 0.098103
         5         4         8        32     9        0.000000        0.386702         1    ;  uncertainty k = 0.220848
         5         4         8        32     9      180.000000        2.106355         2    ;  uncertainty k = 0.214833
         5         4         8        32     9        0.000000        0.232895         3    ;  uncertainty k = 0.123793
         5         4         8        32     9      180.000000        0.310411         4    ;  uncertainty k = 0.098103
         5         6         1        12     9        0.000000        0.130924         1    ;  uncertainty k = 0.371581
         5         6         1        12     9      180.000000        8.546798         2    ;  uncertainty k = 0.605432
         5         6         1        12     9        0.000000        1.271687         3    ;  uncertainty k = 0.216950
         5         6         1        12     9      180.000000        1.841879         4    ;  uncertainty k = 0.206974
         5         7        10        19     9        0.000000        5.556307         1    ;  uncertainty k = 1.453441
         5         7        10        19     9      180.000000       11.787232         2    ;  uncertainty k = 0.186742
         5         7        10        19     9        0.000000        1.959699         3    ;  uncertainty k = 0.524618
         5         7        10        19     9      180.000000       -1.129235         4    ;  uncertainty k = 0.299087
         5         7        10        33     9        0.000000        0.478633         1    ;  uncertainty k = 0.909583
         5         7        10        33     9      180.000000        6.925557         2    ;  uncertainty k = 0.589234
         5         7        10        33     9        0.000000        2.447913         3    ;  uncertainty k = 0.227096
         5         7        10        33     9      180.000000        0.115013         4    ;  uncertainty k = 0.259554
         6         1         2        11     9        0.000000        0.164623         1    ;  uncertainty k = 0.306764
         6         1         2        11     9      180.000000        7.368151         2    ;  uncertainty k = 0.647968
         6         1         2        11     9        0.000000        1.147781         3    ;  uncertainty k = 0.239171
         6         1         2        11     9      180.000000        1.748949         4    ;  uncertainty k = 0.286244
         6         1        12        13     9        0.000000       -0.403685         1    ;  uncertainty k = 0.378954
         6         1        12        13     9      180.000000        4.646323         2    ;  uncertainty k = 0.375311
         6         1        12        13     9        0.000000        0.685819         3    ;  uncertainty k = 0.125056
         6         1        12        13     9      180.000000        0.112451         4    ;  uncertainty k = 0.088369
         6         1        12        17     9        0.000000        1.852279         1    ;  uncertainty k = 0.649017
         6         1        12        17     9      180.000000        5.604551         2    ;  uncertainty k = 0.245135
         6         1        12        17     9        0.000000        0.521423         3    ;  uncertainty k = 0.209853
         6         1        12        17     9      180.000000        0.187317         4    ;  uncertainty k = 0.055643
         6         5         4         8     9        0.000000        0.194023         1    ;  uncertainty k = 0.342997
         6         5         4         8     9      180.000000        7.567417         2    ;  uncertainty k = 0.477879
         6         5         4         8     9        0.000000        1.166845         3    ;  uncertainty k = 0.220532
         6         5         4         8     9      180.000000        1.755343         4    ;  uncertainty k = 0.239591
         6         5         7         9     9        0.000000        0.353812         1    ;  uncertainty k = 0.490479
         6         5         7         9     9      180.000000        4.378267         2    ;  uncertainty k = 0.288748
         6         5         7         9     9        0.000000        0.473604         3    ;  uncertainty k = 0.176365
         6         5         7         9     9      180.000000        0.202567         4    ;  uncertainty k = 0.090163
         6         5         7        10     9        0.000000       -0.528276         1    ;  uncertainty k = 0.696607
         6         5         7        10     9      180.000000        2.614884         2    ;  uncertainty k = 0.255789
         6         5         7        10     9        0.000000        0.296659         3    ;  uncertainty k = 0.127288
         6         5         7        10     9      180.000000       -0.115362         4    ;  uncertainty k = 0.103034
         7         5         4         8     9        0.000000       -0.159033         1    ;  uncertainty k = 0.539980
         7         5         4         8     9      180.000000       10.114389         2    ;  uncertainty k = 0.361783
         7         5         4         8     9        0.000000        1.290404         3    ;  uncertainty k = 0.313631
         7         5         4         8     9      180.000000        1.314322         4    ;  uncertainty k = 0.286656
         7         5         6        29     9        0.000000       -0.135871         1    ;  uncertainty k = 0.590358
         7         5         6        29     9      180.000000        8.857632         2    ;  uncertainty k = 0.679599
         7         5         6        29     9        0.000000        1.159803         3    ;  uncertainty k = 0.110877
         7         5         6        29     9      180.000000        1.268814         4    ;  uncertainty k = 0.381258
         7        10        19        20     9        0.000000       -0.728798         1    ;  uncertainty k = 0.211218
         7        10        19        20     9      180.000000       -0.099144         2    ;  uncertainty k = 0.282469
         7        10        19        20     9        0.000000        0.268474         3    ;  uncertainty k = 0.100314
         7        10        19        20     9      180.000000        0.365196         4    ;  uncertainty k = 0.038169
         7        10        19        40     9        0.000000        0.791147         1    ;  uncertainty k = 0.252099
         7        10        19        40     9      180.000000       -0.471181         2    ;  uncertainty k = 0.212364
         7        10        19        40     9        0.000000        0.316912         3    ;  uncertainty k = 0.054604
         7        10        19        40     9      180.000000        0.308530         4    ;  uncertainty k = 0.066117
         7        10        19        41     9        0.000000        0.791147         1    ;  uncertainty k = 0.252099
         7        10        19        41     9      180.000000       -0.471181         2    ;  uncertainty k = 0.212364
         7        10        19        41     9        0.000000        0.316912         3    ;  uncertainty k = 0.054604
         7        10        19        41     9      180.000000        0.308530         4    ;  uncertainty k = 0.066117
         8         4         3        28     9        0.000000       -0.270138         1    ;  uncertainty k = 0.463150
         8         4         3        28     9      180.000000        8.731838         2    ;  uncertainty k = 0.254873
         8         4         3        28     9        0.000000        0.437392         3    ;  uncertainty k = 0.195641
         8         4         3        28     9      180.000000        1.095686         4    ;  uncertainty k = 0.166265
         9         7        10        19     9        0.000000        3.174214         1    ;  uncertainty k = 0.645432
         9         7        10        19     9      180.000000       12.720372         2    ;  uncertainty k = 0.250290
         9         7        10        19     9        0.000000        0.190383         3    ;  uncertainty k = 0.392518
         9         7        10        19     9      180.000000        0.188683         4    ;  uncertainty k = 0.227859
         9         7        10        33     9        0.000000        3.006291         1    ;  uncertainty k = 0.748745
         9         7        10        33     9      180.000000       15.317029         2    ;  uncertainty k = 0.154871
         9         7        10        33     9        0.000000        1.649617         3    ;  uncertainty k = 0.296949
         9         7        10        33     9      180.000000       -0.328498         4    ;  uncertainty k = 0.196716
        10        19        20        21     9        0.000000       -5.183942         1    ;  uncertainty k = 0.932328
        10        19        20        21     9      180.000000       -1.020424         2    ;  uncertainty k = 0.393512
        10        19        20        21     9        0.000000        1.737591         3    ;  uncertainty k = 0.184774
        10        19        20        21     9      180.000000       -0.417969         4    ;  uncertainty k = 0.132799
        10        19        20        42     9        0.000000       -0.542462         1    ;  uncertainty k = 0.360745
        10        19        20        42     9      180.000000       -2.075631         2    ;  uncertainty k = 0.346969
        10        19        20        42     9        0.000000        1.389521         3    ;  uncertainty k = 0.140507
        10        19        20        42     9      180.000000       -0.100638         4    ;  uncertainty k = 0.086511
        10        19        20        43     9        0.000000       -0.542462         1    ;  uncertainty k = 0.360745
        10        19        20        43     9      180.000000       -2.075631         2    ;  uncertainty k = 0.346969
        10        19        20        43     9        0.000000        1.389521         3    ;  uncertainty k = 0.140507
        10        19        20        43     9      180.000000       -0.100638         4    ;  uncertainty k = 0.086511
        11         2         1        12     9        0.000000       -0.082162         1    ;  uncertainty k = 0.442117
        11         2         1        12     9      180.000000        9.076237         2    ;  uncertainty k = 0.262776
        11         2         1        12     9        0.000000        0.953189         3    ;  uncertainty k = 0.211610
        11         2         1        12     9      180.000000        1.367324         4    ;  uncertainty k = 0.160890
        11         2         3        28     9        0.000000       -0.286976         1    ;  uncertainty k = 0.403136
        11         2         3        28     9      180.000000        8.721450         2    ;  uncertainty k = 0.323593
        11         2         3        28     9        0.000000        0.417568         3    ;  uncertainty k = 0.150482
        11         2         3        28     9      180.000000        1.068619         4    ;  uncertainty k = 0.186229
        12         1         6        29     9        0.000000       -0.177779         1    ;  uncertainty k = 0.112354
        12         1         6        29     9      180.000000        8.085669         2    ;  uncertainty k = 0.253886
        12         1         6        29     9        0.000000        0.902999         3    ;  uncertainty k = 0.158446
        12         1         6        29     9      180.000000        1.424820         4    ;  uncertainty k = 0.123998
        12        13        14        15     9        0.000000       -0.159512         1    ;  uncertainty k = 0.109282
        12        13        14        15     9      180.000000       10.254345         2    ;  uncertainty k = 0.460793
        12        13        14        15     9        0.000000       -1.053061         3    ;  uncertainty k = 0.573542
        12        13        14        15     9      180.000000        1.089129         4    ;  uncertainty k = 0.164375
        12        13        14        27     9        0.000000       -0.541121         1    ;  uncertainty k = 0.646060
        12        13        14        27     9      180.000000        5.897745         2    ;  uncertainty k = 0.791274
        12        13        14        27     9        0.000000        0.219695         3    ;  uncertainty k = 0.303087
        12        13        14        27     9      180.000000        1.170261         4    ;  uncertainty k = 0.332911
        12        17        16        15     9        0.000000       -0.855546         1    ;  uncertainty k = 1.109168
        12        17        16        15     9      180.000000        7.367040         2    ;  uncertainty k = 0.707693
        12        17        16        15     9        0.000000        0.687892         3    ;  uncertainty k = 0.621250
        12        17        16        15     9      180.000000        0.883129         4    ;  uncertainty k = 0.262426
        12        17        16        18     9        0.000000        0.040992         1    ;  uncertainty k = 0.983445
        12        17        16        18     9      180.000000       10.552957         2    ;  uncertainty k = 0.579623
        12        17        16        18     9        0.000000        2.430816         3    ;  uncertainty k = 0.611975
        12        17        16        18     9      180.000000        1.248464         4    ;  uncertainty k = 0.285283
        13        12        17        16     9        0.000000       -0.245873         1    ;  uncertainty k = 0.321293
        13        12        17        16     9      180.000000       14.375313         2    ;  uncertainty k = 0.447580
        13        12        17        16     9        0.000000        0.230924         3    ;  uncertainty k = 0.672372
        13        12        17        16     9      180.000000        1.083894         4    ;  uncertainty k = 0.192499
        13        14        15        16     9        0.000000       -0.487495         1    ;  uncertainty k = 0.442808
        13        14        15        16     9      180.000000       12.826187         2    ;  uncertainty k = 0.436539
        13        14        15        16     9        0.000000        0.012124         3    ;  uncertainty k = 0.899535
        13        14        15        16     9      180.000000        1.102264         4    ;  uncertainty k = 0.244922
        13        14        27        26     9        0.000000        1.667661         1    ;  uncertainty k = 1.116089
        13        14        27        26     9      180.000000        7.374763         2    ;  uncertainty k = 0.299740
        13        14        27        26     9        0.000000       -0.307042         3    ;  uncertainty k = 0.204327
        13        14        27        26     9      180.000000        0.230352         4    ;  uncertainty k = 0.164555
        14        13        12        17     9        0.000000       -0.131464         1    ;  uncertainty k = 0.390101
        14        13        12        17     9      180.000000       12.039285         2    ;  uncertainty k = 0.566223
        14        13        12        17     9        0.000000       -1.052560         3    ;  uncertainty k = 0.636511
        14        13        12        17     9      180.000000        1.039436         4    ;  uncertainty k = 0.231891
        14        15        16        17     9        0.000000       -0.661864         1    ;  uncertainty k = 0.730979
        14        15        16        17     9      180.000000        8.257174         2    ;  uncertainty k = 0.921146
        14        15        16        17     9        0.000000        0.726787         3    ;  uncertainty k = 0.507850
        14        15        16        17     9      180.000000        0.772100         4    ;  uncertainty k = 0.189803
        14        15        16        18     9        0.000000        0.278320         1    ;  uncertainty k = 1.183323
        14        15        16        18     9      180.000000       11.383611         2    ;  uncertainty k = 0.722059
        14        15        16        18     9        0.000000        2.453335         3    ;  uncertainty k = 0.665336
        14        15        16        18     9      180.000000        1.139461         4    ;  uncertainty k = 0.398377
        14        27        26        24     9        0.000000       -0.696198         1    ;  uncertainty k = 0.777658
        14        27        26        24     9      180.000000       -3.575748         2    ;  uncertainty k = 1.009741
        14        27        26        24     9        0.000000        1.174051         3    ;  uncertainty k = 0.296833
        14        27        26        24     9      180.000000        0.424333         4    ;  uncertainty k = 0.133703
        14        27        26        49     9        0.000000        4.562040         1    ;  uncertainty k = 0.243773
        14        27        26        49     9      180.000000       -2.733904         2    ;  uncertainty k = 0.571798
        14        27        26        49     9        0.000000        0.236269         3    ;  uncertainty k = 0.156152
        14        27        26        49     9      180.000000        0.041900         4    ;  uncertainty k = 0.129416
        14        27        26        50     9        0.000000        4.562040         1    ;  uncertainty k = 0.243773
        14        27        26        50     9      180.000000       -2.733904         2    ;  uncertainty k = 0.571798
        14        27        26        50     9        0.000000        0.236269         3    ;  uncertainty k = 0.156152
        14        27        26        50     9      180.000000        0.041900         4    ;  uncertainty k = 0.129416
        15        14        13        37     9        0.000000        0.161171         1    ;  uncertainty k = 0.562370
        15        14        13        37     9      180.000000        7.820185         2    ;  uncertainty k = 0.406742
        15        14        13        37     9        0.000000        1.295959         3    ;  uncertainty k = 0.377810
        15        14        13        37     9      180.000000        1.552236         4    ;  uncertainty k = 0.083705
        15        14        27        26     9        0.000000        6.456724         1    ;  uncertainty k = 0.557929
        15        14        27        26     9      180.000000        9.239847         2    ;  uncertainty k = 0.286269
        15        14        27        26     9        0.000000        0.699107         3    ;  uncertainty k = 0.102948
        15        14        27        26     9      180.000000        0.255685         4    ;  uncertainty k = 0.161668
        15        16        18        38     9        0.000000       22.495917         1    ;  uncertainty k = 0.139710
        15        16        18        38     9      180.000000       10.768504         2    ;  uncertainty k = 0.192224
        15        16        18        38     9        0.000000        0.974515         3    ;  uncertainty k = 0.097047
        15        16        18        38     9      180.000000       -0.453195         4    ;  uncertainty k = 0.113550
        15        16        18        39     9        0.000000       22.495917         1    ;  uncertainty k = 0.139710
        15        16        18        39     9      180.000000       10.768504         2    ;  uncertainty k = 0.192224
        15        16        18        39     9        0.000000        0.974515         3    ;  uncertainty k = 0.097047
        15        16        18        39     9      180.000000       -0.453195         4    ;  uncertainty k = 0.113550
        16        15        14        27     9        0.000000       -0.028644         1    ;  uncertainty k = 1.310742
        16        15        14        27     9      180.000000       13.274325         2    ;  uncertainty k = 0.655880
        16        15        14        27     9        0.000000        1.867809         3    ;  uncertainty k = 0.526636
        16        15        14        27     9      180.000000        1.517117         4    ;  uncertainty k = 0.475136
        17        12        13        37     9        0.000000        0.279760         1    ;  uncertainty k = 0.536195
        17        12        13        37     9      180.000000        8.448364         2    ;  uncertainty k = 0.415812
        17        12        13        37     9        0.000000        1.271394         3    ;  uncertainty k = 0.313689
        17        12        13        37     9      180.000000        1.615723         4    ;  uncertainty k = 0.066846
        17        16        18        38     9        0.000000       21.465241         1    ;  uncertainty k = 0.169086
        17        16        18        38     9      180.000000       10.827138         2    ;  uncertainty k = 0.134815
        17        16        18        38     9        0.000000        0.922758         3    ;  uncertainty k = 0.123938
        17        16        18        38     9      180.000000       -0.407246         4    ;  uncertainty k = 0.151758
        17        16        18        39     9        0.000000       21.465241         1    ;  uncertainty k = 0.169086
        17        16        18        39     9      180.000000       10.827138         2    ;  uncertainty k = 0.134815
        17        16        18        39     9        0.000000        0.922758         3    ;  uncertainty k = 0.123938
        17        16        18        39     9      180.000000       -0.407246         4    ;  uncertainty k = 0.151758
        19        20        21        22     9        0.000000       -5.281046         1    ;  uncertainty k = 0.836596
        19        20        21        22     9      180.000000       -0.943607         2    ;  uncertainty k = 0.353025
        19        20        21        22     9        0.000000        1.838223         3    ;  uncertainty k = 0.209562
        19        20        21        22     9      180.000000       -0.457007         4    ;  uncertainty k = 0.152159
        19        20        21        44     9        0.000000       -1.644501         1    ;  uncertainty k = 0.441609
        19        20        21        44     9      180.000000       -0.161526         2    ;  uncertainty k = 0.277305
        19        20        21        44     9        0.000000        0.880414         3    ;  uncertainty k = 0.150724
        19        20        21        44     9      180.000000       -0.346058         4    ;  uncertainty k = 0.097754
        19        20        21        45     9        0.000000       -1.644501         1    ;  uncertainty k = 0.441609
        19        20        21        45     9      180.000000       -0.161526         2    ;  uncertainty k = 0.277305
        19        20        21        45     9        0.000000        0.880414         3    ;  uncertainty k = 0.150724
        19        20        21        45     9      180.000000       -0.346058         4    ;  uncertainty k = 0.097754
        20        19        10        33     9        0.000000        1.162202         1    ;  uncertainty k = 0.536450
        20        19        10        33     9      180.000000       -1.787256         2    ;  uncertainty k = 0.163668
        20        19        10        33     9        0.000000        0.426065         3    ;  uncertainty k = 0.065929
        20        19        10        33     9      180.000000        0.018367         4    ;  uncertainty k = 0.021663
        20        21        22        23     9        0.000000       -0.650842         1    ;  uncertainty k = 0.136774
        20        21        22        23     9      180.000000       -0.037969         2    ;  uncertainty k = 0.150121
        20        21        22        23     9        0.000000        0.238206         3    ;  uncertainty k = 0.157134
        20        21        22        23     9      180.000000        0.466037         4    ;  uncertainty k = 0.042531
        20        21        22        46     9        0.000000        1.273727         1    ;  uncertainty k = 0.341437
        20        21        22        46     9      180.000000       -1.840115         2    ;  uncertainty k = 0.173544
        20        21        22        46     9        0.000000        0.426724         3    ;  uncertainty k = 0.100790
        20        21        22        46     9      180.000000        0.054082         4    ;  uncertainty k = 0.036659
        21        20        19        40     9        0.000000       -1.668175         1    ;  uncertainty k = 0.475876
        21        20        19        40     9      180.000000       -0.141623         2    ;  uncertainty k = 0.287117
        21        20        19        40     9        0.000000        0.869129         3    ;  uncertainty k = 0.157848
        21        20        19        40     9      180.000000       -0.351648         4    ;  uncertainty k = 0.101751
        21        20        19        41     9        0.000000       -1.668175         1    ;  uncertainty k = 0.475876
        21        20        19        41     9      180.000000       -0.141623         2    ;  uncertainty k = 0.287117
        21        20        19        41     9        0.000000        0.869129         3    ;  uncertainty k = 0.157848
        21        20        19        41     9      180.000000       -0.351648         4    ;  uncertainty k = 0.101751
        21        22        23        24     9        0.000000        7.664334         1    ;  uncertainty k = 0.484767
        21        22        23        24     9      180.000000        8.768185         2    ;  uncertainty k = 0.296686
        21        22        23        24     9        0.000000        1.662171         3    ;  uncertainty k = 0.194152
        21        22        23        24     9      180.000000        0.031090         4    ;  uncertainty k = 0.145630
        21        22        23        25     9        0.000000        6.286336         1    ;  uncertainty k = 0.281442
        21        22        23        25     9      180.000000       16.732704         2    ;  uncertainty k = 0.166443
        21        22        23        25     9        0.000000        0.555861         3    ;  uncertainty k = 0.210188
        21        22        23        25     9      180.000000       -0.642605         4    ;  uncertainty k = 0.243790
        22        21        20        42     9        0.000000       -0.690061         1    ;  uncertainty k = 0.428796
        22        21        20        42     9      180.000000       -1.974387         2    ;  uncertainty k = 0.290593
        22        21        20        42     9        0.000000        1.391895         3    ;  uncertainty k = 0.140066
        22        21        20        42     9      180.000000       -0.104560         4    ;  uncertainty k = 0.123577
        22        21        20        43     9        0.000000       -0.690061         1    ;  uncertainty k = 0.428796
        22        21        20        43     9      180.000000       -1.974387         2    ;  uncertainty k = 0.290593
        22        21        20        43     9        0.000000        1.391895         3    ;  uncertainty k = 0.140066
        22        21        20        43     9      180.000000       -0.104560         4    ;  uncertainty k = 0.123577
        22        23        24        26     9        0.000000       -2.141575         1    ;  uncertainty k = 0.970062
        22        23        24        26     9      180.000000        2.508288         2    ;  uncertainty k = 0.343759
        22        23        24        26     9        0.000000        0.226950         3    ;  uncertainty k = 0.115990
        22        23        24        26     9      180.000000        0.075154         4    ;  uncertainty k = 0.107121
        22        23        24        47     9        0.000000       -1.002107         1    ;  uncertainty k = 0.250080
        22        23        24        47     9      180.000000        2.244127         2    ;  uncertainty k = 0.282460
        22        23        24        47     9        0.000000        0.333143         3    ;  uncertainty k = 0.038651
        22        23        24        47     9      180.000000        0.066395         4    ;  uncertainty k = 0.073520
        22        23        24        48     9        0.000000       -1.002107         1    ;  uncertainty k = 0.250080
        22        23        24        48     9      180.000000        2.244127         2    ;  uncertainty k = 0.282460
        22        23        24        48     9        0.000000        0.333143         3    ;  uncertainty k = 0.038651
        22        23        24        48     9      180.000000        0.066395         4    ;  uncertainty k = 0.073520
        23        22        21        44     9        0.000000        0.725239         1    ;  uncertainty k = 0.256785
        23        22        21        44     9      180.000000       -0.364647         2    ;  uncertainty k = 0.109665
        23        22        21        44     9        0.000000        0.390639         3    ;  uncertainty k = 0.149539
        23        22        21        44     9      180.000000        0.298740         4    ;  uncertainty k = 0.064233
        23        22        21        45     9        0.000000        0.725239         1    ;  uncertainty k = 0.256785
        23        22        21        45     9      180.000000       -0.364647         2    ;  uncertainty k = 0.109665
        23        22        21        45     9        0.000000        0.390639         3    ;  uncertainty k = 0.149539
        23        22        21        45     9      180.000000        0.298740         4    ;  uncertainty k = 0.064233
        23        24        26        27     9        0.000000       -1.231566         1    ;  uncertainty k = 0.870830
        23        24        26        27     9      180.000000       -1.807968         2    ;  uncertainty k = 0.358386
        23        24        26        27     9        0.000000        1.367536         3    ;  uncertainty k = 0.280268
        23        24        26        27     9      180.000000        0.433090         4    ;  uncertainty k = 0.324194
        23        24        26        49     9        0.000000        0.413926         1    ;  uncertainty k = 0.645753
        23        24        26        49     9      180.000000        0.081039         2    ;  uncertainty k = 0.163227
        23        24        26        49     9        0.000000        0.681289         3    ;  uncertainty k = 0.092569
        23        24        26        49     9      180.000000       -0.113867         4    ;  uncertainty k = 0.059847
        23        24        26        50     9        0.000000        0.413926         1    ;  uncertainty k = 0.645753
        23        24        26        50     9      180.000000        0.081039         2    ;  uncertainty k = 0.163227
        23        24        26        50     9        0.000000        0.681289         3    ;  uncertainty k = 0.092569
        23        24        26        50     9      180.000000       -0.113867         4    ;  uncertainty k = 0.059847
        24        23        22        46     9        0.000000        0.263754         1    ;  uncertainty k = 0.757860
        24        23        22        46     9      180.000000        6.368599         2    ;  uncertainty k = 0.657854
        24        23        22        46     9        0.000000        1.759362         3    ;  uncertainty k = 0.376138
        24        23        22        46     9      180.000000        0.404907         4    ;  uncertainty k = 0.283300
        25        23        22        46     9        0.000000        4.630204         1    ;  uncertainty k = 0.355648
        25        23        22        46     9      180.000000       17.205576         2    ;  uncertainty k = 0.121151
        25        23        22        46     9        0.000000        1.001261         3    ;  uncertainty k = 0.259906
        25        23        22        46     9      180.000000       -0.396878         4    ;  uncertainty k = 0.118734
        25        23        24        26     9        0.000000       -3.307745         1    ;  uncertainty k = 0.662547
        25        23        24        26     9      180.000000        4.798017         2    ;  uncertainty k = 0.369565
        25        23        24        26     9        0.000000        0.969812         3    ;  uncertainty k = 0.150750
        25        23        24        26     9      180.000000        0.342683         4    ;  uncertainty k = 0.042914
        25        23        24        47     9        0.000000       -0.298072         1    ;  uncertainty k = 0.275814
        25        23        24        47     9      180.000000        3.487643         2    ;  uncertainty k = 0.313548
        25        23        24        47     9        0.000000        0.632025         3    ;  uncertainty k = 0.055618
        25        23        24        47     9      180.000000        0.328079         4    ;  uncertainty k = 0.063742
        25        23        24        48     9        0.000000       -0.298072         1    ;  uncertainty k = 0.275814
        25        23        24        48     9      180.000000        3.487643         2    ;  uncertainty k = 0.313548
        25        23        24        48     9        0.000000        0.632025         3    ;  uncertainty k = 0.055618
        25        23        24        48     9      180.000000        0.328079         4    ;  uncertainty k = 0.063742
        27        14        13        37     9        0.000000       -0.496190         1    ;  uncertainty k = 0.661919
        27        14        13        37     9      180.000000        5.633062         2    ;  uncertainty k = 0.246602
        27        14        13        37     9        0.000000        0.651194         3    ;  uncertainty k = 0.223724
        27        14        13        37     9      180.000000        0.875120         4    ;  uncertainty k = 0.112799
        27        26        24        47     9        0.000000        1.734214         1    ;  uncertainty k = 0.592519
        27        26        24        47     9      180.000000       -1.645560         2    ;  uncertainty k = 0.325412
        27        26        24        47     9        0.000000        1.051478         3    ;  uncertainty k = 0.094213
        27        26        24        47     9      180.000000       -0.088910         4    ;  uncertainty k = 0.144161
        27        26        24        48     9        0.000000        1.734214         1    ;  uncertainty k = 0.592519
        27        26        24        48     9      180.000000       -1.645560         2    ;  uncertainty k = 0.325412
        27        26        24        48     9        0.000000        1.051478         3    ;  uncertainty k = 0.094213
        27        26        24        48     9      180.000000       -0.088910         4    ;  uncertainty k = 0.144161
        33        10        19        40     9        0.000000        0.449963         1    ;  uncertainty k = 0.171028
        33        10        19        40     9      180.000000       -0.794474         2    ;  uncertainty k = 0.155433
        33        10        19        40     9        0.000000        0.256364         3    ;  uncertainty k = 0.030354
        33        10        19        40     9      180.000000        0.197579         4    ;  uncertainty k = 0.051178
        33        10        19        41     9        0.000000        0.449963         1    ;  uncertainty k = 0.171028
        33        10        19        41     9      180.000000       -0.794474         2    ;  uncertainty k = 0.155433
        33        10        19        41     9        0.000000        0.256364         3    ;  uncertainty k = 0.030354
        33        10        19        41     9      180.000000        0.197579         4    ;  uncertainty k = 0.051178
        40        19        20        42     9        0.000000        0.848655         1    ;  uncertainty k = 0.237703
        40        19        20        42     9      180.000000       -0.448734         2    ;  uncertainty k = 0.197821
        40        19        20        42     9        0.000000        0.019683         3    ;  uncertainty k = 0.058401
        40        19        20        42     9      180.000000       -0.052424         4    ;  uncertainty k = 0.070647
        40        19        20        43     9        0.000000        0.848655         1    ;  uncertainty k = 0.237703
        40        19        20        43     9      180.000000       -0.448734         2    ;  uncertainty k = 0.197821
        40        19        20        43     9        0.000000        0.019683         3    ;  uncertainty k = 0.058401
        40        19        20        43     9      180.000000       -0.052424         4    ;  uncertainty k = 0.070647
        41        19        20        42     9        0.000000        0.848655         1    ;  uncertainty k = 0.237703
        41        19        20        42     9      180.000000       -0.448734         2    ;  uncertainty k = 0.197821
        41        19        20        42     9        0.000000        0.019683         3    ;  uncertainty k = 0.058401
        41        19        20        42     9      180.000000       -0.052424         4    ;  uncertainty k = 0.070647
        41        19        20        43     9        0.000000        0.848655         1    ;  uncertainty k = 0.237703
        41        19        20        43     9      180.000000       -0.448734         2    ;  uncertainty k = 0.197821
        41        19        20        43     9        0.000000        0.019683         3    ;  uncertainty k = 0.058401
        41        19        20        43     9      180.000000       -0.052424         4    ;  uncertainty k = 0.070647
        42        20        21        44     9        0.000000        0.874615         1    ;  uncertainty k = 0.243995
        42        20        21        44     9      180.000000       -0.464380         2    ;  uncertainty k = 0.175742
        42        20        21        44     9        0.000000        0.008585         3    ;  uncertainty k = 0.060537
        42        20        21        44     9      180.000000       -0.051511         4    ;  uncertainty k = 0.073449
        42        20        21        45     9        0.000000        0.874615         1    ;  uncertainty k = 0.243995
        42        20        21        45     9      180.000000       -0.464380         2    ;  uncertainty k = 0.175742
        42        20        21        45     9        0.000000        0.008585         3    ;  uncertainty k = 0.060537
        42        20        21        45     9      180.000000       -0.051511         4    ;  uncertainty k = 0.073449
        43        20        21        44     9        0.000000        0.874615         1    ;  uncertainty k = 0.243995
        43        20        21        44     9      180.000000       -0.464380         2    ;  uncertainty k = 0.175742
        43        20        21        44     9        0.000000        0.008585         3    ;  uncertainty k = 0.060537
        43        20        21        44     9      180.000000       -0.051511         4    ;  uncertainty k = 0.073449
        43        20        21        45     9        0.000000        0.874615         1    ;  uncertainty k = 0.243995
        43        20        21        45     9      180.000000       -0.464380         2    ;  uncertainty k = 0.175742
        43        20        21        45     9        0.000000        0.008585         3    ;  uncertainty k = 0.060537
        43        20        21        45     9      180.000000       -0.051511         4    ;  uncertainty k = 0.073449
        44        21        22        46     9        0.000000        0.608159         1    ;  uncertainty k = 0.272102
        44        21        22        46     9      180.000000       -0.856158         2    ;  uncertainty k = 0.134273
        44        21        22        46     9        0.000000        0.298594         3    ;  uncertainty k = 0.050068
        44        21        22        46     9      180.000000        0.182170         4    ;  uncertainty k = 0.072242
        45        21        22        46     9        0.000000        0.608159         1    ;  uncertainty k = 0.272102
        45        21        22        46     9      180.000000       -0.856158         2    ;  uncertainty k = 0.134273
        45        21        22        46     9        0.000000        0.298594         3    ;  uncertainty k = 0.050068
        45        21        22        46     9      180.000000        0.182170         4    ;  uncertainty k = 0.072242
        47        24        26        49     9        0.000000        0.131197         1    ;  uncertainty k = 0.323374
        47        24        26        49     9      180.000000       -0.341290         2    ;  uncertainty k = 0.183183
        47        24        26        49     9        0.000000        0.412982         3    ;  uncertainty k = 0.067735
        47        24        26        49     9      180.000000        0.005776         4    ;  uncertainty k = 0.077936
        47        24        26        50     9        0.000000        0.131197         1    ;  uncertainty k = 0.323374
        47        24        26        50     9      180.000000       -0.341290         2    ;  uncertainty k = 0.183183
        47        24        26        50     9        0.000000        0.412982         3    ;  uncertainty k = 0.067735
        47        24        26        50     9      180.000000        0.005776         4    ;  uncertainty k = 0.077936
        48        24        26        49     9        0.000000        0.131197         1    ;  uncertainty k = 0.323374
        48        24        26        49     9      180.000000       -0.341290         2    ;  uncertainty k = 0.183183
        48        24        26        49     9        0.000000        0.412982         3    ;  uncertainty k = 0.067735
        48        24        26        49     9      180.000000        0.005776         4    ;  uncertainty k = 0.077936
        48        24        26        50     9        0.000000        0.131197         1    ;  uncertainty k = 0.323374
        48        24        26        50     9      180.000000       -0.341290         2    ;  uncertainty k = 0.183183
        48        24        26        50     9        0.000000        0.412982         3    ;  uncertainty k = 0.067735
        48        24        26        50     9      180.000000        0.005776         4    ;  uncertainty k = 0.077936

[ dihedrals ] ; impropers
;       ai        aj        ak        al funct           phase               k        pn
         1         2         6        12     4      180.000000       10.287263         2    ;  uncertainty k = 0.222163
         1         6        12         2     4      180.000000       10.287263         2    ;  uncertainty k = 0.222163
         1        12         2         6     4      180.000000       10.287263         2    ;  uncertainty k = 0.222163
         2         1         3        11     4      180.000000       18.102048         2    ;  uncertainty k = 0.082046
         2         3        11         1     4      180.000000       18.102048         2    ;  uncertainty k = 0.082046
         2        11         1         3     4      180.000000       18.102048         2    ;  uncertainty k = 0.082046
         3         2         4        28     4      180.000000        2.137763         2    ;  uncertainty k = 0.427530
         3         4        28         2     4      180.000000        2.137763         2    ;  uncertainty k = 0.427530
         3        28         2         4     4      180.000000        2.137763         2    ;  uncertainty k = 0.427530
         4         3         5         8     4      180.000000       17.251956         2    ;  uncertainty k = 0.122871
         4         5         8         3     4      180.000000       17.251956         2    ;  uncertainty k = 0.122871
         4         8         3         5     4      180.000000       17.251956         2    ;  uncertainty k = 0.122871
         5         4         6         7     4      180.000000        8.328283         2    ;  uncertainty k = 0.269550
         5         6         7         4     4      180.000000        8.328283         2    ;  uncertainty k = 0.269550
         5         7         4         6     4      180.000000        8.328283         2    ;  uncertainty k = 0.269550
         6         1         5        29     4      180.000000        4.469241         2    ;  uncertainty k = 0.272254
         6         5        29         1     4      180.000000        4.469241         2    ;  uncertainty k = 0.272254
         6        29         1         5     4      180.000000        4.469241         2    ;  uncertainty k = 0.272254
         7         5         9        10     4      180.000000       52.997035         2    ;  uncertainty k = 0.041372
         7         9        10         5     4      180.000000       52.997035         2    ;  uncertainty k = 0.041372
         7        10         5         9     4      180.000000       52.997035         2    ;  uncertainty k = 0.041372
        10         7        19        33     4      180.000000        0.280232         2    ;  uncertainty k = 0.626618
        10        19        33         7     4      180.000000        0.280232         2    ;  uncertainty k = 0.626618
        10        33         7        19     4      180.000000        0.280232         2    ;  uncertainty k = 0.626618
        12         1        13        17     4      180.000000       29.257089         2    ;  uncertainty k = 0.054432
        12        13        17         1     4      180.000000       29.257089         2    ;  uncertainty k = 0.054432
        12        17         1        13     4      180.000000       29.257089         2    ;  uncertainty k = 0.054432
        13        12        14        37     4      180.000000        1.240035         2    ;  uncertainty k = 0.615918
        13        14        37        12     4      180.000000        1.240035         2    ;  uncertainty k = 0.615918
        13        37        12        14     4      180.000000        1.240035         2    ;  uncertainty k = 0.615918
        14        13        15        27     4      180.000000       28.904417         2    ;  uncertainty k = 0.068532
        14        15        27        13     4      180.000000       28.904417         2    ;  uncertainty k = 0.068532
        14        27        13        15     4      180.000000       28.904417         2    ;  uncertainty k = 0.068532
        16        15        17        18     4      180.000000       45.820453         2    ;  uncertainty k = 0.064894
        16        17        18        15     4      180.000000       45.820453         2    ;  uncertainty k = 0.064894
        16        18        15        17     4      180.000000       45.820453         2    ;  uncertainty k = 0.064894
        18        16        38        39     4      180.000000        0.368279         2    ;  uncertainty k = 0.553006
        18        38        39        16     4      180.000000        0.368279         2    ;  uncertainty k = 0.553006
        18        39        16        38     4      180.000000        0.368279         2    ;  uncertainty k = 0.553006
        22        21        23        46     4      180.000000        0.500450         2    ;  uncertainty k = 1.119039
        22        23        46        21     4      180.000000        0.500450         2    ;  uncertainty k = 1.119039
        22        46        21        23     4      180.000000        0.500450         2    ;  uncertainty k = 1.119039
        23        22        24        25     4      180.000000       54.244826         2    ;  uncertainty k = 0.015453
        23        24        25        22     4      180.000000       54.244826         2    ;  uncertainty k = 0.015453
        23        25        22        24     4      180.000000       54.244826         2    ;  uncertainty k = 0.015453

[ pairs ]
;       ai        aj funct
         1         4     1
         1         7     1
         1        14     1
         1        16     1
         1        28     1
         1        34     1
         1        35     1
         1        36     1
         1        37     1
         2         5     1
         2         8     1
         2        13     1
         2        17     1
         2        29     1
         3         6     1
         3         7     1
         3        12     1
         3        30     1
         3        31     1
         3        32     1
         3        34     1
         3        35     1
         3        36     1
         4         9     1
         4        10     1
         4        11     1
         4        29     1
         5        12     1
         5        19     1
         5        28     1
         5        30     1
         5        31     1
         5        32     1
         5        33     1
         6         8     1
         6         9     1
         6        10     1
         6        11     1
         6        13     1
         6        17     1
         7         8     1
         7        20     1
         7        29     1
         7        40     1
         7        41     1
         8        28     1
         9        19     1
         9        33     1
        10        21     1
        10        42     1
        10        43     1
        11        12     1
        11        28     1
        12        15     1
        12        18     1
        12        27     1
        12        29     1
        13        16     1
        13        26     1
        14        17     1
        14        18     1
        14        24     1
        14        49     1
        14        50     1
        15        26     1
        15        37     1
        15        38     1
        15        39     1
        16        27     1
        17        37     1
        17        38     1
        17        39     1
        19        22     1
        19        44     1
        19        45     1
        20        23     1
        20        33     1
        20        46     1
        21        24     1
        21        25     1
        21        40     1
        21        41     1
        22        26     1
        22        42     1
        22        43     1
        22        47     1
        22        48     1
        23        27     1
        23        44     1
        23        45     1
        23        49     1
        23        50     1
        24        46     1
        25        26     1
        25        46     1
        25        47     1
        25        48     1
        27        37     1
        27        47     1
        27        48     1
        33        40     1
        33        41     1
        40        42     1
        40        43     1
        41        42     1
        41        43     1
        42        44     1
        42        45     1
        43        44     1
        43        45     1
        44        46     1
        45        46     1
        47        49     1
        47        50     1
        48        49     1
        48        50     1
