; ITP file created by ByteFF-joint-25, 2025-07-14 11:32:41.365501

[ atomtypes ]
;name           bonded.type        at.num        mass        charge   ptype           sigma         epsilon
 c0bf                                   6      0.0000       0.00000       A     3.31519e-01     4.13498e-01    ;  uncertainty sigma = 0.000014, epsilon = 0.000764
 c1bf                                   6      0.0000       0.00000       A     3.31527e-01     4.13080e-01    ;  uncertainty sigma = 0.000007, epsilon = 0.000533
 c2bf                                   6      0.0000       0.00000       A     3.31524e-01     4.13156e-01    ;  uncertainty sigma = 0.000003, epsilon = 0.000636
 c3bf                                   6      0.0000       0.00000       A     3.31525e-01     4.13125e-01    ;  uncertainty sigma = 0.000008, epsilon = 0.000714
 c4bf                                   6      0.0000       0.00000       A     3.31525e-01     4.13293e-01    ;  uncertainty sigma = 0.000023, epsilon = 0.000917
 c5bf                                   6      0.0000       0.00000       A     3.31530e-01     4.13168e-01    ;  uncertainty sigma = 0.000021, epsilon = 0.000971
 c6bf                                   6      0.0000       0.00000       A     3.31538e-01     4.12642e-01    ;  uncertainty sigma = 0.000013, epsilon = 0.000485
 c7bf                                   6      0.0000       0.00000       A     3.39777e-01     4.51036e-01    ;  uncertainty sigma = 0.000005, epsilon = 0.000506
 o8bf                                   8      0.0000       0.00000       A     3.04808e-01     6.12545e-01    ;  uncertainty sigma = 0.000014, epsilon = 0.001009
 n9bf                                   7      0.0000       0.00000       A     3.26979e-01     4.90492e-01    ;  uncertainty sigma = 0.000015, epsilon = 0.001812
 c10bf                                  6      0.0000       0.00000       A     3.39781e-01     4.50873e-01    ;  uncertainty sigma = 0.000004, epsilon = 0.000517
 c11bf                                  6      0.0000       0.00000       A     3.31530e-01     4.13378e-01    ;  uncertainty sigma = 0.000014, epsilon = 0.000852
 c12bf                                  6      0.0000       0.00000       A     3.31530e-01     4.13276e-01    ;  uncertainty sigma = 0.000006, epsilon = 0.001128
 c13bf                                  6      0.0000       0.00000       A     3.31565e-01     4.13272e-01    ;  uncertainty sigma = 0.000023, epsilon = 0.000730
 n14bf                                  7      0.0000       0.00000       A     3.38493e-01     3.93345e-01    ;  uncertainty sigma = 0.000032, epsilon = 0.001124
 c15bf                                  6      0.0000       0.00000       A     3.31540e-01     4.12734e-01    ;  uncertainty sigma = 0.000022, epsilon = 0.001493
 n16bf                                  7      0.0000       0.00000       A     3.38478e-01     3.93740e-01    ;  uncertainty sigma = 0.000043, epsilon = 0.001174
 n17bf                                  7      0.0000       0.00000       A     3.36875e-01     4.69390e-01    ;  uncertainty sigma = 0.000045, epsilon = 0.002027
 c18bf                                  6      0.0000       0.00000       A     3.39772e-01     4.50598e-01    ;  uncertainty sigma = 0.000006, epsilon = 0.001251
 c19bf                                  6      0.0000       0.00000       A     3.39757e-01     4.50535e-01    ;  uncertainty sigma = 0.000014, epsilon = 0.001065
 c20bf                                  6      0.0000       0.00000       A     3.39765e-01     4.50475e-01    ;  uncertainty sigma = 0.000005, epsilon = 0.001145
 n21bf                                  7      0.0000       0.00000       A     3.26962e-01     4.90966e-01    ;  uncertainty sigma = 0.000012, epsilon = 0.001535
 c22bf                                  6      0.0000       0.00000       A     3.31502e-01     4.13128e-01    ;  uncertainty sigma = 0.000006, epsilon = 0.000899
 c23bf                                  6      0.0000       0.00000       A     3.39783e-01     4.50356e-01    ;  uncertainty sigma = 0.000013, epsilon = 0.000769
 o24bf                                  8      0.0000       0.00000       A     3.04828e-01     6.13068e-01    ;  uncertainty sigma = 0.000008, epsilon = 0.001227
 c25bf                                  6      0.0000       0.00000       A     3.39755e-01     4.51734e-01    ;  uncertainty sigma = 0.000007, epsilon = 0.001142
 s26bf                                 16      0.0000       0.00000       A     3.53260e-01     1.18142e+00    ;  uncertainty sigma = 0.000025, epsilon = 0.002633
 h27bf                                  1      0.0000       0.00000       A     2.62559e-01     6.71111e-02    ;  uncertainty sigma = 0.000013, epsilon = 0.000423
 h28bf                                  1      0.0000       0.00000       A     2.62586e-01     6.76143e-02    ;  uncertainty sigma = 0.000011, epsilon = 0.001010
 h29bf                                  1      0.0000       0.00000       A     2.60030e-01     8.67016e-02    ;  uncertainty sigma = 0.000007, epsilon = 0.000472
 h30bf                                  1      0.0000       0.00000       A     2.60030e-01     8.67016e-02    ;  uncertainty sigma = 0.000007, epsilon = 0.000472
 h31bf                                  1      0.0000       0.00000       A     2.60030e-01     8.67016e-02    ;  uncertainty sigma = 0.000007, epsilon = 0.000472
 h32bf                                  1      0.0000       0.00000       A     1.10655e-01     4.12404e-02    ;  uncertainty sigma = 0.000082, epsilon = 0.001053
 h33bf                                  1      0.0000       0.00000       A     2.60029e-01     8.67217e-02    ;  uncertainty sigma = 0.000007, epsilon = 0.000441
 h34bf                                  1      0.0000       0.00000       A     2.60029e-01     8.67217e-02    ;  uncertainty sigma = 0.000007, epsilon = 0.000441
 h35bf                                  1      0.0000       0.00000       A     2.60029e-01     8.67217e-02    ;  uncertainty sigma = 0.000007, epsilon = 0.000441
 h36bf                                  1      0.0000       0.00000       A     2.62579e-01     6.69782e-02    ;  uncertainty sigma = 0.000018, epsilon = 0.000797
 h37bf                                  1      0.0000       0.00000       A     2.42210e-01     8.67000e-02    ;  uncertainty sigma = 0.000027, epsilon = 0.000916
 h38bf                                  1      0.0000       0.00000       A     2.42210e-01     8.67000e-02    ;  uncertainty sigma = 0.000027, epsilon = 0.000916
 h39bf                                  1      0.0000       0.00000       A     1.10638e-01     4.10389e-02    ;  uncertainty sigma = 0.000077, epsilon = 0.001002
 h40bf                                  1      0.0000       0.00000       A     2.60029e-01     8.63452e-02    ;  uncertainty sigma = 0.000013, epsilon = 0.000501
 h41bf                                  1      0.0000       0.00000       A     2.60029e-01     8.63452e-02    ;  uncertainty sigma = 0.000013, epsilon = 0.000501
 h42bf                                  1      0.0000       0.00000       A     2.42207e-01     8.70472e-02    ;  uncertainty sigma = 0.000045, epsilon = 0.001156
 h43bf                                  1      0.0000       0.00000       A     2.42207e-01     8.70472e-02    ;  uncertainty sigma = 0.000045, epsilon = 0.001156
 c44bf                                  6      0.0000       0.00000       A     3.39757e-01     4.50538e-01    ;  uncertainty sigma = 0.000014, epsilon = 0.001044
 h45bf                                  1      0.0000       0.00000       A     2.60035e-01     8.64504e-02    ;  uncertainty sigma = 0.000010, epsilon = 0.000584
 h46bf                                  1      0.0000       0.00000       A     2.60035e-01     8.64504e-02    ;  uncertainty sigma = 0.000010, epsilon = 0.000584
 h47bf                                  1      0.0000       0.00000       A     2.42211e-01     8.66913e-02    ;  uncertainty sigma = 0.000023, epsilon = 0.000833
 h48bf                                  1      0.0000       0.00000       A     2.42211e-01     8.66913e-02    ;  uncertainty sigma = 0.000023, epsilon = 0.000833
 h49bf                                  1      0.0000       0.00000       A     2.60035e-01     8.64504e-02    ;  uncertainty sigma = 0.000010, epsilon = 0.000584
 h50bf                                  1      0.0000       0.00000       A     2.60035e-01     8.64504e-02    ;  uncertainty sigma = 0.000010, epsilon = 0.000584
 h51bf                                  1      0.0000       0.00000       A     1.10715e-01     4.07949e-02    ;  uncertainty sigma = 0.000035, epsilon = 0.001109
 h52bf                                  1      0.0000       0.00000       A     1.10715e-01     4.07950e-02    ;  uncertainty sigma = 0.000035, epsilon = 0.001109

[ moleculetype ]
;name             nrexcl
 MOL                   3

[ atoms ]
;       nr            type      resi   res      atom      cgnr      charge          mass ; qtot
         1            c0bf         1   UNL        c0         1    -0.16834       12.0110 ; qtot   -0.168
         2            c1bf         1   UNL        c1         2    -0.01847       12.0110 ; qtot   -0.187
         3            c2bf         1   UNL        c2         3    -0.15382       12.0110 ; qtot   -0.341
         4            c3bf         1   UNL        c3         4    -0.01570       12.0110 ; qtot   -0.356
         5            c4bf         1   UNL        c4         5    -0.15924       12.0110 ; qtot   -0.516
         6            c5bf         1   UNL        c5         6    -0.05700       12.0110 ; qtot   -0.573
         7            c6bf         1   UNL        c6         7     0.67703       12.0110 ; qtot    0.104
         8            c7bf         1   UNL        c7         8    -0.05362       12.0110 ; qtot    0.051
         9            o8bf         1   UNL        o8         9    -0.59919       15.9990 ; qtot   -0.548
        10            n9bf         1   UNL        n9        10    -0.57954       14.0070 ; qtot   -1.128
        11           c10bf         1   UNL       c10        11    -0.05067       12.0110 ; qtot   -1.179
        12           c11bf         1   UNL       c11        12     0.55582       12.0110 ; qtot   -0.623
        13           c12bf         1   UNL       c12        13    -0.38722       12.0110 ; qtot   -1.010
        14           c13bf         1   UNL       c13        14     0.59295       12.0110 ; qtot   -0.417
        15           n14bf         1   UNL       n14        15    -0.78318       14.0070 ; qtot   -1.200
        16           c15bf         1   UNL       c15        16     0.89267       12.0110 ; qtot   -0.308
        17           n16bf         1   UNL       n16        17    -0.77913       14.0070 ; qtot   -1.087
        18           n17bf         1   UNL       n17        18    -0.93021       14.0070 ; qtot   -2.017
        19           c18bf         1   UNL       c18        19     0.10371       12.0110 ; qtot   -1.913
        20           c19bf         1   UNL       c19        20    -0.09961       12.0110 ; qtot   -2.013
        21           c20bf         1   UNL       c20        21     0.10330       12.0110 ; qtot   -1.909
        22           n21bf         1   UNL       n21        22    -0.58389       14.0070 ; qtot   -2.493
        23           c22bf         1   UNL       c22        23     0.66574       12.0110 ; qtot   -1.828
        24           c23bf         1   UNL       c23        24    -0.15621       12.0110 ; qtot   -1.984
        25           o24bf         1   UNL       o24        25    -0.60454       15.9990 ; qtot   -2.588
        26           c25bf         1   UNL       c25        26     0.02376       12.0110 ; qtot   -2.565
        27           s26bf         1   UNL       s26        27    -0.32180       32.0670 ; qtot   -2.886
        28           h27bf         1   UNL       h27        28     0.13288        1.0080 ; qtot   -2.754
        29           h28bf         1   UNL       h28        29     0.15308        1.0080 ; qtot   -2.600
        30           h29bf         1   UNL       h29        30     0.05043        1.0080 ; qtot   -2.550
        31           h30bf         1   UNL       h30        31     0.05043        1.0080 ; qtot   -2.500
        32           h31bf         1   UNL       h31        32     0.05043        1.0080 ; qtot   -2.449
        33           h32bf         1   UNL       h32        33     0.31936        1.0080 ; qtot   -2.130
        34           h33bf         1   UNL       h33        34     0.04818        1.0080 ; qtot   -2.082
        35           h34bf         1   UNL       h34        35     0.04818        1.0080 ; qtot   -2.033
        36           h35bf         1   UNL       h35        36     0.04818        1.0080 ; qtot   -1.985
        37           h36bf         1   UNL       h36        37     0.16450        1.0080 ; qtot   -1.821
        38           h37bf         1   UNL       h37        38     0.05675        1.0080 ; qtot   -1.764
        39           h38bf         1   UNL       h38        39     0.05675        1.0080 ; qtot   -1.707
        40           h39bf         1   UNL       h39        40     0.32063        1.0080 ; qtot   -1.387
        41           h40bf         1   UNL       h40        41     0.07275        1.0080 ; qtot   -1.314
        42           h41bf         1   UNL       h41        42     0.07275        1.0080 ; qtot   -1.241
        43           h42bf         1   UNL       h42        43     0.08580        1.0080 ; qtot   -1.155
        44           h43bf         1   UNL       h43        44     0.08580        1.0080 ; qtot   -1.070
        45           c44bf         1   UNL       c44        45    -0.09935       12.0110 ; qtot   -1.169
        46           h45bf         1   UNL       h45        46     0.04982        1.0080 ; qtot   -1.119
        47           h46bf         1   UNL       h46        47     0.04982        1.0080 ; qtot   -1.069
        48           h47bf         1   UNL       h47        48     0.05660        1.0080 ; qtot   -1.013
        49           h48bf         1   UNL       h48        49     0.05660        1.0080 ; qtot   -0.956
        50           h49bf         1   UNL       h49        50     0.04952        1.0080 ; qtot   -0.907
        51           h50bf         1   UNL       h50        51     0.04952        1.0080 ; qtot   -0.857
        52           h51bf         1   UNL       h51        52     0.42848        1.0080 ; qtot   -0.429
        53           h52bf         1   UNL       h52        53     0.42851        1.0080 ; qtot   -0.000

[ bonds ]
;       ai        aj funct               r               k
         1         2     1        0.140882   327170.949561    ;  uncertainty r = 0.000085, k = 6.538525
         1         6     1        0.139704   340097.502344    ;  uncertainty r = 0.000105, k = 3.696929
         1        12     1        0.148113   271130.375928    ;  uncertainty r = 0.000138, k = 7.011452
         2         3     1        0.139953   351815.766797    ;  uncertainty r = 0.000065, k = 3.258894
         2        11     1        0.151213   233018.742822    ;  uncertainty r = 0.000030, k = 2.477928
         3         4     1        0.139953   350886.420312    ;  uncertainty r = 0.000046, k = 2.256508
         3        28     1        0.108841   333904.472412    ;  uncertainty r = 0.000022, k = 1.910556
         4         5     1        0.140859   333663.912842    ;  uncertainty r = 0.000105, k = 10.508905
         4         8     1        0.151319   234501.606152    ;  uncertainty r = 0.000039, k = 4.763807
         5         6     1        0.139722   346890.526660    ;  uncertainty r = 0.000117, k = 4.085460
         5         7     1        0.150123   250943.188818    ;  uncertainty r = 0.000060, k = 14.156713
         6        29     1        0.108647   332145.272021    ;  uncertainty r = 0.000028, k = 2.025062
         7         9     1        0.123703   768632.414941    ;  uncertainty r = 0.000039, k = 7.991164
         7        10     1        0.137401   290306.114746    ;  uncertainty r = 0.000113, k = 15.339344
         8        30     1        0.109434   309432.413721    ;  uncertainty r = 0.000007, k = 1.462291
         8        31     1        0.109434   309432.413721    ;  uncertainty r = 0.000007, k = 1.462291
         8        32     1        0.109434   309432.413721    ;  uncertainty r = 0.000007, k = 1.462291
        10        19     1        0.145462   253290.202393    ;  uncertainty r = 0.000084, k = 6.614049
        10        33     1        0.101441   418039.952295    ;  uncertainty r = 0.000040, k = 2.223015
        11        34     1        0.109452   309284.681543    ;  uncertainty r = 0.000013, k = 1.664185
        11        35     1        0.109452   309284.681543    ;  uncertainty r = 0.000013, k = 1.664185
        11        36     1        0.109452   309284.681543    ;  uncertainty r = 0.000013, k = 1.664185
        12        13     1        0.141210   407119.543750    ;  uncertainty r = 0.000180, k = 15.265442
        12        17     1        0.135329   439052.830762    ;  uncertainty r = 0.000115, k = 9.016592
        13        14     1        0.141465   403290.126514    ;  uncertainty r = 0.000088, k = 10.781670
        13        37     1        0.108878   346846.653906    ;  uncertainty r = 0.000084, k = 3.115927
        14        15     1        0.134890   427176.670361    ;  uncertainty r = 0.000294, k = 11.965192
        14        27     1        0.177974   201565.247021    ;  uncertainty r = 0.000087, k = 10.958620
        15        16     1        0.137558   542490.994434    ;  uncertainty r = 0.000154, k = 5.218690
        16        17     1        0.137364   540919.389648    ;  uncertainty r = 0.000168, k = 14.207862
        16        18     1        0.141745   595578.354590    ;  uncertainty r = 0.000249, k = 17.463644
        18        52     1        0.102337   440328.154004    ;  uncertainty r = 0.000034, k = 2.569297
        18        53     1        0.102337   440328.154004    ;  uncertainty r = 0.000034, k = 2.569297
        19        20     1        0.153439   209429.757373    ;  uncertainty r = 0.000046, k = 4.561300
        19        38     1        0.109455   304884.739746    ;  uncertainty r = 0.000019, k = 2.320883
        19        39     1        0.109455   304884.739746    ;  uncertainty r = 0.000019, k = 2.320883
        20        45     1        0.152649   203868.298462    ;  uncertainty r = 0.000092, k = 7.864820
        20        46     1        0.109713   307617.108301    ;  uncertainty r = 0.000012, k = 1.574861
        20        47     1        0.109713   307617.108301    ;  uncertainty r = 0.000012, k = 1.574861
        21        22     1        0.145573   252694.779150    ;  uncertainty r = 0.000061, k = 5.272423
        21        45     1        0.153419   209670.763843    ;  uncertainty r = 0.000044, k = 4.879336
        21        48     1        0.109459   305330.719824    ;  uncertainty r = 0.000025, k = 1.990806
        21        49     1        0.109459   305330.719824    ;  uncertainty r = 0.000025, k = 1.990806
        22        23     1        0.137065   311603.655371    ;  uncertainty r = 0.000062, k = 22.053270
        22        40     1        0.101571   419392.933887    ;  uncertainty r = 0.000039, k = 1.708286
        23        24     1        0.152744   206178.576904    ;  uncertainty r = 0.000106, k = 5.902195
        23        25     1        0.123922   721996.750098    ;  uncertainty r = 0.000065, k = 7.278499
        24        26     1        0.153155   207394.973267    ;  uncertainty r = 0.000117, k = 9.727118
        24        41     1        0.109670   314077.358545    ;  uncertainty r = 0.000034, k = 3.210032
        24        42     1        0.109670   314077.358545    ;  uncertainty r = 0.000034, k = 3.210032
        26        27     1        0.182543   143136.187549    ;  uncertainty r = 0.000106, k = 5.736074
        26        43     1        0.109358   311881.780029    ;  uncertainty r = 0.000023, k = 2.336727
        26        44     1        0.109358   311881.780029    ;  uncertainty r = 0.000023, k = 2.336716
        45        50     1        0.109717   307562.893018    ;  uncertainty r = 0.000013, k = 1.556705
        45        51     1        0.109717   307562.893018    ;  uncertainty r = 0.000013, k = 1.556705

[ angles ]
;       ai        aj        ak funct           theta             cth
         1         2         3     1      120.753174      474.686598    ;  uncertainty theta = 0.004340, k = 0.094989
         1         2        11     1      119.128822      420.764034    ;  uncertainty theta = 0.002445, k = 0.071083
         1         6         5     1      124.862206      499.151851    ;  uncertainty theta = 0.005075, k = 0.221244
         1         6        29     1      117.866295      266.681863    ;  uncertainty theta = 0.002976, k = 0.049199
         1        12        13     1      121.657425      384.477206    ;  uncertainty theta = 0.004376, k = 0.212545
         1        12        17     1      118.722435      456.588385    ;  uncertainty theta = 0.006027, k = 0.137464
         2         1         6     1      123.186401      441.700984    ;  uncertainty theta = 0.004492, k = 0.140461
         2         1        12     1      118.064682      376.890514    ;  uncertainty theta = 0.003099, k = 0.175737
         2         3         4     1      125.297134      513.249772    ;  uncertainty theta = 0.002892, k = 0.237668
         2         3        28     1      117.784286      271.435053    ;  uncertainty theta = 0.002711, k = 0.093506
         2        11        34     1      109.959473      397.168288    ;  uncertainty theta = 0.000612, k = 0.029890
         2        11        35     1      109.959473      397.168288    ;  uncertainty theta = 0.000612, k = 0.029890
         2        11        36     1      109.959473      397.168288    ;  uncertainty theta = 0.000612, k = 0.029890
         3         2        11     1      119.996231      423.436014    ;  uncertainty theta = 0.003971, k = 0.196746
         3         4         5     1      120.777237      471.449514    ;  uncertainty theta = 0.003662, k = 0.143449
         3         4         8     1      120.083435      426.568364    ;  uncertainty theta = 0.002932, k = 0.102635
         4         3        28     1      117.714882      270.893762    ;  uncertainty theta = 0.003071, k = 0.062141
         4         5         6     1      123.913330      456.178993    ;  uncertainty theta = 0.003292, k = 0.085311
         4         5         7     1      118.850990      358.560966    ;  uncertainty theta = 0.003230, k = 0.182594
         4         8        30     1      109.922974      398.236665    ;  uncertainty theta = 0.000943, k = 0.033247
         4         8        31     1      109.922974      398.236665    ;  uncertainty theta = 0.000943, k = 0.033247
         4         8        32     1      109.922974      398.236665    ;  uncertainty theta = 0.000943, k = 0.033247
         5         4         8     1      119.429321      418.786728    ;  uncertainty theta = 0.003983, k = 0.060283
         5         6        29     1      118.713234      265.619439    ;  uncertainty theta = 0.004990, k = 0.134617
         5         7         9     1      123.669945      496.521274    ;  uncertainty theta = 0.004116, k = 0.105728
         5         7        10     1      114.854698      442.469236    ;  uncertainty theta = 0.004323, k = 0.157903
         6         1        12     1      116.583054      410.408257    ;  uncertainty theta = 0.002939, k = 0.126074
         6         5         7     1      117.330162      389.195219    ;  uncertainty theta = 0.003239, k = 0.114448
         7        10        19     1      116.298294      437.803032    ;  uncertainty theta = 0.002597, k = 0.059441
         7        10        33     1      115.878929      339.721347    ;  uncertainty theta = 0.003803, k = 0.130742
         9         7        10     1      123.595886      798.951067    ;  uncertainty theta = 0.004663, k = 0.094438
        10        19        20     1      110.886292      640.510158    ;  uncertainty theta = 0.001122, k = 0.046729
        10        19        38     1      106.731186      454.602268    ;  uncertainty theta = 0.001540, k = 0.033540
        10        19        39     1      106.731186      454.602268    ;  uncertainty theta = 0.001540, k = 0.033540
        12        13        14     1      117.650070      475.801804    ;  uncertainty theta = 0.009226, k = 0.235920
        12        13        37     1      122.563965      271.454110    ;  uncertainty theta = 0.001942, k = 0.148018
        12        17        16     1      118.019913      419.922937    ;  uncertainty theta = 0.012094, k = 0.149856
        13        12        17     1      120.971176      607.295125    ;  uncertainty theta = 0.002916, k = 0.202413
        13        14        15     1      121.630531      596.003062    ;  uncertainty theta = 0.005050, k = 0.208466
        13        14        27     1      122.624107      361.359610    ;  uncertainty theta = 0.003579, k = 0.148730
        14        13        37     1      123.592331      281.593300    ;  uncertainty theta = 0.004979, k = 0.089867
        14        15        16     1      118.044838      412.559248    ;  uncertainty theta = 0.012437, k = 0.153794
        14        27        26     1       96.819214      607.135965    ;  uncertainty theta = 0.002591, k = 0.067659
        15        14        27     1      120.168930      439.615049    ;  uncertainty theta = 0.008253, k = 0.187492
        15        16        17     1      128.344269      770.754779    ;  uncertainty theta = 0.008103, k = 0.081884
        15        16        18     1      124.933334      825.352225    ;  uncertainty theta = 0.007353, k = 0.033826
        16        18        52     1      119.581749      466.558040    ;  uncertainty theta = 0.002457, k = 0.016330
        16        18        53     1      119.581749      466.558040    ;  uncertainty theta = 0.002457, k = 0.016330
        17        16        18     1      125.124306      822.300285    ;  uncertainty theta = 0.006594, k = 0.055886
        19        10        33     1      111.892944      330.375308    ;  uncertainty theta = 0.003344, k = 0.076932
        19        20        45     1      109.923317      556.109565    ;  uncertainty theta = 0.001815, k = 0.060121
        19        20        46     1      106.787674      399.294827    ;  uncertainty theta = 0.001012, k = 0.055831
        19        20        47     1      106.787674      399.294827    ;  uncertainty theta = 0.001012, k = 0.055831
        20        19        38     1      108.537399      398.889489    ;  uncertainty theta = 0.001422, k = 0.051819
        20        19        39     1      108.537399      398.889489    ;  uncertainty theta = 0.001422, k = 0.051819
        20        45        21     1      109.896164      554.795106    ;  uncertainty theta = 0.002009, k = 0.064912
        20        45        50     1      107.199913      390.970272    ;  uncertainty theta = 0.001789, k = 0.037754
        20        45        51     1      107.199913      390.970272    ;  uncertainty theta = 0.001789, k = 0.037754
        21        22        23     1      116.409630      428.381594    ;  uncertainty theta = 0.003346, k = 0.100682
        21        22        40     1      111.774307      322.355442    ;  uncertainty theta = 0.003735, k = 0.039226
        21        45        50     1      106.767502      399.065854    ;  uncertainty theta = 0.001174, k = 0.061107
        21        45        51     1      106.767502      399.065854    ;  uncertainty theta = 0.001174, k = 0.061107
        22        21        45     1      110.826218      639.229727    ;  uncertainty theta = 0.000668, k = 0.038007
        22        21        48     1      106.526871      454.287364    ;  uncertainty theta = 0.001556, k = 0.028874
        22        21        49     1      106.526871      454.287364    ;  uncertainty theta = 0.001556, k = 0.028874
        22        23        24     1      113.645309      483.268248    ;  uncertainty theta = 0.002556, k = 0.081113
        22        23        25     1      124.297363      759.281402    ;  uncertainty theta = 0.002104, k = 0.061075
        23        22        40     1      114.346474      345.064157    ;  uncertainty theta = 0.001679, k = 0.055158
        23        24        26     1      109.340210      482.061779    ;  uncertainty theta = 0.002293, k = 0.167380
        23        24        41     1      107.316750      366.819317    ;  uncertainty theta = 0.002409, k = 0.091429
        23        24        42     1      107.316750      366.819317    ;  uncertainty theta = 0.002409, k = 0.091429
        24        23        25     1      123.802505      539.488035    ;  uncertainty theta = 0.003441, k = 0.088195
        24        26        27     1      109.376663      493.135372    ;  uncertainty theta = 0.000780, k = 0.102360
        24        26        43     1      109.208633      393.858774    ;  uncertainty theta = 0.000539, k = 0.060232
        24        26        44     1      109.208633      393.858774    ;  uncertainty theta = 0.000539, k = 0.060232
        26        24        41     1      108.200867      396.325563    ;  uncertainty theta = 0.002277, k = 0.065393
        26        24        42     1      108.200867      396.325563    ;  uncertainty theta = 0.002277, k = 0.065393
        27        26        43     1      104.927185      355.380607    ;  uncertainty theta = 0.001235, k = 0.051559
        27        26        44     1      104.927185      355.380607    ;  uncertainty theta = 0.001235, k = 0.051559
        30         8        31     1      106.699974      316.272854    ;  uncertainty theta = 0.001469, k = 0.029784
        30         8        32     1      106.699974      316.272854    ;  uncertainty theta = 0.001469, k = 0.029784
        31         8        32     1      106.699974      316.272854    ;  uncertainty theta = 0.001469, k = 0.029784
        34        11        35     1      106.694153      317.150501    ;  uncertainty theta = 0.001181, k = 0.025577
        34        11        36     1      106.694153      317.150501    ;  uncertainty theta = 0.001181, k = 0.025577
        35        11        36     1      106.694153      317.150501    ;  uncertainty theta = 0.001181, k = 0.025577
        38        19        39     1      105.660156      317.972987    ;  uncertainty theta = 0.001426, k = 0.019406
        41        24        42     1      105.777725      317.497710    ;  uncertainty theta = 0.001247, k = 0.031511
        43        26        44     1      106.539658      308.688684    ;  uncertainty theta = 0.000732, k = 0.058371
        45        20        46     1      107.223595      391.284793    ;  uncertainty theta = 0.001820, k = 0.033322
        45        20        47     1      107.223595      391.284793    ;  uncertainty theta = 0.001820, k = 0.033322
        45        21        48     1      108.515244      400.603029    ;  uncertainty theta = 0.001445, k = 0.043632
        45        21        49     1      108.515244      400.603029    ;  uncertainty theta = 0.001445, k = 0.043632
        46        20        47     1      104.920006      316.971517    ;  uncertainty theta = 0.002181, k = 0.019775
        48        21        49     1      105.659218      318.826182    ;  uncertainty theta = 0.001809, k = 0.019639
        50        45        51     1      104.905319      317.057929    ;  uncertainty theta = 0.002177, k = 0.017660
        52        18        53     1      107.563583      266.929493    ;  uncertainty theta = 0.002389, k = 0.038827

[ dihedrals ] ; propers for gromacs 4.5 or higher, use funct 9
;       ai        aj        ak        al funct           phase               k        pn
         1         2         3         4     9        0.000000        0.120989         1    ;  uncertainty k = 0.163056
         1         2         3         4     9      180.000000        9.133686         2    ;  uncertainty k = 0.403976
         1         2         3         4     9        0.000000        0.463939         3    ;  uncertainty k = 0.225463
         1         2         3         4     9      180.000000        1.306232         4    ;  uncertainty k = 0.304877
         1         2         3        28     9        0.000000        0.049791         1    ;  uncertainty k = 0.327309
         1         2         3        28     9      180.000000        7.619663         2    ;  uncertainty k = 0.208800
         1         2         3        28     9        0.000000        1.533596         3    ;  uncertainty k = 0.171230
         1         2         3        28     9      180.000000        1.687882         4    ;  uncertainty k = 0.169017
         1         2        11        34     9        0.000000        0.187272         1    ;  uncertainty k = 0.130961
         1         2        11        34     9      180.000000        2.104009         2    ;  uncertainty k = 0.296373
         1         2        11        34     9        0.000000        0.406291         3    ;  uncertainty k = 0.078213
         1         2        11        34     9      180.000000        0.330437         4    ;  uncertainty k = 0.062977
         1         2        11        35     9        0.000000        0.187272         1    ;  uncertainty k = 0.130961
         1         2        11        35     9      180.000000        2.104009         2    ;  uncertainty k = 0.296373
         1         2        11        35     9        0.000000        0.406291         3    ;  uncertainty k = 0.078213
         1         2        11        35     9      180.000000        0.330437         4    ;  uncertainty k = 0.062977
         1         2        11        36     9        0.000000        0.187272         1    ;  uncertainty k = 0.130961
         1         2        11        36     9      180.000000        2.104009         2    ;  uncertainty k = 0.296373
         1         2        11        36     9        0.000000        0.406291         3    ;  uncertainty k = 0.078213
         1         2        11        36     9      180.000000        0.330437         4    ;  uncertainty k = 0.062977
         1         6         5         4     9        0.000000        0.083084         1    ;  uncertainty k = 0.402877
         1         6         5         4     9      180.000000        9.025188         2    ;  uncertainty k = 0.422334
         1         6         5         4     9        0.000000        0.280970         3    ;  uncertainty k = 0.367443
         1         6         5         4     9      180.000000        1.306885         4    ;  uncertainty k = 0.340075
         1         6         5         7     9        0.000000        0.436231         1    ;  uncertainty k = 0.406160
         1         6         5         7     9      180.000000        9.045899         2    ;  uncertainty k = 0.634746
         1         6         5         7     9        0.000000        1.605545         3    ;  uncertainty k = 0.255818
         1         6         5         7     9      180.000000        1.903676         4    ;  uncertainty k = 0.302617
         1        12        13        14     9        0.000000       -0.321431         1    ;  uncertainty k = 0.425463
         1        12        13        14     9      180.000000        7.502171         2    ;  uncertainty k = 0.643996
         1        12        13        14     9        0.000000        0.415911         3    ;  uncertainty k = 0.279451
         1        12        13        14     9      180.000000        1.246044         4    ;  uncertainty k = 0.262634
         1        12        13        37     9        0.000000       -0.176129         1    ;  uncertainty k = 1.100603
         1        12        13        37     9      180.000000        6.574721         2    ;  uncertainty k = 0.250259
         1        12        13        37     9        0.000000        0.676718         3    ;  uncertainty k = 0.315037
         1        12        13        37     9      180.000000        0.972010         4    ;  uncertainty k = 0.229351
         1        12        17        16     9        0.000000        0.244259         1    ;  uncertainty k = 1.146605
         1        12        17        16     9      180.000000       14.966448         2    ;  uncertainty k = 0.593130
         1        12        17        16     9        0.000000        1.746565         3    ;  uncertainty k = 0.718817
         1        12        17        16     9      180.000000        1.264823         4    ;  uncertainty k = 0.354402
         2         1         6         5     9        0.000000        0.069104         1    ;  uncertainty k = 0.294506
         2         1         6         5     9      180.000000        9.027602         2    ;  uncertainty k = 0.516924
         2         1         6         5     9        0.000000        0.262753         3    ;  uncertainty k = 0.150136
         2         1         6         5     9      180.000000        1.215305         4    ;  uncertainty k = 0.287787
         2         1         6        29     9        0.000000        0.146092         1    ;  uncertainty k = 0.191685
         2         1         6        29     9      180.000000        7.352949         2    ;  uncertainty k = 0.378000
         2         1         6        29     9        0.000000        1.303065         3    ;  uncertainty k = 0.212890
         2         1         6        29     9      180.000000        1.632868         4    ;  uncertainty k = 0.164618
         2         1        12        13     9        0.000000        0.447284         1    ;  uncertainty k = 0.610977
         2         1        12        13     9      180.000000        4.912673         2    ;  uncertainty k = 0.231950
         2         1        12        13     9        0.000000        0.006834         3    ;  uncertainty k = 0.169188
         2         1        12        13     9      180.000000        0.234413         4    ;  uncertainty k = 0.197144
         2         1        12        17     9        0.000000        0.851673         1    ;  uncertainty k = 0.848480
         2         1        12        17     9      180.000000        5.463166         2    ;  uncertainty k = 0.281327
         2         1        12        17     9        0.000000        0.953353         3    ;  uncertainty k = 0.304387
         2         1        12        17     9      180.000000        0.208764         4    ;  uncertainty k = 0.056163
         2         3         4         5     9        0.000000       -0.052290         1    ;  uncertainty k = 0.242457
         2         3         4         5     9      180.000000        9.058402         2    ;  uncertainty k = 0.462788
         2         3         4         5     9        0.000000        0.352679         3    ;  uncertainty k = 0.272784
         2         3         4         5     9      180.000000        1.301841         4    ;  uncertainty k = 0.307233
         2         3         4         8     9        0.000000        0.069861         1    ;  uncertainty k = 0.212281
         2         3         4         8     9      180.000000        9.655664         2    ;  uncertainty k = 0.454675
         2         3         4         8     9        0.000000        1.454590         3    ;  uncertainty k = 0.193076
         2         3         4         8     9      180.000000        1.858204         4    ;  uncertainty k = 0.240681
         3         2         1         6     9        0.000000       -0.076243         1    ;  uncertainty k = 0.399614
         3         2         1         6     9      180.000000        7.804226         2    ;  uncertainty k = 0.494137
         3         2         1         6     9        0.000000        0.066313         3    ;  uncertainty k = 0.247156
         3         2         1         6     9      180.000000        1.198985         4    ;  uncertainty k = 0.263589
         3         2         1        12     9        0.000000        0.254921         1    ;  uncertainty k = 0.329271
         3         2         1        12     9      180.000000        7.748454         2    ;  uncertainty k = 0.499817
         3         2         1        12     9        0.000000        1.489991         3    ;  uncertainty k = 0.424879
         3         2         1        12     9      180.000000        1.750060         4    ;  uncertainty k = 0.219442
         3         2        11        34     9        0.000000       -0.167719         1    ;  uncertainty k = 0.181656
         3         2        11        34     9      180.000000        1.776974         2    ;  uncertainty k = 0.164039
         3         2        11        34     9        0.000000        0.426580         3    ;  uncertainty k = 0.080680
         3         2        11        34     9      180.000000        0.263411         4    ;  uncertainty k = 0.013999
         3         2        11        35     9        0.000000       -0.167719         1    ;  uncertainty k = 0.181656
         3         2        11        35     9      180.000000        1.776974         2    ;  uncertainty k = 0.164039
         3         2        11        35     9        0.000000        0.426580         3    ;  uncertainty k = 0.080680
         3         2        11        35     9      180.000000        0.263411         4    ;  uncertainty k = 0.013999
         3         2        11        36     9        0.000000       -0.167719         1    ;  uncertainty k = 0.181656
         3         2        11        36     9      180.000000        1.776974         2    ;  uncertainty k = 0.164039
         3         2        11        36     9        0.000000        0.426580         3    ;  uncertainty k = 0.080680
         3         2        11        36     9      180.000000        0.263411         4    ;  uncertainty k = 0.013999
         3         4         5         6     9        0.000000       -0.293860         1    ;  uncertainty k = 0.135274
         3         4         5         6     9      180.000000        8.125448         2    ;  uncertainty k = 0.357463
         3         4         5         6     9        0.000000       -0.238808         3    ;  uncertainty k = 0.138854
         3         4         5         6     9      180.000000        1.140141         4    ;  uncertainty k = 0.253598
         3         4         5         7     9        0.000000        0.497612         1    ;  uncertainty k = 0.434580
         3         4         5         7     9      180.000000        7.634845         2    ;  uncertainty k = 0.628568
         3         4         5         7     9        0.000000        1.636562         3    ;  uncertainty k = 0.315050
         3         4         5         7     9      180.000000        1.761964         4    ;  uncertainty k = 0.263641
         3         4         8        30     9        0.000000       -0.205924         1    ;  uncertainty k = 0.272589
         3         4         8        30     9      180.000000        1.837765         2    ;  uncertainty k = 0.160457
         3         4         8        30     9        0.000000        0.442311         3    ;  uncertainty k = 0.068830
         3         4         8        30     9      180.000000        0.263728         4    ;  uncertainty k = 0.017497
         3         4         8        31     9        0.000000       -0.205924         1    ;  uncertainty k = 0.272589
         3         4         8        31     9      180.000000        1.837765         2    ;  uncertainty k = 0.160457
         3         4         8        31     9        0.000000        0.442311         3    ;  uncertainty k = 0.068830
         3         4         8        31     9      180.000000        0.263728         4    ;  uncertainty k = 0.017497
         3         4         8        32     9        0.000000       -0.205924         1    ;  uncertainty k = 0.272589
         3         4         8        32     9      180.000000        1.837765         2    ;  uncertainty k = 0.160457
         3         4         8        32     9        0.000000        0.442311         3    ;  uncertainty k = 0.068830
         3         4         8        32     9      180.000000        0.263728         4    ;  uncertainty k = 0.017497
         4         3         2        11     9        0.000000        0.107277         1    ;  uncertainty k = 0.249614
         4         3         2        11     9      180.000000        9.350175         2    ;  uncertainty k = 0.482290
         4         3         2        11     9        0.000000        1.504012         3    ;  uncertainty k = 0.236517
         4         3         2        11     9      180.000000        1.867249         4    ;  uncertainty k = 0.225363
         4         5         6        29     9        0.000000        0.211412         1    ;  uncertainty k = 0.226074
         4         5         6        29     9      180.000000        7.483476         2    ;  uncertainty k = 0.410379
         4         5         6        29     9        0.000000        1.278343         3    ;  uncertainty k = 0.298338
         4         5         6        29     9      180.000000        1.702003         4    ;  uncertainty k = 0.237390
         4         5         7         9     9        0.000000       -1.052433         1    ;  uncertainty k = 0.231620
         4         5         7         9     9      180.000000        4.699884         2    ;  uncertainty k = 0.244713
         4         5         7         9     9        0.000000        0.452944         3    ;  uncertainty k = 0.156371
         4         5         7         9     9      180.000000        0.295001         4    ;  uncertainty k = 0.085971
         4         5         7        10     9        0.000000        0.979488         1    ;  uncertainty k = 0.573015
         4         5         7        10     9      180.000000        2.191820         2    ;  uncertainty k = 0.157373
         4         5         7        10     9        0.000000        0.012593         3    ;  uncertainty k = 0.074309
         4         5         7        10     9      180.000000       -0.102635         4    ;  uncertainty k = 0.020616
         5         4         3        28     9        0.000000       -0.021992         1    ;  uncertainty k = 0.438519
         5         4         3        28     9      180.000000        7.621873         2    ;  uncertainty k = 0.302747
         5         4         3        28     9        0.000000        1.443736         3    ;  uncertainty k = 0.167878
         5         4         3        28     9      180.000000        1.658515         4    ;  uncertainty k = 0.166420
         5         4         8        30     9        0.000000        0.386702         1    ;  uncertainty k = 0.220848
         5         4         8        30     9      180.000000        2.106355         2    ;  uncertainty k = 0.214833
         5         4         8        30     9        0.000000        0.232895         3    ;  uncertainty k = 0.123793
         5         4         8        30     9      180.000000        0.310411         4    ;  uncertainty k = 0.098103
         5         4         8        31     9        0.000000        0.386702         1    ;  uncertainty k = 0.220848
         5         4         8        31     9      180.000000        2.106355         2    ;  uncertainty k = 0.214833
         5         4         8        31     9        0.000000        0.232895         3    ;  uncertainty k = 0.123793
         5         4         8        31     9      180.000000        0.310411         4    ;  uncertainty k = 0.098103
         5         4         8        32     9        0.000000        0.386702         1    ;  uncertainty k = 0.220848
         5         4         8        32     9      180.000000        2.106355         2    ;  uncertainty k = 0.214833
         5         4         8        32     9        0.000000        0.232895         3    ;  uncertainty k = 0.123793
         5         4         8        32     9      180.000000        0.310411         4    ;  uncertainty k = 0.098103
         5         6         1        12     9        0.000000        0.130924         1    ;  uncertainty k = 0.371581
         5         6         1        12     9      180.000000        8.546798         2    ;  uncertainty k = 0.605432
         5         6         1        12     9        0.000000        1.271687         3    ;  uncertainty k = 0.216950
         5         6         1        12     9      180.000000        1.841879         4    ;  uncertainty k = 0.206974
         5         7        10        19     9        0.000000        5.565873         1    ;  uncertainty k = 1.416059
         5         7        10        19     9      180.000000       11.837339         2    ;  uncertainty k = 0.204976
         5         7        10        19     9        0.000000        1.986077         3    ;  uncertainty k = 0.546056
         5         7        10        19     9      180.000000       -1.126277         4    ;  uncertainty k = 0.312214
         5         7        10        33     9        0.000000        0.487480         1    ;  uncertainty k = 0.904960
         5         7        10        33     9      180.000000        6.931849         2    ;  uncertainty k = 0.588339
         5         7        10        33     9        0.000000        2.450318         3    ;  uncertainty k = 0.226701
         5         7        10        33     9      180.000000        0.113359         4    ;  uncertainty k = 0.262574
         6         1         2        11     9        0.000000        0.164623         1    ;  uncertainty k = 0.306764
         6         1         2        11     9      180.000000        7.368151         2    ;  uncertainty k = 0.647968
         6         1         2        11     9        0.000000        1.147781         3    ;  uncertainty k = 0.239171
         6         1         2        11     9      180.000000        1.748949         4    ;  uncertainty k = 0.286244
         6         1        12        13     9        0.000000       -0.403685         1    ;  uncertainty k = 0.378954
         6         1        12        13     9      180.000000        4.646323         2    ;  uncertainty k = 0.375311
         6         1        12        13     9        0.000000        0.685819         3    ;  uncertainty k = 0.125056
         6         1        12        13     9      180.000000        0.112451         4    ;  uncertainty k = 0.088369
         6         1        12        17     9        0.000000        1.852279         1    ;  uncertainty k = 0.649017
         6         1        12        17     9      180.000000        5.604551         2    ;  uncertainty k = 0.245135
         6         1        12        17     9        0.000000        0.521423         3    ;  uncertainty k = 0.209853
         6         1        12        17     9      180.000000        0.187317         4    ;  uncertainty k = 0.055643
         6         5         4         8     9        0.000000        0.194023         1    ;  uncertainty k = 0.342997
         6         5         4         8     9      180.000000        7.567417         2    ;  uncertainty k = 0.477879
         6         5         4         8     9        0.000000        1.166845         3    ;  uncertainty k = 0.220532
         6         5         4         8     9      180.000000        1.755343         4    ;  uncertainty k = 0.239591
         6         5         7         9     9        0.000000        0.353812         1    ;  uncertainty k = 0.490479
         6         5         7         9     9      180.000000        4.378267         2    ;  uncertainty k = 0.288748
         6         5         7         9     9        0.000000        0.473604         3    ;  uncertainty k = 0.176365
         6         5         7         9     9      180.000000        0.202567         4    ;  uncertainty k = 0.090163
         6         5         7        10     9        0.000000       -0.530205         1    ;  uncertainty k = 0.696218
         6         5         7        10     9      180.000000        2.614921         2    ;  uncertainty k = 0.248766
         6         5         7        10     9        0.000000        0.293829         3    ;  uncertainty k = 0.124211
         6         5         7        10     9      180.000000       -0.114331         4    ;  uncertainty k = 0.103897
         7         5         4         8     9        0.000000       -0.159033         1    ;  uncertainty k = 0.539980
         7         5         4         8     9      180.000000       10.114389         2    ;  uncertainty k = 0.361783
         7         5         4         8     9        0.000000        1.290404         3    ;  uncertainty k = 0.313631
         7         5         4         8     9      180.000000        1.314322         4    ;  uncertainty k = 0.286656
         7         5         6        29     9        0.000000       -0.135871         1    ;  uncertainty k = 0.590358
         7         5         6        29     9      180.000000        8.857632         2    ;  uncertainty k = 0.679599
         7         5         6        29     9        0.000000        1.159803         3    ;  uncertainty k = 0.110877
         7         5         6        29     9      180.000000        1.268814         4    ;  uncertainty k = 0.381258
         7        10        19        20     9        0.000000       -0.708520         1    ;  uncertainty k = 0.220313
         7        10        19        20     9      180.000000       -0.108328         2    ;  uncertainty k = 0.206464
         7        10        19        20     9        0.000000        0.226490         3    ;  uncertainty k = 0.105208
         7        10        19        20     9      180.000000        0.402565         4    ;  uncertainty k = 0.023604
         7        10        19        38     9        0.000000        0.816827         1    ;  uncertainty k = 0.248789
         7        10        19        38     9      180.000000       -0.505056         2    ;  uncertainty k = 0.221376
         7        10        19        38     9        0.000000        0.315232         3    ;  uncertainty k = 0.060825
         7        10        19        38     9      180.000000        0.311820         4    ;  uncertainty k = 0.063333
         7        10        19        39     9        0.000000        0.816827         1    ;  uncertainty k = 0.248789
         7        10        19        39     9      180.000000       -0.505056         2    ;  uncertainty k = 0.221376
         7        10        19        39     9        0.000000        0.315232         3    ;  uncertainty k = 0.060825
         7        10        19        39     9      180.000000        0.311820         4    ;  uncertainty k = 0.063333
         8         4         3        28     9        0.000000       -0.270138         1    ;  uncertainty k = 0.463150
         8         4         3        28     9      180.000000        8.731838         2    ;  uncertainty k = 0.254873
         8         4         3        28     9        0.000000        0.437392         3    ;  uncertainty k = 0.195641
         8         4         3        28     9      180.000000        1.095686         4    ;  uncertainty k = 0.166265
         9         7        10        19     9        0.000000        2.997028         1    ;  uncertainty k = 0.731617
         9         7        10        19     9      180.000000       12.669251         2    ;  uncertainty k = 0.225845
         9         7        10        19     9        0.000000        0.197051         3    ;  uncertainty k = 0.382535
         9         7        10        19     9      180.000000        0.184933         4    ;  uncertainty k = 0.236107
         9         7        10        33     9        0.000000        3.024781         1    ;  uncertainty k = 0.766769
         9         7        10        33     9      180.000000       15.322649         2    ;  uncertainty k = 0.159456
         9         7        10        33     9        0.000000        1.643297         3    ;  uncertainty k = 0.304488
         9         7        10        33     9      180.000000       -0.331877         4    ;  uncertainty k = 0.194774
        10        19        20        45     9        0.000000       -4.429194         1    ;  uncertainty k = 0.670917
        10        19        20        45     9      180.000000       -0.937506         2    ;  uncertainty k = 0.421408
        10        19        20        45     9        0.000000        1.936538         3    ;  uncertainty k = 0.190070
        10        19        20        45     9      180.000000       -0.452083         4    ;  uncertainty k = 0.144877
        10        19        20        46     9        0.000000       -0.565261         1    ;  uncertainty k = 0.321627
        10        19        20        46     9      180.000000       -2.170665         2    ;  uncertainty k = 0.304630
        10        19        20        46     9        0.000000        1.426119         3    ;  uncertainty k = 0.193263
        10        19        20        46     9      180.000000       -0.100253         4    ;  uncertainty k = 0.074891
        10        19        20        47     9        0.000000       -0.565261         1    ;  uncertainty k = 0.321627
        10        19        20        47     9      180.000000       -2.170665         2    ;  uncertainty k = 0.304630
        10        19        20        47     9        0.000000        1.426119         3    ;  uncertainty k = 0.193263
        10        19        20        47     9      180.000000       -0.100253         4    ;  uncertainty k = 0.074891
        11         2         1        12     9        0.000000       -0.082162         1    ;  uncertainty k = 0.442117
        11         2         1        12     9      180.000000        9.076237         2    ;  uncertainty k = 0.262776
        11         2         1        12     9        0.000000        0.953189         3    ;  uncertainty k = 0.211610
        11         2         1        12     9      180.000000        1.367324         4    ;  uncertainty k = 0.160890
        11         2         3        28     9        0.000000       -0.286976         1    ;  uncertainty k = 0.403136
        11         2         3        28     9      180.000000        8.721450         2    ;  uncertainty k = 0.323593
        11         2         3        28     9        0.000000        0.417568         3    ;  uncertainty k = 0.150482
        11         2         3        28     9      180.000000        1.068619         4    ;  uncertainty k = 0.186229
        12         1         6        29     9        0.000000       -0.177779         1    ;  uncertainty k = 0.112354
        12         1         6        29     9      180.000000        8.085669         2    ;  uncertainty k = 0.253886
        12         1         6        29     9        0.000000        0.902999         3    ;  uncertainty k = 0.158446
        12         1         6        29     9      180.000000        1.424820         4    ;  uncertainty k = 0.123998
        12        13        14        15     9        0.000000       -0.159512         1    ;  uncertainty k = 0.109282
        12        13        14        15     9      180.000000       10.254345         2    ;  uncertainty k = 0.460793
        12        13        14        15     9        0.000000       -1.053061         3    ;  uncertainty k = 0.573542
        12        13        14        15     9      180.000000        1.089129         4    ;  uncertainty k = 0.164375
        12        13        14        27     9        0.000000       -0.541121         1    ;  uncertainty k = 0.646060
        12        13        14        27     9      180.000000        5.897745         2    ;  uncertainty k = 0.791274
        12        13        14        27     9        0.000000        0.219695         3    ;  uncertainty k = 0.303087
        12        13        14        27     9      180.000000        1.170261         4    ;  uncertainty k = 0.332911
        12        17        16        15     9        0.000000       -0.855546         1    ;  uncertainty k = 1.109168
        12        17        16        15     9      180.000000        7.367040         2    ;  uncertainty k = 0.707693
        12        17        16        15     9        0.000000        0.687892         3    ;  uncertainty k = 0.621250
        12        17        16        15     9      180.000000        0.883129         4    ;  uncertainty k = 0.262426
        12        17        16        18     9        0.000000        0.040992         1    ;  uncertainty k = 0.983445
        12        17        16        18     9      180.000000       10.552957         2    ;  uncertainty k = 0.579623
        12        17        16        18     9        0.000000        2.430816         3    ;  uncertainty k = 0.611975
        12        17        16        18     9      180.000000        1.248464         4    ;  uncertainty k = 0.285283
        13        12        17        16     9        0.000000       -0.245873         1    ;  uncertainty k = 0.321293
        13        12        17        16     9      180.000000       14.375313         2    ;  uncertainty k = 0.447580
        13        12        17        16     9        0.000000        0.230924         3    ;  uncertainty k = 0.672372
        13        12        17        16     9      180.000000        1.083894         4    ;  uncertainty k = 0.192499
        13        14        15        16     9        0.000000       -0.487495         1    ;  uncertainty k = 0.442808
        13        14        15        16     9      180.000000       12.826187         2    ;  uncertainty k = 0.436539
        13        14        15        16     9        0.000000        0.012124         3    ;  uncertainty k = 0.899535
        13        14        15        16     9      180.000000        1.102264         4    ;  uncertainty k = 0.244922
        13        14        27        26     9        0.000000        1.667661         1    ;  uncertainty k = 1.116089
        13        14        27        26     9      180.000000        7.374763         2    ;  uncertainty k = 0.299740
        13        14        27        26     9        0.000000       -0.307042         3    ;  uncertainty k = 0.204327
        13        14        27        26     9      180.000000        0.230352         4    ;  uncertainty k = 0.164555
        14        13        12        17     9        0.000000       -0.131464         1    ;  uncertainty k = 0.390101
        14        13        12        17     9      180.000000       12.039285         2    ;  uncertainty k = 0.566223
        14        13        12        17     9        0.000000       -1.052560         3    ;  uncertainty k = 0.636511
        14        13        12        17     9      180.000000        1.039436         4    ;  uncertainty k = 0.231891
        14        15        16        17     9        0.000000       -0.661864         1    ;  uncertainty k = 0.730979
        14        15        16        17     9      180.000000        8.257174         2    ;  uncertainty k = 0.921146
        14        15        16        17     9        0.000000        0.726787         3    ;  uncertainty k = 0.507850
        14        15        16        17     9      180.000000        0.772100         4    ;  uncertainty k = 0.189803
        14        15        16        18     9        0.000000        0.278320         1    ;  uncertainty k = 1.183323
        14        15        16        18     9      180.000000       11.383611         2    ;  uncertainty k = 0.722059
        14        15        16        18     9        0.000000        2.453335         3    ;  uncertainty k = 0.665336
        14        15        16        18     9      180.000000        1.139461         4    ;  uncertainty k = 0.398377
        14        27        26        24     9        0.000000       -0.696198         1    ;  uncertainty k = 0.777658
        14        27        26        24     9      180.000000       -3.575748         2    ;  uncertainty k = 1.009741
        14        27        26        24     9        0.000000        1.174051         3    ;  uncertainty k = 0.296833
        14        27        26        24     9      180.000000        0.424333         4    ;  uncertainty k = 0.133703
        14        27        26        43     9        0.000000        4.562040         1    ;  uncertainty k = 0.243773
        14        27        26        43     9      180.000000       -2.733904         2    ;  uncertainty k = 0.571798
        14        27        26        43     9        0.000000        0.236269         3    ;  uncertainty k = 0.156152
        14        27        26        43     9      180.000000        0.041900         4    ;  uncertainty k = 0.129416
        14        27        26        44     9        0.000000        4.562040         1    ;  uncertainty k = 0.243773
        14        27        26        44     9      180.000000       -2.733904         2    ;  uncertainty k = 0.571798
        14        27        26        44     9        0.000000        0.236269         3    ;  uncertainty k = 0.156152
        14        27        26        44     9      180.000000        0.041900         4    ;  uncertainty k = 0.129416
        15        14        13        37     9        0.000000        0.161171         1    ;  uncertainty k = 0.562370
        15        14        13        37     9      180.000000        7.820185         2    ;  uncertainty k = 0.406742
        15        14        13        37     9        0.000000        1.295959         3    ;  uncertainty k = 0.377810
        15        14        13        37     9      180.000000        1.552236         4    ;  uncertainty k = 0.083705
        15        14        27        26     9        0.000000        6.456724         1    ;  uncertainty k = 0.557929
        15        14        27        26     9      180.000000        9.239847         2    ;  uncertainty k = 0.286269
        15        14        27        26     9        0.000000        0.699107         3    ;  uncertainty k = 0.102948
        15        14        27        26     9      180.000000        0.255685         4    ;  uncertainty k = 0.161668
        15        16        18        52     9        0.000000       22.495917         1    ;  uncertainty k = 0.139710
        15        16        18        52     9      180.000000       10.768504         2    ;  uncertainty k = 0.192224
        15        16        18        52     9        0.000000        0.974515         3    ;  uncertainty k = 0.097047
        15        16        18        52     9      180.000000       -0.453195         4    ;  uncertainty k = 0.113550
        15        16        18        53     9        0.000000       22.495917         1    ;  uncertainty k = 0.139710
        15        16        18        53     9      180.000000       10.768504         2    ;  uncertainty k = 0.192224
        15        16        18        53     9        0.000000        0.974515         3    ;  uncertainty k = 0.097047
        15        16        18        53     9      180.000000       -0.453195         4    ;  uncertainty k = 0.113550
        16        15        14        27     9        0.000000       -0.028644         1    ;  uncertainty k = 1.310742
        16        15        14        27     9      180.000000       13.274325         2    ;  uncertainty k = 0.655880
        16        15        14        27     9        0.000000        1.867809         3    ;  uncertainty k = 0.526636
        16        15        14        27     9      180.000000        1.517117         4    ;  uncertainty k = 0.475136
        17        12        13        37     9        0.000000        0.279760         1    ;  uncertainty k = 0.536195
        17        12        13        37     9      180.000000        8.448364         2    ;  uncertainty k = 0.415812
        17        12        13        37     9        0.000000        1.271394         3    ;  uncertainty k = 0.313689
        17        12        13        37     9      180.000000        1.615723         4    ;  uncertainty k = 0.066846
        17        16        18        52     9        0.000000       21.465241         1    ;  uncertainty k = 0.169086
        17        16        18        52     9      180.000000       10.827138         2    ;  uncertainty k = 0.134815
        17        16        18        52     9        0.000000        0.922758         3    ;  uncertainty k = 0.123938
        17        16        18        52     9      180.000000       -0.407246         4    ;  uncertainty k = 0.151758
        17        16        18        53     9        0.000000       21.465241         1    ;  uncertainty k = 0.169086
        17        16        18        53     9      180.000000       10.827138         2    ;  uncertainty k = 0.134815
        17        16        18        53     9        0.000000        0.922758         3    ;  uncertainty k = 0.123938
        17        16        18        53     9      180.000000       -0.407246         4    ;  uncertainty k = 0.151758
        19        20        45        21     9        0.000000       -5.642623         1    ;  uncertainty k = 0.509588
        19        20        45        21     9      180.000000       -1.202047         2    ;  uncertainty k = 0.324261
        19        20        45        21     9        0.000000        1.816589         3    ;  uncertainty k = 0.224316
        19        20        45        21     9      180.000000       -0.610800         4    ;  uncertainty k = 0.081395
        19        20        45        50     9        0.000000       -1.588912         1    ;  uncertainty k = 0.281413
        19        20        45        50     9      180.000000       -0.737213         2    ;  uncertainty k = 0.173677
        19        20        45        50     9        0.000000        0.951222         3    ;  uncertainty k = 0.119913
        19        20        45        50     9      180.000000       -0.308607         4    ;  uncertainty k = 0.062534
        19        20        45        51     9        0.000000       -1.588912         1    ;  uncertainty k = 0.281413
        19        20        45        51     9      180.000000       -0.737213         2    ;  uncertainty k = 0.173677
        19        20        45        51     9        0.000000        0.951222         3    ;  uncertainty k = 0.119913
        19        20        45        51     9      180.000000       -0.308607         4    ;  uncertainty k = 0.062534
        20        19        10        33     9        0.000000        1.384393         1    ;  uncertainty k = 0.551138
        20        19        10        33     9      180.000000       -1.807745         2    ;  uncertainty k = 0.231138
        20        19        10        33     9        0.000000        0.446524         3    ;  uncertainty k = 0.061924
        20        19        10        33     9      180.000000        0.013655         4    ;  uncertainty k = 0.044694
        20        45        21        22     9        0.000000       -4.476972         1    ;  uncertainty k = 0.626647
        20        45        21        22     9      180.000000       -0.897612         2    ;  uncertainty k = 0.229420
        20        45        21        22     9        0.000000        2.060937         3    ;  uncertainty k = 0.166180
        20        45        21        22     9      180.000000       -0.496319         4    ;  uncertainty k = 0.170047
        20        45        21        48     9        0.000000       -1.928405         1    ;  uncertainty k = 0.401068
        20        45        21        48     9      180.000000       -0.025762         2    ;  uncertainty k = 0.155620
        20        45        21        48     9        0.000000        0.895843         3    ;  uncertainty k = 0.086969
        20        45        21        48     9      180.000000       -0.336314         4    ;  uncertainty k = 0.095746
        20        45        21        49     9        0.000000       -1.928405         1    ;  uncertainty k = 0.401068
        20        45        21        49     9      180.000000       -0.025762         2    ;  uncertainty k = 0.155620
        20        45        21        49     9        0.000000        0.895843         3    ;  uncertainty k = 0.086969
        20        45        21        49     9      180.000000       -0.336314         4    ;  uncertainty k = 0.095746
        21        22        23        24     9        0.000000        7.712610         1    ;  uncertainty k = 0.507108
        21        22        23        24     9      180.000000        8.725054         2    ;  uncertainty k = 0.280591
        21        22        23        24     9        0.000000        1.651748         3    ;  uncertainty k = 0.219693
        21        22        23        24     9      180.000000        0.036391         4    ;  uncertainty k = 0.146984
        21        22        23        25     9        0.000000        6.079617         1    ;  uncertainty k = 0.356160
        21        22        23        25     9      180.000000       16.678863         2    ;  uncertainty k = 0.171635
        21        22        23        25     9        0.000000        0.563989         3    ;  uncertainty k = 0.218229
        21        22        23        25     9      180.000000       -0.657290         4    ;  uncertainty k = 0.243505
        21        45        20        46     9        0.000000       -1.596934         1    ;  uncertainty k = 0.270566
        21        45        20        46     9      180.000000       -0.731874         2    ;  uncertainty k = 0.172904
        21        45        20        46     9        0.000000        0.952149         3    ;  uncertainty k = 0.124256
        21        45        20        46     9      180.000000       -0.303420         4    ;  uncertainty k = 0.064632
        21        45        20        47     9        0.000000       -1.596934         1    ;  uncertainty k = 0.270566
        21        45        20        47     9      180.000000       -0.731874         2    ;  uncertainty k = 0.172904
        21        45        20        47     9        0.000000        0.952149         3    ;  uncertainty k = 0.124256
        21        45        20        47     9      180.000000       -0.303420         4    ;  uncertainty k = 0.064632
        22        21        45        50     9        0.000000       -0.710589         1    ;  uncertainty k = 0.401012
        22        21        45        50     9      180.000000       -2.078401         2    ;  uncertainty k = 0.257415
        22        21        45        50     9        0.000000        1.433213         3    ;  uncertainty k = 0.195661
        22        21        45        50     9      180.000000       -0.104670         4    ;  uncertainty k = 0.107519
        22        21        45        51     9        0.000000       -0.710589         1    ;  uncertainty k = 0.401012
        22        21        45        51     9      180.000000       -2.078401         2    ;  uncertainty k = 0.257415
        22        21        45        51     9        0.000000        1.433213         3    ;  uncertainty k = 0.195661
        22        21        45        51     9      180.000000       -0.104670         4    ;  uncertainty k = 0.107519
        22        23        24        26     9        0.000000       -2.136722         1    ;  uncertainty k = 0.970380
        22        23        24        26     9      180.000000        2.505766         2    ;  uncertainty k = 0.344073
        22        23        24        26     9        0.000000        0.227471         3    ;  uncertainty k = 0.115559
        22        23        24        26     9      180.000000        0.076654         4    ;  uncertainty k = 0.103937
        22        23        24        41     9        0.000000       -0.999544         1    ;  uncertainty k = 0.252140
        22        23        24        41     9      180.000000        2.238614         2    ;  uncertainty k = 0.287707
        22        23        24        41     9        0.000000        0.333107         3    ;  uncertainty k = 0.038720
        22        23        24        41     9      180.000000        0.066608         4    ;  uncertainty k = 0.072196
        22        23        24        42     9        0.000000       -0.999544         1    ;  uncertainty k = 0.252140
        22        23        24        42     9      180.000000        2.238614         2    ;  uncertainty k = 0.287707
        22        23        24        42     9        0.000000        0.333107         3    ;  uncertainty k = 0.038720
        22        23        24        42     9      180.000000        0.066608         4    ;  uncertainty k = 0.072196
        23        22        21        45     9        0.000000       -0.680009         1    ;  uncertainty k = 0.074908
        23        22        21        45     9      180.000000       -0.021944         2    ;  uncertainty k = 0.151653
        23        22        21        45     9        0.000000        0.187528         3    ;  uncertainty k = 0.176469
        23        22        21        45     9      180.000000        0.495279         4    ;  uncertainty k = 0.062373
        23        22        21        48     9        0.000000        0.755240         1    ;  uncertainty k = 0.257193
        23        22        21        48     9      180.000000       -0.376576         2    ;  uncertainty k = 0.109039
        23        22        21        48     9        0.000000        0.390612         3    ;  uncertainty k = 0.150544
        23        22        21        48     9      180.000000        0.302022         4    ;  uncertainty k = 0.063156
        23        22        21        49     9        0.000000        0.755240         1    ;  uncertainty k = 0.257193
        23        22        21        49     9      180.000000       -0.376576         2    ;  uncertainty k = 0.109039
        23        22        21        49     9        0.000000        0.390612         3    ;  uncertainty k = 0.150544
        23        22        21        49     9      180.000000        0.302022         4    ;  uncertainty k = 0.063156
        23        24        26        27     9        0.000000       -1.231566         1    ;  uncertainty k = 0.870830
        23        24        26        27     9      180.000000       -1.807968         2    ;  uncertainty k = 0.358386
        23        24        26        27     9        0.000000        1.367536         3    ;  uncertainty k = 0.280268
        23        24        26        27     9      180.000000        0.433090         4    ;  uncertainty k = 0.324194
        23        24        26        43     9        0.000000        0.413926         1    ;  uncertainty k = 0.645753
        23        24        26        43     9      180.000000        0.081039         2    ;  uncertainty k = 0.163227
        23        24        26        43     9        0.000000        0.681289         3    ;  uncertainty k = 0.092569
        23        24        26        43     9      180.000000       -0.113867         4    ;  uncertainty k = 0.059847
        23        24        26        44     9        0.000000        0.413926         1    ;  uncertainty k = 0.645753
        23        24        26        44     9      180.000000        0.081039         2    ;  uncertainty k = 0.163227
        23        24        26        44     9        0.000000        0.681289         3    ;  uncertainty k = 0.092569
        23        24        26        44     9      180.000000       -0.113867         4    ;  uncertainty k = 0.059847
        24        23        22        40     9        0.000000        0.259663         1    ;  uncertainty k = 0.751635
        24        23        22        40     9      180.000000        6.366850         2    ;  uncertainty k = 0.650745
        24        23        22        40     9        0.000000        1.760754         3    ;  uncertainty k = 0.375010
        24        23        22        40     9      180.000000        0.405172         4    ;  uncertainty k = 0.282511
        25        23        22        40     9        0.000000        4.652920         1    ;  uncertainty k = 0.348771
        25        23        22        40     9      180.000000       17.227132         2    ;  uncertainty k = 0.129756
        25        23        22        40     9        0.000000        0.993041         3    ;  uncertainty k = 0.269852
        25        23        22        40     9      180.000000       -0.403371         4    ;  uncertainty k = 0.118095
        25        23        24        26     9        0.000000       -3.307745         1    ;  uncertainty k = 0.662547
        25        23        24        26     9      180.000000        4.798017         2    ;  uncertainty k = 0.369565
        25        23        24        26     9        0.000000        0.969812         3    ;  uncertainty k = 0.150750
        25        23        24        26     9      180.000000        0.342683         4    ;  uncertainty k = 0.042914
        25        23        24        41     9        0.000000       -0.298072         1    ;  uncertainty k = 0.275814
        25        23        24        41     9      180.000000        3.487643         2    ;  uncertainty k = 0.313548
        25        23        24        41     9        0.000000        0.632025         3    ;  uncertainty k = 0.055618
        25        23        24        41     9      180.000000        0.328079         4    ;  uncertainty k = 0.063742
        25        23        24        42     9        0.000000       -0.298072         1    ;  uncertainty k = 0.275814
        25        23        24        42     9      180.000000        3.487643         2    ;  uncertainty k = 0.313548
        25        23        24        42     9        0.000000        0.632025         3    ;  uncertainty k = 0.055618
        25        23        24        42     9      180.000000        0.328079         4    ;  uncertainty k = 0.063742
        27        14        13        37     9        0.000000       -0.496190         1    ;  uncertainty k = 0.661919
        27        14        13        37     9      180.000000        5.633062         2    ;  uncertainty k = 0.246602
        27        14        13        37     9        0.000000        0.651194         3    ;  uncertainty k = 0.223724
        27        14        13        37     9      180.000000        0.875120         4    ;  uncertainty k = 0.112799
        27        26        24        41     9        0.000000        1.734214         1    ;  uncertainty k = 0.592519
        27        26        24        41     9      180.000000       -1.645560         2    ;  uncertainty k = 0.325412
        27        26        24        41     9        0.000000        1.051478         3    ;  uncertainty k = 0.094213
        27        26        24        41     9      180.000000       -0.088910         4    ;  uncertainty k = 0.144161
        27        26        24        42     9        0.000000        1.734214         1    ;  uncertainty k = 0.592519
        27        26        24        42     9      180.000000       -1.645560         2    ;  uncertainty k = 0.325412
        27        26        24        42     9        0.000000        1.051478         3    ;  uncertainty k = 0.094213
        27        26        24        42     9      180.000000       -0.088910         4    ;  uncertainty k = 0.144161
        33        10        19        38     9        0.000000        0.434569         1    ;  uncertainty k = 0.145878
        33        10        19        38     9      180.000000       -0.810839         2    ;  uncertainty k = 0.187191
        33        10        19        38     9        0.000000        0.257772         3    ;  uncertainty k = 0.036257
        33        10        19        38     9      180.000000        0.199850         4    ;  uncertainty k = 0.042654
        33        10        19        39     9        0.000000        0.434569         1    ;  uncertainty k = 0.145878
        33        10        19        39     9      180.000000       -0.810839         2    ;  uncertainty k = 0.187191
        33        10        19        39     9        0.000000        0.257772         3    ;  uncertainty k = 0.036257
        33        10        19        39     9      180.000000        0.199850         4    ;  uncertainty k = 0.042654
        38        19        20        45     9        0.000000       -1.941202         1    ;  uncertainty k = 0.431910
        38        19        20        45     9      180.000000       -0.011172         2    ;  uncertainty k = 0.182971
        38        19        20        45     9        0.000000        0.885587         3    ;  uncertainty k = 0.094535
        38        19        20        45     9      180.000000       -0.346326         4    ;  uncertainty k = 0.093306
        38        19        20        46     9        0.000000        0.823576         1    ;  uncertainty k = 0.253453
        38        19        20        46     9      180.000000       -0.465827         2    ;  uncertainty k = 0.154389
        38        19        20        46     9        0.000000        0.006224         3    ;  uncertainty k = 0.043144
        38        19        20        46     9      180.000000       -0.059544         4    ;  uncertainty k = 0.055044
        38        19        20        47     9        0.000000        0.823576         1    ;  uncertainty k = 0.253453
        38        19        20        47     9      180.000000       -0.465827         2    ;  uncertainty k = 0.154389
        38        19        20        47     9        0.000000        0.006224         3    ;  uncertainty k = 0.043144
        38        19        20        47     9      180.000000       -0.059544         4    ;  uncertainty k = 0.055044
        39        19        20        45     9        0.000000       -1.941202         1    ;  uncertainty k = 0.431910
        39        19        20        45     9      180.000000       -0.011172         2    ;  uncertainty k = 0.182971
        39        19        20        45     9        0.000000        0.885587         3    ;  uncertainty k = 0.094535
        39        19        20        45     9      180.000000       -0.346326         4    ;  uncertainty k = 0.093306
        39        19        20        46     9        0.000000        0.823576         1    ;  uncertainty k = 0.253453
        39        19        20        46     9      180.000000       -0.465827         2    ;  uncertainty k = 0.154389
        39        19        20        46     9        0.000000        0.006224         3    ;  uncertainty k = 0.043144
        39        19        20        46     9      180.000000       -0.059544         4    ;  uncertainty k = 0.055044
        39        19        20        47     9        0.000000        0.823576         1    ;  uncertainty k = 0.253453
        39        19        20        47     9      180.000000       -0.465827         2    ;  uncertainty k = 0.154389
        39        19        20        47     9        0.000000        0.006224         3    ;  uncertainty k = 0.043144
        39        19        20        47     9      180.000000       -0.059544         4    ;  uncertainty k = 0.055044
        40        22        21        45     9        0.000000        1.481265         1    ;  uncertainty k = 0.358123
        40        22        21        45     9      180.000000       -1.847658         2    ;  uncertainty k = 0.208443
        40        22        21        45     9        0.000000        0.454211         3    ;  uncertainty k = 0.104713
        40        22        21        45     9      180.000000        0.050304         4    ;  uncertainty k = 0.060890
        40        22        21        48     9        0.000000        0.592502         1    ;  uncertainty k = 0.266151
        40        22        21        48     9      180.000000       -0.872850         2    ;  uncertainty k = 0.171803
        40        22        21        48     9        0.000000        0.299344         3    ;  uncertainty k = 0.058935
        40        22        21        48     9      180.000000        0.184937         4    ;  uncertainty k = 0.061177
        40        22        21        49     9        0.000000        0.592502         1    ;  uncertainty k = 0.266151
        40        22        21        49     9      180.000000       -0.872850         2    ;  uncertainty k = 0.171803
        40        22        21        49     9        0.000000        0.299344         3    ;  uncertainty k = 0.058935
        40        22        21        49     9      180.000000        0.184937         4    ;  uncertainty k = 0.061177
        41        24        26        43     9        0.000000        0.131197         1    ;  uncertainty k = 0.323374
        41        24        26        43     9      180.000000       -0.341290         2    ;  uncertainty k = 0.183183
        41        24        26        43     9        0.000000        0.412982         3    ;  uncertainty k = 0.067735
        41        24        26        43     9      180.000000        0.005776         4    ;  uncertainty k = 0.077936
        41        24        26        44     9        0.000000        0.131197         1    ;  uncertainty k = 0.323374
        41        24        26        44     9      180.000000       -0.341290         2    ;  uncertainty k = 0.183183
        41        24        26        44     9        0.000000        0.412982         3    ;  uncertainty k = 0.067735
        41        24        26        44     9      180.000000        0.005776         4    ;  uncertainty k = 0.077936
        42        24        26        43     9        0.000000        0.131197         1    ;  uncertainty k = 0.323374
        42        24        26        43     9      180.000000       -0.341290         2    ;  uncertainty k = 0.183183
        42        24        26        43     9        0.000000        0.412982         3    ;  uncertainty k = 0.067735
        42        24        26        43     9      180.000000        0.005776         4    ;  uncertainty k = 0.077936
        42        24        26        44     9        0.000000        0.131197         1    ;  uncertainty k = 0.323374
        42        24        26        44     9      180.000000       -0.341290         2    ;  uncertainty k = 0.183183
        42        24        26        44     9        0.000000        0.412982         3    ;  uncertainty k = 0.067735
        42        24        26        44     9      180.000000        0.005776         4    ;  uncertainty k = 0.077936
        46        20        45        50     9        0.000000        1.087985         1    ;  uncertainty k = 0.405346
        46        20        45        50     9      180.000000       -0.733277         2    ;  uncertainty k = 0.046846
        46        20        45        50     9        0.000000       -0.001915         3    ;  uncertainty k = 0.067147
        46        20        45        50     9      180.000000       -0.054499         4    ;  uncertainty k = 0.077722
        46        20        45        51     9        0.000000        1.087985         1    ;  uncertainty k = 0.405346
        46        20        45        51     9      180.000000       -0.733277         2    ;  uncertainty k = 0.046846
        46        20        45        51     9        0.000000       -0.001915         3    ;  uncertainty k = 0.067147
        46        20        45        51     9      180.000000       -0.054499         4    ;  uncertainty k = 0.077722
        47        20        45        50     9        0.000000        1.087985         1    ;  uncertainty k = 0.405346
        47        20        45        50     9      180.000000       -0.733277         2    ;  uncertainty k = 0.046846
        47        20        45        50     9        0.000000       -0.001915         3    ;  uncertainty k = 0.067147
        47        20        45        50     9      180.000000       -0.054499         4    ;  uncertainty k = 0.077722
        47        20        45        51     9        0.000000        1.087985         1    ;  uncertainty k = 0.405346
        47        20        45        51     9      180.000000       -0.733277         2    ;  uncertainty k = 0.046846
        47        20        45        51     9        0.000000       -0.001915         3    ;  uncertainty k = 0.067147
        47        20        45        51     9      180.000000       -0.054499         4    ;  uncertainty k = 0.077722
        48        21        45        50     9        0.000000        0.846332         1    ;  uncertainty k = 0.251310
        48        21        45        50     9      180.000000       -0.482828         2    ;  uncertainty k = 0.132662
        48        21        45        50     9        0.000000       -0.005988         3    ;  uncertainty k = 0.041003
        48        21        45        50     9      180.000000       -0.056601         4    ;  uncertainty k = 0.055092
        48        21        45        51     9        0.000000        0.846332         1    ;  uncertainty k = 0.251310
        48        21        45        51     9      180.000000       -0.482828         2    ;  uncertainty k = 0.132662
        48        21        45        51     9        0.000000       -0.005988         3    ;  uncertainty k = 0.041003
        48        21        45        51     9      180.000000       -0.056601         4    ;  uncertainty k = 0.055092
        49        21        45        50     9        0.000000        0.846332         1    ;  uncertainty k = 0.251310
        49        21        45        50     9      180.000000       -0.482828         2    ;  uncertainty k = 0.132662
        49        21        45        50     9        0.000000       -0.005988         3    ;  uncertainty k = 0.041003
        49        21        45        50     9      180.000000       -0.056601         4    ;  uncertainty k = 0.055092
        49        21        45        51     9        0.000000        0.846332         1    ;  uncertainty k = 0.251310
        49        21        45        51     9      180.000000       -0.482828         2    ;  uncertainty k = 0.132662
        49        21        45        51     9        0.000000       -0.005988         3    ;  uncertainty k = 0.041003
        49        21        45        51     9      180.000000       -0.056601         4    ;  uncertainty k = 0.055092

[ dihedrals ] ; impropers
;       ai        aj        ak        al funct           phase               k        pn
         1         2         6        12     4      180.000000       10.287263         2    ;  uncertainty k = 0.222163
         1         6        12         2     4      180.000000       10.287263         2    ;  uncertainty k = 0.222163
         1        12         2         6     4      180.000000       10.287263         2    ;  uncertainty k = 0.222163
         2         1         3        11     4      180.000000       18.102048         2    ;  uncertainty k = 0.082046
         2         3        11         1     4      180.000000       18.102048         2    ;  uncertainty k = 0.082046
         2        11         1         3     4      180.000000       18.102048         2    ;  uncertainty k = 0.082046
         3         2         4        28     4      180.000000        2.137763         2    ;  uncertainty k = 0.427530
         3         4        28         2     4      180.000000        2.137763         2    ;  uncertainty k = 0.427530
         3        28         2         4     4      180.000000        2.137763         2    ;  uncertainty k = 0.427530
         4         3         5         8     4      180.000000       17.251956         2    ;  uncertainty k = 0.122871
         4         5         8         3     4      180.000000       17.251956         2    ;  uncertainty k = 0.122871
         4         8         3         5     4      180.000000       17.251956         2    ;  uncertainty k = 0.122871
         5         4         6         7     4      180.000000        8.328283         2    ;  uncertainty k = 0.269550
         5         6         7         4     4      180.000000        8.328283         2    ;  uncertainty k = 0.269550
         5         7         4         6     4      180.000000        8.328283         2    ;  uncertainty k = 0.269550
         6         1         5        29     4      180.000000        4.469241         2    ;  uncertainty k = 0.272254
         6         5        29         1     4      180.000000        4.469241         2    ;  uncertainty k = 0.272254
         6        29         1         5     4      180.000000        4.469241         2    ;  uncertainty k = 0.272254
         7         5         9        10     4      180.000000       52.996769         2    ;  uncertainty k = 0.041017
         7         9        10         5     4      180.000000       52.996769         2    ;  uncertainty k = 0.041017
         7        10         5         9     4      180.000000       52.996769         2    ;  uncertainty k = 0.041017
        10         7        19        33     4      180.000000        0.318613         2    ;  uncertainty k = 0.712439
        10        19        33         7     4      180.000000        0.318613         2    ;  uncertainty k = 0.712439
        10        33         7        19     4      180.000000        0.318613         2    ;  uncertainty k = 0.712439
        12         1        13        17     4      180.000000       29.257089         2    ;  uncertainty k = 0.054432
        12        13        17         1     4      180.000000       29.257089         2    ;  uncertainty k = 0.054432
        12        17         1        13     4      180.000000       29.257089         2    ;  uncertainty k = 0.054432
        13        12        14        37     4      180.000000        1.240035         2    ;  uncertainty k = 0.615918
        13        14        37        12     4      180.000000        1.240035         2    ;  uncertainty k = 0.615918
        13        37        12        14     4      180.000000        1.240035         2    ;  uncertainty k = 0.615918
        14        13        15        27     4      180.000000       28.904417         2    ;  uncertainty k = 0.068532
        14        15        27        13     4      180.000000       28.904417         2    ;  uncertainty k = 0.068532
        14        27        13        15     4      180.000000       28.904417         2    ;  uncertainty k = 0.068532
        16        15        17        18     4      180.000000       45.820453         2    ;  uncertainty k = 0.064894
        16        17        18        15     4      180.000000       45.820453         2    ;  uncertainty k = 0.064894
        16        18        15        17     4      180.000000       45.820453         2    ;  uncertainty k = 0.064894
        18        16        52        53     4      180.000000        0.368279         2    ;  uncertainty k = 0.553006
        18        52        53        16     4      180.000000        0.368279         2    ;  uncertainty k = 0.553006
        18        53        16        52     4      180.000000        0.368279         2    ;  uncertainty k = 0.553006
        22        21        23        40     4      180.000000        0.556655         2    ;  uncertainty k = 1.244719
        22        23        40        21     4      180.000000        0.556655         2    ;  uncertainty k = 1.244719
        22        40        21        23     4      180.000000        0.556655         2    ;  uncertainty k = 1.244719
        23        22        24        25     4      180.000000       54.242597         2    ;  uncertainty k = 0.014910
        23        24        25        22     4      180.000000       54.242597         2    ;  uncertainty k = 0.014910
        23        25        22        24     4      180.000000       54.242597         2    ;  uncertainty k = 0.014910

[ pairs ]
;       ai        aj funct
         1         4     1
         1         7     1
         1        14     1
         1        16     1
         1        28     1
         1        34     1
         1        35     1
         1        36     1
         1        37     1
         2         5     1
         2         8     1
         2        13     1
         2        17     1
         2        29     1
         3         6     1
         3         7     1
         3        12     1
         3        30     1
         3        31     1
         3        32     1
         3        34     1
         3        35     1
         3        36     1
         4         9     1
         4        10     1
         4        11     1
         4        29     1
         5        12     1
         5        19     1
         5        28     1
         5        30     1
         5        31     1
         5        32     1
         5        33     1
         6         8     1
         6         9     1
         6        10     1
         6        11     1
         6        13     1
         6        17     1
         7         8     1
         7        20     1
         7        29     1
         7        38     1
         7        39     1
         8        28     1
         9        19     1
         9        33     1
        10        45     1
        10        46     1
        10        47     1
        11        12     1
        11        28     1
        12        15     1
        12        18     1
        12        27     1
        12        29     1
        13        16     1
        13        26     1
        14        17     1
        14        18     1
        14        24     1
        14        43     1
        14        44     1
        15        26     1
        15        37     1
        15        52     1
        15        53     1
        16        27     1
        17        37     1
        17        52     1
        17        53     1
        19        21     1
        19        50     1
        19        51     1
        20        22     1
        20        33     1
        20        48     1
        20        49     1
        21        24     1
        21        25     1
        21        46     1
        21        47     1
        22        26     1
        22        41     1
        22        42     1
        22        50     1
        22        51     1
        23        27     1
        23        43     1
        23        44     1
        23        45     1
        23        48     1
        23        49     1
        24        40     1
        25        26     1
        25        40     1
        25        41     1
        25        42     1
        27        37     1
        27        41     1
        27        42     1
        33        38     1
        33        39     1
        38        45     1
        38        46     1
        38        47     1
        39        45     1
        39        46     1
        39        47     1
        40        45     1
        40        48     1
        40        49     1
        41        43     1
        41        44     1
        42        43     1
        42        44     1
        46        50     1
        46        51     1
        47        50     1
        47        51     1
        48        50     1
        48        51     1
        49        50     1
        49        51     1
