; ITP file created by ByteFF-joint-25, 2025-07-14 11:32:39.177057

[ atomtypes ]
;name           bonded.type        at.num        mass        charge   ptype           sigma         epsilon
 c0bf                                   6      0.0000       0.00000       A     3.39755e-01     4.50691e-01    ;  uncertainty sigma = 0.000010, epsilon = 0.000613
 s1bf                                  16      0.0000       0.00000       A     3.53227e-01     1.18114e+00    ;  uncertainty sigma = 0.000028, epsilon = 0.001956
 c2bf                                   6      0.0000       0.00000       A     3.31534e-01     4.13153e-01    ;  uncertainty sigma = 0.000010, epsilon = 0.001007
 n3bf                                   7      0.0000       0.00000       A     3.38454e-01     3.92787e-01    ;  uncertainty sigma = 0.000014, epsilon = 0.001028
 n4bf                                   7      0.0000       0.00000       A     3.38524e-01     3.93277e-01    ;  uncertainty sigma = 0.000036, epsilon = 0.001228
 c5bf                                   6      0.0000       0.00000       A     3.31556e-01     4.13303e-01    ;  uncertainty sigma = 0.000020, epsilon = 0.001318
 n6bf                                   7      0.0000       0.00000       A     3.36935e-01     4.68733e-01    ;  uncertainty sigma = 0.000071, epsilon = 0.001192
 n7bf                                   7      0.0000       0.00000       A     3.38486e-01     3.93648e-01    ;  uncertainty sigma = 0.000033, epsilon = 0.001273
 c8bf                                   6      0.0000       0.00000       A     3.31493e-01     4.12870e-01    ;  uncertainty sigma = 0.000016, epsilon = 0.001021
 c9bf                                   6      0.0000       0.00000       A     3.31494e-01     4.12925e-01    ;  uncertainty sigma = 0.000003, epsilon = 0.001324
 c10bf                                  6      0.0000       0.00000       A     3.31509e-01     4.13328e-01    ;  uncertainty sigma = 0.000008, epsilon = 0.000548
 c11bf                                  6      0.0000       0.00000       A     3.31512e-01     4.13355e-01    ;  uncertainty sigma = 0.000003, epsilon = 0.000561
 c12bf                                  6      0.0000       0.00000       A     3.31517e-01     4.13361e-01    ;  uncertainty sigma = 0.000004, epsilon = 0.000572
 c13bf                                  6      0.0000       0.00000       A     3.31526e-01     4.13303e-01    ;  uncertainty sigma = 0.000004, epsilon = 0.000530
 c14bf                                  6      0.0000       0.00000       A     3.31524e-01     4.13331e-01    ;  uncertainty sigma = 0.000006, epsilon = 0.000362
 cl15bf                                17      0.0000       0.00000       A     3.46602e-01     1.10400e+00    ;  uncertainty sigma = 0.000019, epsilon = 0.001757
 h16bf                                  1      0.0000       0.00000       A     2.42181e-01     8.67060e-02    ;  uncertainty sigma = 0.000014, epsilon = 0.000783
 h17bf                                  1      0.0000       0.00000       A     2.42181e-01     8.67060e-02    ;  uncertainty sigma = 0.000014, epsilon = 0.000783
 h18bf                                  1      0.0000       0.00000       A     2.42181e-01     8.67060e-02    ;  uncertainty sigma = 0.000014, epsilon = 0.000783
 h19bf                                  1      0.0000       0.00000       A     1.10715e-01     4.07951e-02    ;  uncertainty sigma = 0.000035, epsilon = 0.001109
 h20bf                                  1      0.0000       0.00000       A     1.10715e-01     4.07951e-02    ;  uncertainty sigma = 0.000035, epsilon = 0.001109
 h21bf                                  1      0.0000       0.00000       A     2.62565e-01     6.71715e-02    ;  uncertainty sigma = 0.000011, epsilon = 0.000601
 h22bf                                  1      0.0000       0.00000       A     2.62559e-01     6.70250e-02    ;  uncertainty sigma = 0.000010, epsilon = 0.000440
 h23bf                                  1      0.0000       0.00000       A     2.62561e-01     6.69798e-02    ;  uncertainty sigma = 0.000008, epsilon = 0.000493
 h24bf                                  1      0.0000       0.00000       A     2.62560e-01     6.70282e-02    ;  uncertainty sigma = 0.000010, epsilon = 0.000540

[ moleculetype ]
;name             nrexcl
 MOL                   3

[ atoms ]
;       nr            type      resi   res      atom      cgnr      charge          mass ; qtot
         1            c0bf         1   UNL        c0         1    -0.01907       12.0110 ; qtot   -0.019
         2            s1bf         1   UNL        s1         2    -0.23574       32.0670 ; qtot   -0.255
         3            c2bf         1   UNL        c2         3     0.79959       12.0110 ; qtot    0.545
         4            n3bf         1   UNL        n3         4    -0.76619       14.0070 ; qtot   -0.221
         5            n4bf         1   UNL        n4         5    -0.81017       14.0070 ; qtot   -1.032
         6            c5bf         1   UNL        c5         6     0.91846       12.0110 ; qtot   -0.113
         7            n6bf         1   UNL        n6         7    -0.93442       14.0070 ; qtot   -1.048
         8            n7bf         1   UNL        n7         8    -0.80183       14.0070 ; qtot   -1.849
         9            c8bf         1   UNL        c8         9     0.79015       12.0110 ; qtot   -1.059
        10            c9bf         1   UNL        c9        10    -0.14279       12.0110 ; qtot   -1.202
        11           c10bf         1   UNL       c10        11    -0.07607       12.0110 ; qtot   -1.278
        12           c11bf         1   UNL       c11        12    -0.14177       12.0110 ; qtot   -1.420
        13           c12bf         1   UNL       c12        13    -0.10224       12.0110 ; qtot   -1.522
        14           c13bf         1   UNL       c13        14    -0.13731       12.0110 ; qtot   -1.659
        15           c14bf         1   UNL       c14        15     0.07913       12.0110 ; qtot   -1.580
        16          cl15bf         1   UNL      cl15        16    -0.10017       35.4530 ; qtot   -1.680
        17           h16bf         1   UNL       h16        17     0.07158        1.0080 ; qtot   -1.609
        18           h17bf         1   UNL       h17        18     0.07158        1.0080 ; qtot   -1.537
        19           h18bf         1   UNL       h18        19     0.07158        1.0080 ; qtot   -1.466
        20           h19bf         1   UNL       h19        20     0.43935        1.0080 ; qtot   -1.026
        21           h20bf         1   UNL       h20        21     0.43935        1.0080 ; qtot   -0.587
        22           h21bf         1   UNL       h21        22     0.15481        1.0080 ; qtot   -0.432
        23           h22bf         1   UNL       h22        23     0.14094        1.0080 ; qtot   -0.291
        24           h23bf         1   UNL       h23        24     0.13911        1.0080 ; qtot   -0.152
        25           h24bf         1   UNL       h24        25     0.15214        1.0080 ; qtot   -0.000

[ bonds ]
;       ai        aj funct               r               k
         1         2     1        0.181869   155988.874243    ;  uncertainty r = 0.000049, k = 3.380563
         1        17     1        0.109281   313251.973633    ;  uncertainty r = 0.000015, k = 2.875392
         1        18     1        0.109281   313251.973633    ;  uncertainty r = 0.000015, k = 2.875392
         1        19     1        0.109281   313251.973633    ;  uncertainty r = 0.000015, k = 2.875392
         2         3     1        0.177279   188441.228540    ;  uncertainty r = 0.000076, k = 7.834240
         3         4     1        0.135805   444210.918262    ;  uncertainty r = 0.000097, k = 8.774210
         3         5     1        0.135851   443382.341211    ;  uncertainty r = 0.000205, k = 11.696424
         4         9     1        0.135986   432474.982129    ;  uncertainty r = 0.000102, k = 17.784363
         5         6     1        0.137675   595306.895117    ;  uncertainty r = 0.000117, k = 13.417184
         6         7     1        0.141844   592162.255469    ;  uncertainty r = 0.000159, k = 9.075491
         6         8     1        0.137476   596065.449414    ;  uncertainty r = 0.000116, k = 8.239016
         7        20     1        0.102384   440930.983008    ;  uncertainty r = 0.000035, k = 5.383284
         7        21     1        0.102384   440930.983008    ;  uncertainty r = 0.000035, k = 5.383284
         8         9     1        0.135786   458516.449414    ;  uncertainty r = 0.000250, k = 17.934394
         9        10     1        0.147652   281111.120996    ;  uncertainty r = 0.000090, k = 13.618005
        10        11     1        0.140124   342309.858740    ;  uncertainty r = 0.000100, k = 3.778543
        10        15     1        0.140329   320893.596094    ;  uncertainty r = 0.000118, k = 6.478931
        11        12     1        0.139140   367648.493701    ;  uncertainty r = 0.000054, k = 2.933852
        11        22     1        0.108579   331963.907471    ;  uncertainty r = 0.000027, k = 1.121354
        12        13     1        0.139613   375380.032324    ;  uncertainty r = 0.000019, k = 0.531021
        12        23     1        0.108802   332961.744482    ;  uncertainty r = 0.000012, k = 0.995388
        13        14     1        0.139305   378026.902637    ;  uncertainty r = 0.000023, k = 1.268859
        13        24     1        0.108776   334188.189697    ;  uncertainty r = 0.000008, k = 1.055582
        14        15     1        0.139668   355010.484717    ;  uncertainty r = 0.000046, k = 6.744921
        14        25     1        0.108706   335173.207080    ;  uncertainty r = 0.000013, k = 0.608032
        15        16     1        0.175292   189287.553882    ;  uncertainty r = 0.000116, k = 3.172159

[ angles ]
;       ai        aj        ak funct           theta             cth
         1         2         3     1       94.644882      596.511315    ;  uncertainty theta = 0.001325, k = 0.079314
         2         1        17     1      106.930588      360.670204    ;  uncertainty theta = 0.000957, k = 0.090514
         2         1        18     1      106.930588      360.670204    ;  uncertainty theta = 0.000957, k = 0.090514
         2         1        19     1      106.930588      360.670204    ;  uncertainty theta = 0.000957, k = 0.090514
         2         3         4     1      118.429543      404.280596    ;  uncertainty theta = 0.013191, k = 0.128040
         2         3         5     1      118.999840      412.066446    ;  uncertainty theta = 0.013436, k = 0.151646
         3         4         9     1      119.239304      397.503750    ;  uncertainty theta = 0.018667, k = 0.425441
         3         5         6     1      120.902756      449.448464    ;  uncertainty theta = 0.016462, k = 0.123351
         4         3         5     1      127.348633      806.064620    ;  uncertainty theta = 0.005236, k = 0.150505
         4         9         8     1      126.914597      823.378270    ;  uncertainty theta = 0.007441, k = 0.125954
         4         9        10     1      118.292191      424.409201    ;  uncertainty theta = 0.008774, k = 0.210316
         5         6         7     1      125.704933      842.490051    ;  uncertainty theta = 0.006691, k = 0.073645
         5         6         8     1      126.721947      777.907276    ;  uncertainty theta = 0.010549, k = 0.103030
         6         7        20     1      119.809128      476.138064    ;  uncertainty theta = 0.002840, k = 0.050974
         6         7        21     1      119.809128      476.138064    ;  uncertainty theta = 0.002840, k = 0.050974
         6         8         9     1      120.540810      430.978974    ;  uncertainty theta = 0.021240, k = 0.154818
         7         6         8     1      125.760132      836.593724    ;  uncertainty theta = 0.006073, k = 0.076462
         8         9        10     1      118.701881      431.636586    ;  uncertainty theta = 0.010013, k = 0.193803
         9        10        11     1      116.570091      419.682569    ;  uncertainty theta = 0.002919, k = 0.212426
         9        10        15     1      118.832352      396.240014    ;  uncertainty theta = 0.004621, k = 0.109996
        10        11        12     1      122.359238      509.013581    ;  uncertainty theta = 0.002937, k = 0.083771
        10        11        22     1      116.714073      257.762548    ;  uncertainty theta = 0.001940, k = 0.052680
        10        15        14     1      124.422470      376.196671    ;  uncertainty theta = 0.002597, k = 0.182494
        10        15        16     1      117.661232      420.450662    ;  uncertainty theta = 0.002820, k = 0.164126
        11        10        15     1      121.662796      423.035305    ;  uncertainty theta = 0.002689, k = 0.145396
        11        12        13     1      118.956444      515.179324    ;  uncertainty theta = 0.002668, k = 0.029905
        11        12        23     1      120.309738      286.276263    ;  uncertainty theta = 0.001210, k = 0.048737
        12        11        22     1      120.837257      288.843636    ;  uncertainty theta = 0.001805, k = 0.046520
        12        13        14     1      118.656044      517.187179    ;  uncertainty theta = 0.002503, k = 0.051217
        12        13        24     1      120.810776      286.188415    ;  uncertainty theta = 0.001722, k = 0.022595
        13        12        23     1      120.901657      288.843668    ;  uncertainty theta = 0.001142, k = 0.034482
        13        14        15     1      119.692871      493.395946    ;  uncertainty theta = 0.002193, k = 0.047229
        13        14        25     1      121.343178      283.100979    ;  uncertainty theta = 0.000806, k = 0.064503
        14        13        24     1      119.693459      283.891831    ;  uncertainty theta = 0.001778, k = 0.022195
        14        15        16     1      119.231529      454.527764    ;  uncertainty theta = 0.002193, k = 0.069371
        15        14        25     1      120.281479      283.645111    ;  uncertainty theta = 0.001103, k = 0.076903
        17         1        18     1      107.830765      308.687375    ;  uncertainty theta = 0.001445, k = 0.035201
        17         1        19     1      107.830765      308.687375    ;  uncertainty theta = 0.001445, k = 0.035201
        18         1        19     1      107.830765      308.687375    ;  uncertainty theta = 0.001445, k = 0.035201
        20         7        21     1      107.561012      264.196894    ;  uncertainty theta = 0.002652, k = 0.069557

[ dihedrals ] ; propers for gromacs 4.5 or higher, use funct 9
;       ai        aj        ak        al funct           phase               k        pn
         1         2         3         4     9        0.000000        4.815042         1    ;  uncertainty k = 0.193292
         1         2         3         4     9      180.000000       11.834479         2    ;  uncertainty k = 0.139818
         1         2         3         4     9        0.000000        0.155305         3    ;  uncertainty k = 0.330324
         1         2         3         4     9      180.000000       -0.048104         4    ;  uncertainty k = 0.092855
         1         2         3         5     9        0.000000        5.372679         1    ;  uncertainty k = 0.296786
         1         2         3         5     9      180.000000       11.316501         2    ;  uncertainty k = 0.307015
         1         2         3         5     9        0.000000        0.120580         3    ;  uncertainty k = 0.272842
         1         2         3         5     9      180.000000        0.009675         4    ;  uncertainty k = 0.178681
         2         3         4         9     9        0.000000        0.108286         1    ;  uncertainty k = 2.011734
         2         3         4         9     9      180.000000        8.910521         2    ;  uncertainty k = 0.494023
         2         3         4         9     9        0.000000        1.491343         3    ;  uncertainty k = 0.426128
         2         3         4         9     9      180.000000        1.035982         4    ;  uncertainty k = 0.273011
         2         3         5         6     9        0.000000        0.163214         1    ;  uncertainty k = 1.197078
         2         3         5         6     9      180.000000       10.935822         2    ;  uncertainty k = 0.815846
         2         3         5         6     9        0.000000        1.512134         3    ;  uncertainty k = 0.510427
         2         3         5         6     9      180.000000        1.048621         4    ;  uncertainty k = 0.343190
         3         2         1        17     9        0.000000        2.084250         1    ;  uncertainty k = 0.797191
         3         2         1        17     9      180.000000       -3.101650         2    ;  uncertainty k = 0.232006
         3         2         1        17     9        0.000000        0.401289         3    ;  uncertainty k = 0.055139
         3         2         1        17     9      180.000000        0.074849         4    ;  uncertainty k = 0.098381
         3         2         1        18     9        0.000000        2.084250         1    ;  uncertainty k = 0.797191
         3         2         1        18     9      180.000000       -3.101650         2    ;  uncertainty k = 0.232006
         3         2         1        18     9        0.000000        0.401289         3    ;  uncertainty k = 0.055139
         3         2         1        18     9      180.000000        0.074849         4    ;  uncertainty k = 0.098381
         3         2         1        19     9        0.000000        2.084250         1    ;  uncertainty k = 0.797191
         3         2         1        19     9      180.000000       -3.101650         2    ;  uncertainty k = 0.232006
         3         2         1        19     9        0.000000        0.401289         3    ;  uncertainty k = 0.055139
         3         2         1        19     9      180.000000        0.074849         4    ;  uncertainty k = 0.098381
         3         4         9         8     9        0.000000       -0.437811         1    ;  uncertainty k = 0.934902
         3         4         9         8     9      180.000000       13.615857         2    ;  uncertainty k = 0.695378
         3         4         9         8     9        0.000000        0.069146         3    ;  uncertainty k = 0.248109
         3         4         9         8     9      180.000000        0.950179         4    ;  uncertainty k = 0.263742
         3         4         9        10     9        0.000000       -0.574463         1    ;  uncertainty k = 1.690718
         3         4         9        10     9      180.000000       12.399999         2    ;  uncertainty k = 0.536398
         3         4         9        10     9        0.000000        1.268168         3    ;  uncertainty k = 0.268536
         3         4         9        10     9      180.000000        0.992497         4    ;  uncertainty k = 0.415865
         3         5         6         7     9        0.000000       -0.522961         1    ;  uncertainty k = 1.090785
         3         5         6         7     9      180.000000       12.206034         2    ;  uncertainty k = 0.871697
         3         5         6         7     9        0.000000        2.139832         3    ;  uncertainty k = 0.688046
         3         5         6         7     9      180.000000        1.202204         4    ;  uncertainty k = 0.388742
         3         5         6         8     9        0.000000       -1.072790         1    ;  uncertainty k = 0.839281
         3         5         6         8     9      180.000000        9.562500         2    ;  uncertainty k = 1.300966
         3         5         6         8     9        0.000000        0.244687         3    ;  uncertainty k = 0.661031
         3         5         6         8     9      180.000000        0.741982         4    ;  uncertainty k = 0.141532
         4         3         5         6     9        0.000000       -0.464140         1    ;  uncertainty k = 0.333394
         4         3         5         6     9      180.000000       12.403540         2    ;  uncertainty k = 0.638866
         4         3         5         6     9        0.000000        0.183950         3    ;  uncertainty k = 0.531452
         4         3         5         6     9      180.000000        0.839355         4    ;  uncertainty k = 0.169137
         4         9         8         6     9        0.000000       -0.625073         1    ;  uncertainty k = 0.568672
         4         9         8         6     9      180.000000       15.433458         2    ;  uncertainty k = 0.520244
         4         9         8         6     9        0.000000       -0.148788         3    ;  uncertainty k = 0.523801
         4         9         8         6     9      180.000000        0.695033         4    ;  uncertainty k = 0.428528
         4         9        10        11     9        0.000000        1.584052         1    ;  uncertainty k = 1.244681
         4         9        10        11     9      180.000000        4.831584         2    ;  uncertainty k = 0.223075
         4         9        10        11     9        0.000000        0.509017         3    ;  uncertainty k = 0.271702
         4         9        10        11     9      180.000000        0.033962         4    ;  uncertainty k = 0.077476
         4         9        10        15     9        0.000000        0.834852         1    ;  uncertainty k = 1.301268
         4         9        10        15     9      180.000000        4.011162         2    ;  uncertainty k = 0.303191
         4         9        10        15     9        0.000000        0.786342         3    ;  uncertainty k = 0.374862
         4         9        10        15     9      180.000000        0.042712         4    ;  uncertainty k = 0.078165
         5         3         4         9     9        0.000000       -0.674953         1    ;  uncertainty k = 1.108288
         5         3         4         9     9      180.000000       10.947320         2    ;  uncertainty k = 0.627378
         5         3         4         9     9        0.000000        0.447507         3    ;  uncertainty k = 0.600569
         5         3         4         9     9      180.000000        0.911543         4    ;  uncertainty k = 0.157212
         5         6         7        20     9        0.000000       24.225266         1    ;  uncertainty k = 0.294281
         5         6         7        20     9      180.000000       12.532835         2    ;  uncertainty k = 0.155294
         5         6         7        20     9        0.000000        0.981363         3    ;  uncertainty k = 0.228898
         5         6         7        20     9      180.000000       -0.674007         4    ;  uncertainty k = 0.089567
         5         6         7        21     9        0.000000       24.225266         1    ;  uncertainty k = 0.294281
         5         6         7        21     9      180.000000       12.532835         2    ;  uncertainty k = 0.155294
         5         6         7        21     9        0.000000        0.981363         3    ;  uncertainty k = 0.228898
         5         6         7        21     9      180.000000       -0.674007         4    ;  uncertainty k = 0.089567
         5         6         8         9     9        0.000000       -1.007534         1    ;  uncertainty k = 1.071582
         5         6         8         9     9      180.000000        8.395033         2    ;  uncertainty k = 1.284046
         5         6         8         9     9        0.000000        0.238653         3    ;  uncertainty k = 0.779692
         5         6         8         9     9      180.000000        0.816440         4    ;  uncertainty k = 0.174253
         6         8         9        10     9        0.000000       -0.343911         1    ;  uncertainty k = 1.799583
         6         8         9        10     9      180.000000       13.620048         2    ;  uncertainty k = 0.640094
         6         8         9        10     9        0.000000        1.189803         3    ;  uncertainty k = 0.470417
         6         8         9        10     9      180.000000        0.928988         4    ;  uncertainty k = 0.411504
         7         6         8         9     9        0.000000       -0.138056         1    ;  uncertainty k = 1.176475
         7         6         8         9     9      180.000000       11.052155         2    ;  uncertainty k = 0.473013
         7         6         8         9     9        0.000000        2.106948         3    ;  uncertainty k = 0.549504
         7         6         8         9     9      180.000000        1.191184         4    ;  uncertainty k = 0.287966
         8         6         7        20     9        0.000000       23.149609         1    ;  uncertainty k = 0.189478
         8         6         7        20     9      180.000000       12.767533         2    ;  uncertainty k = 0.122667
         8         6         7        20     9        0.000000        0.893393         3    ;  uncertainty k = 0.215407
         8         6         7        20     9      180.000000       -0.651811         4    ;  uncertainty k = 0.133306
         8         6         7        21     9        0.000000       23.149609         1    ;  uncertainty k = 0.189478
         8         6         7        21     9      180.000000       12.767533         2    ;  uncertainty k = 0.122667
         8         6         7        21     9        0.000000        0.893393         3    ;  uncertainty k = 0.215407
         8         6         7        21     9      180.000000       -0.651811         4    ;  uncertainty k = 0.133306
         8         9        10        11     9        0.000000        1.765360         1    ;  uncertainty k = 1.396354
         8         9        10        11     9      180.000000        4.784023         2    ;  uncertainty k = 0.329302
         8         9        10        11     9        0.000000        0.548973         3    ;  uncertainty k = 0.251280
         8         9        10        11     9      180.000000        0.015937         4    ;  uncertainty k = 0.040870
         8         9        10        15     9        0.000000        0.704784         1    ;  uncertainty k = 1.229869
         8         9        10        15     9      180.000000        3.880830         2    ;  uncertainty k = 0.272057
         8         9        10        15     9        0.000000        0.818188         3    ;  uncertainty k = 0.373399
         8         9        10        15     9      180.000000        0.028630         4    ;  uncertainty k = 0.044096
         9        10        11        12     9        0.000000        0.436447         1    ;  uncertainty k = 0.491879
         9        10        11        12     9      180.000000        9.289392         2    ;  uncertainty k = 0.797667
         9        10        11        12     9        0.000000        1.379453         3    ;  uncertainty k = 0.470675
         9        10        11        12     9      180.000000        1.796226         4    ;  uncertainty k = 0.224321
         9        10        11        22     9        0.000000       -0.287766         1    ;  uncertainty k = 0.181282
         9        10        11        22     9      180.000000        8.530690         2    ;  uncertainty k = 0.409997
         9        10        11        22     9        0.000000        0.790022         3    ;  uncertainty k = 0.249710
         9        10        11        22     9      180.000000        1.326420         4    ;  uncertainty k = 0.143250
         9        10        15        14     9        0.000000        0.265550         1    ;  uncertainty k = 0.402641
         9        10        15        14     9      180.000000        6.970879         2    ;  uncertainty k = 0.743958
         9        10        15        14     9        0.000000        1.165126         3    ;  uncertainty k = 0.154625
         9        10        15        14     9      180.000000        1.643313         4    ;  uncertainty k = 0.222588
         9        10        15        16     9        0.000000       -0.092772         1    ;  uncertainty k = 0.893864
         9        10        15        16     9      180.000000        8.444481         2    ;  uncertainty k = 0.599997
         9        10        15        16     9        0.000000        1.119673         3    ;  uncertainty k = 0.378679
         9        10        15        16     9      180.000000        1.379917         4    ;  uncertainty k = 0.228526
        10        11        12        13     9        0.000000       -0.015612         1    ;  uncertainty k = 0.112880
        10        11        12        13     9      180.000000       13.349691         2    ;  uncertainty k = 0.396500
        10        11        12        13     9        0.000000       -0.746349         3    ;  uncertainty k = 0.331933
        10        11        12        13     9      180.000000        0.810884         4    ;  uncertainty k = 0.327679
        10        11        12        23     9        0.000000        0.125675         1    ;  uncertainty k = 0.128855
        10        11        12        23     9      180.000000        7.865927         2    ;  uncertainty k = 0.525771
        10        11        12        23     9        0.000000        1.408809         3    ;  uncertainty k = 0.261465
        10        11        12        23     9      180.000000        1.749534         4    ;  uncertainty k = 0.102640
        10        15        14        13     9        0.000000        0.190076         1    ;  uncertainty k = 0.190225
        10        15        14        13     9      180.000000        9.113676         2    ;  uncertainty k = 0.202618
        10        15        14        13     9        0.000000        0.088138         3    ;  uncertainty k = 0.338852
        10        15        14        13     9      180.000000        1.212399         4    ;  uncertainty k = 0.340937
        10        15        14        25     9        0.000000        0.049480         1    ;  uncertainty k = 0.245386
        10        15        14        25     9      180.000000        5.961853         2    ;  uncertainty k = 0.668267
        10        15        14        25     9        0.000000        1.366741         3    ;  uncertainty k = 0.350450
        10        15        14        25     9      180.000000        1.590354         4    ;  uncertainty k = 0.227596
        11        10        15        14     9        0.000000       -0.066707         1    ;  uncertainty k = 0.384375
        11        10        15        14     9      180.000000        7.417912         2    ;  uncertainty k = 0.590279
        11        10        15        14     9        0.000000        0.094886         3    ;  uncertainty k = 0.347839
        11        10        15        14     9      180.000000        1.200823         4    ;  uncertainty k = 0.249620
        11        10        15        16     9        0.000000       -0.060780         1    ;  uncertainty k = 0.408951
        11        10        15        16     9      180.000000        7.410212         2    ;  uncertainty k = 0.285929
        11        10        15        16     9        0.000000        1.267379         3    ;  uncertainty k = 0.258086
        11        10        15        16     9      180.000000        1.530791         4    ;  uncertainty k = 0.138637
        11        12        13        14     9        0.000000       -0.024578         1    ;  uncertainty k = 0.130998
        11        12        13        14     9      180.000000       14.591167         2    ;  uncertainty k = 0.328960
        11        12        13        14     9        0.000000       -1.173989         3    ;  uncertainty k = 0.394779
        11        12        13        14     9      180.000000        0.577046         4    ;  uncertainty k = 0.227249
        11        12        13        24     9        0.000000        0.096645         1    ;  uncertainty k = 0.147943
        11        12        13        24     9      180.000000        7.337599         2    ;  uncertainty k = 0.341947
        11        12        13        24     9        0.000000        1.466773         3    ;  uncertainty k = 0.256585
        11        12        13        24     9      180.000000        1.746319         4    ;  uncertainty k = 0.097560
        12        11        10        15     9        0.000000        0.071575         1    ;  uncertainty k = 0.318295
        12        11        10        15     9      180.000000       10.703916         2    ;  uncertainty k = 0.377824
        12        11        10        15     9        0.000000       -0.188980         3    ;  uncertainty k = 0.251307
        12        11        10        15     9      180.000000        1.068237         4    ;  uncertainty k = 0.343602
        12        13        14        15     9        0.000000       -0.032373         1    ;  uncertainty k = 0.041354
        12        13        14        15     9      180.000000       14.464629         2    ;  uncertainty k = 0.182211
        12        13        14        15     9        0.000000       -1.029178         3    ;  uncertainty k = 0.486457
        12        13        14        15     9      180.000000        0.765033         4    ;  uncertainty k = 0.114060
        12        13        14        25     9        0.000000        0.044863         1    ;  uncertainty k = 0.107193
        12        13        14        25     9      180.000000        7.927499         2    ;  uncertainty k = 0.348322
        12        13        14        25     9        0.000000        1.426244         3    ;  uncertainty k = 0.287715
        12        13        14        25     9      180.000000        1.836504         4    ;  uncertainty k = 0.181618
        13        12        11        22     9        0.000000        0.088886         1    ;  uncertainty k = 0.069092
        13        12        11        22     9      180.000000        7.817157         2    ;  uncertainty k = 0.233851
        13        12        11        22     9        0.000000        1.351591         3    ;  uncertainty k = 0.292176
        13        12        11        22     9      180.000000        1.841798         4    ;  uncertainty k = 0.216495
        13        14        15        16     9        0.000000        0.020158         1    ;  uncertainty k = 0.241946
        13        14        15        16     9      180.000000        9.232404         2    ;  uncertainty k = 0.546354
        13        14        15        16     9        0.000000        1.395914         3    ;  uncertainty k = 0.350400
        13        14        15        16     9      180.000000        1.701674         4    ;  uncertainty k = 0.105060
        14        13        12        23     9        0.000000        0.086753         1    ;  uncertainty k = 0.082459
        14        13        12        23     9      180.000000        7.518754         2    ;  uncertainty k = 0.344388
        14        13        12        23     9        0.000000        1.480293         3    ;  uncertainty k = 0.267827
        14        13        12        23     9      180.000000        1.784715         4    ;  uncertainty k = 0.087578
        15        10        11        22     9        0.000000        0.226135         1    ;  uncertainty k = 0.203162
        15        10        11        22     9      180.000000        7.312740         2    ;  uncertainty k = 0.341145
        15        10        11        22     9        0.000000        1.224824         3    ;  uncertainty k = 0.338540
        15        10        11        22     9      180.000000        1.545466         4    ;  uncertainty k = 0.172998
        15        14        13        24     9        0.000000        0.138713         1    ;  uncertainty k = 0.253671
        15        14        13        24     9      180.000000        7.577574         2    ;  uncertainty k = 0.268882
        15        14        13        24     9        0.000000        1.473970         3    ;  uncertainty k = 0.222948
        15        14        13        24     9      180.000000        1.871526         4    ;  uncertainty k = 0.175277
        16        15        14        25     9        0.000000       -0.089960         1    ;  uncertainty k = 0.535768
        16        15        14        25     9      180.000000        7.630641         2    ;  uncertainty k = 0.462928
        16        15        14        25     9        0.000000        0.609438         3    ;  uncertainty k = 0.282731
        16        15        14        25     9      180.000000        1.142576         4    ;  uncertainty k = 0.298215
        22        11        12        23     9        0.000000       -0.067907         1    ;  uncertainty k = 0.262933
        22        11        12        23     9      180.000000        8.011571         2    ;  uncertainty k = 0.451511
        22        11        12        23     9        0.000000       -0.374085         3    ;  uncertainty k = 0.271410
        22        11        12        23     9      180.000000        0.204493         4    ;  uncertainty k = 0.199524
        23        12        13        24     9        0.000000       -0.068605         1    ;  uncertainty k = 0.086813
        23        12        13        24     9      180.000000        7.775933         2    ;  uncertainty k = 0.449110
        23        12        13        24     9        0.000000       -0.406362         3    ;  uncertainty k = 0.309722
        23        12        13        24     9      180.000000        0.039876         4    ;  uncertainty k = 0.164303
        24        13        14        25     9        0.000000       -0.065316         1    ;  uncertainty k = 0.073845
        24        13        14        25     9      180.000000        7.959401         2    ;  uncertainty k = 0.421792
        24        13        14        25     9        0.000000       -0.486554         3    ;  uncertainty k = 0.236911
        24        13        14        25     9      180.000000        0.060533         4    ;  uncertainty k = 0.167310

[ dihedrals ] ; impropers
;       ai        aj        ak        al funct           phase               k        pn
         3         2         4         5     4      180.000000       39.657782         2    ;  uncertainty k = 0.046011
         3         4         5         2     4      180.000000       39.657782         2    ;  uncertainty k = 0.046011
         3         5         2         4     4      180.000000       39.657782         2    ;  uncertainty k = 0.046011
         6         5         7         8     4      180.000000       47.891635         2    ;  uncertainty k = 0.060478
         6         7         8         5     4      180.000000       47.891635         2    ;  uncertainty k = 0.060478
         6         8         5         7     4      180.000000       47.891635         2    ;  uncertainty k = 0.060478
         7         6        20        21     4      180.000000        0.437161         2    ;  uncertainty k = 0.569569
         7        20        21         6     4      180.000000        0.437161         2    ;  uncertainty k = 0.569569
         7        21         6        20     4      180.000000        0.437161         2    ;  uncertainty k = 0.569569
         9         4         8        10     4      180.000000       38.309737         2    ;  uncertainty k = 0.086170
         9         8        10         4     4      180.000000       38.309737         2    ;  uncertainty k = 0.086170
         9        10         4         8     4      180.000000       38.309737         2    ;  uncertainty k = 0.086170
        10         9        11        15     4      180.000000       11.203127         2    ;  uncertainty k = 0.116868
        10        11        15         9     4      180.000000       11.203127         2    ;  uncertainty k = 0.116868
        10        15         9        11     4      180.000000       11.203127         2    ;  uncertainty k = 0.116868
        11        10        12        22     4      180.000000        4.720996         2    ;  uncertainty k = 0.098214
        11        12        22        10     4      180.000000        4.720996         2    ;  uncertainty k = 0.098214
        11        22        10        12     4      180.000000        4.720996         2    ;  uncertainty k = 0.098214
        12        11        13        23     4      180.000000        3.647774         2    ;  uncertainty k = 0.163956
        12        13        23        11     4      180.000000        3.647774         2    ;  uncertainty k = 0.163956
        12        23        11        13     4      180.000000        3.647774         2    ;  uncertainty k = 0.163956
        13        12        14        24     4      180.000000        4.751046         2    ;  uncertainty k = 0.139242
        13        14        24        12     4      180.000000        4.751046         2    ;  uncertainty k = 0.139242
        13        24        12        14     4      180.000000        4.751046         2    ;  uncertainty k = 0.139242
        14        13        15        25     4      180.000000        3.190829         2    ;  uncertainty k = 0.101105
        14        15        25        13     4      180.000000        3.190829         2    ;  uncertainty k = 0.101105
        14        25        13        15     4      180.000000        3.190829         2    ;  uncertainty k = 0.101105
        15        10        14        16     4      180.000000       14.966953         2    ;  uncertainty k = 0.034837
        15        14        16        10     4      180.000000       14.966953         2    ;  uncertainty k = 0.034837
        15        16        10        14     4      180.000000       14.966953         2    ;  uncertainty k = 0.034837

[ pairs ]
;       ai        aj funct
         1         4     1
         1         5     1
         2         6     1
         2         9     1
         3         7     1
         3         8     1
         3        10     1
         3        17     1
         3        18     1
         3        19     1
         4         6     1
         4        11     1
         4        15     1
         5         9     1
         5        20     1
         5        21     1
         6        10     1
         7         9     1
         8        11     1
         8        15     1
         8        20     1
         8        21     1
         9        12     1
         9        14     1
         9        16     1
         9        22     1
        10        13     1
        10        23     1
        10        25     1
        11        14     1
        11        16     1
        11        24     1
        12        15     1
        12        25     1
        13        16     1
        13        22     1
        14        23     1
        15        22     1
        15        24     1
        16        25     1
        22        23     1
        23        24     1
        24        25     1
