; ITP file created by ByteFF-ML, 2025-12-06 03:37:23.143345

[ atomtypes ]
;name           bonded.type        at.num        mass        charge   ptype           sigma         epsilon
 s0bf                                  16      0.0000       0.00000       A     3.52865e-01     1.18163e+00
 c1bf                                   6      0.0000       0.00000       A     3.31418e-01     4.08546e-01
 n2bf                                   7      0.0000       0.00000       A     3.38233e-01     3.92378e-01
 c3bf                                   6      0.0000       0.00000       A     3.40032e-01     4.52902e-01
 c4bf                                   6      0.0000       0.00000       A     3.39768e-01     4.44604e-01
 c5bf                                   6      0.0000       0.00000       A     3.39549e-01     4.52775e-01
 c6bf                                   6      0.0000       0.00000       A     3.39912e-01     4.52012e-01
 c7bf                                   6      0.0000       0.00000       A     3.39742e-01     4.49894e-01
 h8bf                                   1      0.0000       0.00000       A     2.42262e-01     8.74071e-02
 h9bf                                   1      0.0000       0.00000       A     2.42262e-01     8.74071e-02
 h10bf                                  1      0.0000       0.00000       A     2.41554e-01     8.77998e-02
 h11bf                                  1      0.0000       0.00000       A     2.41554e-01     8.77998e-02
 h12bf                                  1      0.0000       0.00000       A     2.59993e-01     8.75268e-02
 h13bf                                  1      0.0000       0.00000       A     2.59843e-01     8.83472e-02
 h14bf                                  1      0.0000       0.00000       A     2.59957e-01     8.76833e-02
 h15bf                                  1      0.0000       0.00000       A     2.59957e-01     8.76833e-02
 h16bf                                  1      0.0000       0.00000       A     2.59957e-01     8.76833e-02
 h17bf                                  1      0.0000       0.00000       A     2.59993e-01     8.75268e-02
 c18bf                                  6      0.0000       0.00000       A     3.39742e-01     4.49894e-01
 h19bf                                  1      0.0000       0.00000       A     2.59957e-01     8.76833e-02
 h20bf                                  1      0.0000       0.00000       A     2.59957e-01     8.76833e-02
 h21bf                                  1      0.0000       0.00000       A     2.59957e-01     8.76833e-02

[ moleculetype ]
;name             nrexcl
 IBT                   3

[ atoms ]
;       nr            type      resi   res      atom      cgnr      charge          mass ; qtot
         1            s0bf         1   UNL        s0         1    -0.39970       32.0670 ; qtot   -0.400
         2            c1bf         1   UNL        c1         2     0.48634       12.0110 ; qtot    0.087
         3            n2bf         1   UNL        n2         3    -0.57020       14.0070 ; qtot   -0.484
         4            c3bf         1   UNL        c3         4     0.08985       12.0110 ; qtot   -0.394
         5            c4bf         1   UNL        c4         5     0.03725       12.0110 ; qtot   -0.356
         6            c5bf         1   UNL        c5         6    -0.11063       12.0110 ; qtot   -0.467
         7            c6bf         1   UNL        c6         7    -0.05867       12.0110 ; qtot   -0.526
         8            c7bf         1   UNL        c7         8    -0.09248       12.0110 ; qtot   -0.618
         9            h8bf         1   UNL        h8         9     0.07307        1.0080 ; qtot   -0.545
        10            h9bf         1   UNL        h9        10     0.07307        1.0080 ; qtot   -0.472
        11           h10bf         1   UNL       h10        11     0.08176        1.0080 ; qtot   -0.390
        12           h11bf         1   UNL       h11        12     0.08176        1.0080 ; qtot   -0.309
        13           h12bf         1   UNL       h12        13     0.06680        1.0080 ; qtot   -0.242
        14           h13bf         1   UNL       h13        14     0.05093        1.0080 ; qtot   -0.191
        15           h14bf         1   UNL       h14        15     0.03609        1.0080 ; qtot   -0.155
        16           h15bf         1   UNL       h15        16     0.03609        1.0080 ; qtot   -0.119
        17           h16bf         1   UNL       h16        17     0.03609        1.0080 ; qtot   -0.083
        18           h17bf         1   UNL       h17        18     0.06680        1.0080 ; qtot   -0.016
        19           c18bf         1   UNL       c18        19    -0.09248       12.0110 ; qtot   -0.108
        20           h19bf         1   UNL       h19        20     0.03609        1.0080 ; qtot   -0.072
        21           h20bf         1   UNL       h20        21     0.03609        1.0080 ; qtot   -0.036
        22           h21bf         1   UNL       h21        22     0.03608        1.0080 ; qtot   -0.000

[ bonds ]
;       ai        aj funct               r               k
         1         2     1        0.180354    93551.382397
         1         5     1        0.183832   108387.791748
         2         3     1        0.127563   529135.545898
         2         6     1        0.150339   203009.970679
         3         4     1        0.146200   176199.887476
         4         5     1        0.154564   160853.348828
         4         9     1        0.109555   294989.109863
         4        10     1        0.109555   294989.109863
         5        11     1        0.109102   311862.857031
         5        12     1        0.109102   311862.857031
         6         7     1        0.154769   161523.378735
         6        13     1        0.109456   298145.547656
         6        18     1        0.109456   298145.547656
         7         8     1        0.153553   184977.949609
         7        14     1        0.109692   299148.721924
         7        19     1        0.153553   184977.949609
         8        15     1        0.109457   298012.269482
         8        16     1        0.109457   298012.218408
         8        17     1        0.109457   298012.218408
        19        20     1        0.109457   298012.269482
        19        21     1        0.109457   298012.218408
        19        22     1        0.109457   298012.218408

[ angles ]
;       ai        aj        ak funct           theta             cth
         1         2         3     1      117.707443      234.031296
         1         2         6     1      118.657570      422.576403
         1         5         4     1      104.694237      376.740803
         1         5        11     1      109.204323      381.753290
         1         5        12     1      109.204323      381.753290
         2         1         5     1       88.564255      588.238760
         2         3         4     1      112.774437      435.779727
         2         6         7     1      113.648354      586.429583
         2         6        13     1      108.245605      527.493701
         2         6        18     1      108.245605      527.493765
         3         2         6     1      124.089493      401.132317
         3         4         5     1      110.035110      322.273245
         3         4         9     1      108.754051      472.199028
         3         4        10     1      108.754051      472.199028
         4         5        11     1      112.228897      457.799865
         4         5        12     1      112.228897      457.799865
         5         4         9     1      110.708603      425.005141
         5         4        10     1      110.708603      425.005141
         6         7         8     1      110.980576      603.883878
         6         7        14     1      106.861282      480.648747
         6         7        19     1      110.980576      603.883814
         7         6        13     1      109.520470      477.029883
         7         6        18     1      109.520470      477.029883
         7         8        15     1      111.080551      510.092077
         7         8        16     1      111.080551      510.092077
         7         8        17     1      111.080551      510.092077
         7        19        20     1      111.080551      510.092077
         7        19        21     1      111.080551      510.092077
         7        19        22     1      111.080551      510.092077
         8         7        14     1      108.126427      504.946892
         8         7        19     1      110.969849      640.339251
         9         4        10     1      107.489441      347.041240
        11         5        12     1      109.550964      346.605418
        13         6        18     1      107.323875      358.431685
        14         7        19     1      108.126427      504.946892
        15         8        16     1      107.855431      361.870225
        15         8        17     1      107.855431      361.870225
        16         8        17     1      107.855431      361.870225
        20        19        21     1      107.855431      361.870225
        20        19        22     1      107.855431      361.870225
        21        19        22     1      107.855431      361.870225

[ dihedrals ] ; propers for gromacs 4.5 or higher, use funct 9
;       ai        aj        ak        al funct           phase               k        pn
         1         2         3         4     9        0.000000       -0.430108         1
         1         2         3         4     9      180.000000       42.669334         2
         1         2         3         4     9        0.000000       -2.212389         3
         1         2         3         4     9      180.000000       -1.722629         4
         1         2         6         7     9        0.000000       -1.415942         1
         1         2         6         7     9      180.000000        0.336545         2
         1         2         6         7     9        0.000000        0.325722         3
         1         2         6         7     9      180.000000        0.002466         4
         1         2         6        13     9        0.000000        0.388482         1
         1         2         6        13     9      180.000000       -0.156501         2
         1         2         6        13     9        0.000000        0.341738         3
         1         2         6        13     9      180.000000        0.037217         4
         1         2         6        18     9        0.000000        0.388482         1
         1         2         6        18     9      180.000000       -0.156501         2
         1         2         6        18     9        0.000000        0.341738         3
         1         2         6        18     9      180.000000        0.037217         4
         1         5         4         3     9        0.000000       -0.338060         1
         1         5         4         3     9      180.000000        2.664898         2
         1         5         4         3     9        0.000000        0.360077         3
         1         5         4         3     9      180.000000       -3.146447         4
         1         5         4         9     9        0.000000        0.150139         1
         1         5         4         9     9      180.000000       -0.139598         2
         1         5         4         9     9        0.000000        0.735050         3
         1         5         4         9     9      180.000000        0.058392         4
         1         5         4        10     9        0.000000        0.150139         1
         1         5         4        10     9      180.000000       -0.139598         2
         1         5         4        10     9        0.000000        0.735050         3
         1         5         4        10     9      180.000000        0.058392         4
         2         1         5         4     9        0.000000       -0.284726         1
         2         1         5         4     9      180.000000       11.818683         2
         2         1         5         4     9        0.000000       -0.611929         3
         2         1         5         4     9      180.000000       -4.161682         4
         2         1         5        11     9        0.000000        0.121526         1
         2         1         5        11     9      180.000000        0.045244         2
         2         1         5        11     9        0.000000       -0.292067         3
         2         1         5        11     9      180.000000        0.398987         4
         2         1         5        12     9        0.000000        0.121526         1
         2         1         5        12     9      180.000000        0.045244         2
         2         1         5        12     9        0.000000       -0.292067         3
         2         1         5        12     9      180.000000        0.398987         4
         2         3         4         5     9        0.000000       -0.278120         1
         2         3         4         5     9      180.000000       13.009815         2
         2         3         4         5     9        0.000000       -1.465157         3
         2         3         4         5     9      180.000000       -2.513610         4
         2         3         4         9     9        0.000000        0.381253         1
         2         3         4         9     9      180.000000       -0.199050         2
         2         3         4         9     9        0.000000       -0.584404         3
         2         3         4         9     9      180.000000        0.356682         4
         2         3         4        10     9        0.000000        0.381253         1
         2         3         4        10     9      180.000000       -0.199050         2
         2         3         4        10     9        0.000000       -0.584404         3
         2         3         4        10     9      180.000000        0.356682         4
         2         6         7         8     9        0.000000       -0.086714         1
         2         6         7         8     9      180.000000       -0.007711         2
         2         6         7         8     9        0.000000        0.482763         3
         2         6         7         8     9      180.000000       -0.000301         4
         2         6         7        14     9        0.000000       -0.170894         1
         2         6         7        14     9      180.000000        0.002862         2
         2         6         7        14     9        0.000000        0.486925         3
         2         6         7        14     9      180.000000        0.011163         4
         2         6         7        19     9        0.000000       -0.086713         1
         2         6         7        19     9      180.000000       -0.007710         2
         2         6         7        19     9        0.000000        0.482763         3
         2         6         7        19     9      180.000000       -0.000301         4
         3         2         1         5     9        0.000000       -0.764381         1
         3         2         1         5     9      180.000000       26.919285         2
         3         2         1         5     9        0.000000       -3.627886         3
         3         2         1         5     9      180.000000       -1.951404         4
         3         2         6         7     9        0.000000       -2.222829         1
         3         2         6         7     9      180.000000        1.271609         2
         3         2         6         7     9        0.000000       -0.333969         3
         3         2         6         7     9      180.000000        0.047574         4
         3         2         6        13     9        0.000000        0.184631         1
         3         2         6        13     9      180.000000        0.181288         2
         3         2         6        13     9        0.000000       -0.302734         3
         3         2         6        13     9      180.000000        0.038168         4
         3         2         6        18     9        0.000000        0.184630         1
         3         2         6        18     9      180.000000        0.181287         2
         3         2         6        18     9        0.000000       -0.302734         3
         3         2         6        18     9      180.000000        0.038168         4
         3         4         5        11     9        0.000000        0.060617         1
         3         4         5        11     9      180.000000        0.075180         2
         3         4         5        11     9        0.000000        0.435990         3
         3         4         5        11     9      180.000000        0.063085         4
         3         4         5        12     9        0.000000        0.060617         1
         3         4         5        12     9      180.000000        0.075181         2
         3         4         5        12     9        0.000000        0.435990         3
         3         4         5        12     9      180.000000        0.063085         4
         4         3         2         6     9        0.000000        1.385331         1
         4         3         2         6     9      180.000000       37.539962         2
         4         3         2         6     9        0.000000        2.201239         3
         4         3         2         6     9      180.000000       -1.688746         4
         5         1         2         6     9        0.000000        0.639759         1
         5         1         2         6     9      180.000000       15.466989         2
         5         1         2         6     9        0.000000        0.683038         3
         5         1         2         6     9      180.000000       -0.703410         4
         6         7         8        15     9        0.000000       -0.032501         1
         6         7         8        15     9      180.000000        0.016018         2
         6         7         8        15     9        0.000000        0.478026         3
         6         7         8        15     9      180.000000        0.017704         4
         6         7         8        16     9        0.000000       -0.032501         1
         6         7         8        16     9      180.000000        0.016018         2
         6         7         8        16     9        0.000000        0.478026         3
         6         7         8        16     9      180.000000        0.017704         4
         6         7         8        17     9        0.000000       -0.032501         1
         6         7         8        17     9      180.000000        0.016018         2
         6         7         8        17     9        0.000000        0.478026         3
         6         7         8        17     9      180.000000        0.017704         4
         6         7        19        20     9        0.000000       -0.032500         1
         6         7        19        20     9      180.000000        0.016018         2
         6         7        19        20     9        0.000000        0.478026         3
         6         7        19        20     9      180.000000        0.017704         4
         6         7        19        21     9        0.000000       -0.032501         1
         6         7        19        21     9      180.000000        0.016017         2
         6         7        19        21     9        0.000000        0.478027         3
         6         7        19        21     9      180.000000        0.017704         4
         6         7        19        22     9        0.000000       -0.032501         1
         6         7        19        22     9      180.000000        0.016017         2
         6         7        19        22     9        0.000000        0.478027         3
         6         7        19        22     9      180.000000        0.017704         4
         8         7         6        13     9        0.000000       -0.122175         1
         8         7         6        13     9      180.000000       -0.000872         2
         8         7         6        13     9        0.000000        0.611367         3
         8         7         6        13     9      180.000000        0.055324         4
         8         7         6        18     9        0.000000       -0.122175         1
         8         7         6        18     9      180.000000       -0.000872         2
         8         7         6        18     9        0.000000        0.611367         3
         8         7         6        18     9      180.000000        0.055324         4
         8         7        19        20     9        0.000000       -0.067326         1
         8         7        19        20     9      180.000000        0.012090         2
         8         7        19        20     9        0.000000        0.540831         3
         8         7        19        20     9      180.000000        0.041306         4
         8         7        19        21     9        0.000000       -0.067326         1
         8         7        19        21     9      180.000000        0.012090         2
         8         7        19        21     9        0.000000        0.540831         3
         8         7        19        21     9      180.000000        0.041306         4
         8         7        19        22     9        0.000000       -0.067325         1
         8         7        19        22     9      180.000000        0.012091         2
         8         7        19        22     9        0.000000        0.540831         3
         8         7        19        22     9      180.000000        0.041306         4
         9         4         5        11     9        0.000000       -0.049599         1
         9         4         5        11     9      180.000000        0.096291         2
         9         4         5        11     9        0.000000        0.504223         3
         9         4         5        11     9      180.000000        0.004550         4
         9         4         5        12     9        0.000000       -0.049599         1
         9         4         5        12     9      180.000000        0.096291         2
         9         4         5        12     9        0.000000        0.504223         3
         9         4         5        12     9      180.000000        0.004550         4
        10         4         5        11     9        0.000000       -0.049599         1
        10         4         5        11     9      180.000000        0.096291         2
        10         4         5        11     9        0.000000        0.504223         3
        10         4         5        11     9      180.000000        0.004550         4
        10         4         5        12     9        0.000000       -0.049599         1
        10         4         5        12     9      180.000000        0.096291         2
        10         4         5        12     9        0.000000        0.504223         3
        10         4         5        12     9      180.000000        0.004550         4
        13         6         7        14     9        0.000000        0.245023         1
        13         6         7        14     9      180.000000        0.078533         2
        13         6         7        14     9        0.000000        0.630209         3
        13         6         7        14     9      180.000000       -0.073482         4
        13         6         7        19     9        0.000000       -0.122174         1
        13         6         7        19     9      180.000000       -0.000872         2
        13         6         7        19     9        0.000000        0.611367         3
        13         6         7        19     9      180.000000        0.055325         4
        14         7         6        18     9        0.000000        0.245024         1
        14         7         6        18     9      180.000000        0.078533         2
        14         7         6        18     9        0.000000        0.630209         3
        14         7         6        18     9      180.000000       -0.073482         4
        14         7         8        15     9        0.000000        0.064944         1
        14         7         8        15     9      180.000000        0.034162         2
        14         7         8        15     9        0.000000        0.574730         3
        14         7         8        15     9      180.000000       -0.025019         4
        14         7         8        16     9        0.000000        0.064944         1
        14         7         8        16     9      180.000000        0.034162         2
        14         7         8        16     9        0.000000        0.574730         3
        14         7         8        16     9      180.000000       -0.025019         4
        14         7         8        17     9        0.000000        0.064944         1
        14         7         8        17     9      180.000000        0.034162         2
        14         7         8        17     9        0.000000        0.574730         3
        14         7         8        17     9      180.000000       -0.025019         4
        14         7        19        20     9        0.000000        0.064945         1
        14         7        19        20     9      180.000000        0.034162         2
        14         7        19        20     9        0.000000        0.574731         3
        14         7        19        20     9      180.000000       -0.025019         4
        14         7        19        21     9        0.000000        0.064944         1
        14         7        19        21     9      180.000000        0.034160         2
        14         7        19        21     9        0.000000        0.574730         3
        14         7        19        21     9      180.000000       -0.025019         4
        14         7        19        22     9        0.000000        0.064944         1
        14         7        19        22     9      180.000000        0.034160         2
        14         7        19        22     9        0.000000        0.574730         3
        14         7        19        22     9      180.000000       -0.025019         4
        15         8         7        19     9        0.000000       -0.067326         1
        15         8         7        19     9      180.000000        0.012090         2
        15         8         7        19     9        0.000000        0.540831         3
        15         8         7        19     9      180.000000        0.041306         4
        16         8         7        19     9        0.000000       -0.067326         1
        16         8         7        19     9      180.000000        0.012090         2
        16         8         7        19     9        0.000000        0.540831         3
        16         8         7        19     9      180.000000        0.041306         4
        17         8         7        19     9        0.000000       -0.067326         1
        17         8         7        19     9      180.000000        0.012090         2
        17         8         7        19     9        0.000000        0.540831         3
        17         8         7        19     9      180.000000        0.041306         4
        18         6         7        19     9        0.000000       -0.122175         1
        18         6         7        19     9      180.000000       -0.000871         2
        18         6         7        19     9        0.000000        0.611368         3
        18         6         7        19     9      180.000000        0.055324         4

[ pairs ]
;       ai        aj funct
         1         7     1
         1         9     1
         1        10     1
         1        13     1
         1        18     1
         2         8     1
         2         9     1
         2        10     1
         2        11     1
         2        12     1
         2        14     1
         2        19     1
         3         7     1
         3        11     1
         3        12     1
         3        13     1
         3        18     1
         4         6     1
         5         6     1
         6        15     1
         6        16     1
         6        17     1
         6        20     1
         6        21     1
         6        22     1
         8        13     1
         8        18     1
         8        20     1
         8        21     1
         8        22     1
         9        11     1
         9        12     1
        10        11     1
        10        12     1
        13        14     1
        13        19     1
        14        15     1
        14        16     1
        14        17     1
        14        18     1
        14        20     1
        14        21     1
        14        22     1
        15        19     1
        16        19     1
        17        19     1
        18        19     1
