; ITP file created by ByteFF-ML, 2025-12-06 03:37:56.339163

[ atomtypes ]
;name           bonded.type        at.num        mass        charge   ptype           sigma         epsilon
 s0bf                                  16      0.0000       0.00000       A     3.52932e-01     1.18209e+00
 c1bf                                   6      0.0000       0.00000       A     3.31569e-01     4.11111e-01
 n2bf                                   7      0.0000       0.00000       A     3.38147e-01     3.93038e-01
 c3bf                                   6      0.0000       0.00000       A     3.39997e-01     4.52773e-01
 c4bf                                   6      0.0000       0.00000       A     3.39753e-01     4.44909e-01
 c5bf                                   6      0.0000       0.00000       A     3.39819e-01     4.50832e-01
 h6bf                                   1      0.0000       0.00000       A     2.42262e-01     8.74071e-02
 h7bf                                   1      0.0000       0.00000       A     2.42262e-01     8.74071e-02
 h8bf                                   1      0.0000       0.00000       A     2.41554e-01     8.77998e-02
 h9bf                                   1      0.0000       0.00000       A     2.41554e-01     8.77998e-02
 h10bf                                  1      0.0000       0.00000       A     2.59842e-01     8.77998e-02
 h11bf                                  1      0.0000       0.00000       A     2.59842e-01     8.77998e-02
 h12bf                                  1      0.0000       0.00000       A     2.59842e-01     8.77998e-02

[ moleculetype ]
;name             nrexcl
 MT                    3

[ atoms ]
;       nr            type      resi   res      atom      cgnr      charge          mass ; qtot
         1            s0bf         1   UNL        s0         1    -0.41174       32.0670 ; qtot   -0.412
         2            c1bf         1   UNL        c1         2     0.47334       12.0110 ; qtot    0.062
         3            n2bf         1   UNL        n2         3    -0.57015       14.0070 ; qtot   -0.509
         4            c3bf         1   UNL        c3         4     0.08890       12.0110 ; qtot   -0.420
         5            c4bf         1   UNL        c4         5     0.03852       12.0110 ; qtot   -0.381
         6            c5bf         1   UNL        c5         6    -0.12345       12.0110 ; qtot   -0.505
         7            h6bf         1   UNL        h6         7     0.07249        1.0080 ; qtot   -0.432
         8            h7bf         1   UNL        h7         8     0.07249        1.0080 ; qtot   -0.360
         9            h8bf         1   UNL        h8         9     0.08186        1.0080 ; qtot   -0.278
        10            h9bf         1   UNL        h9        10     0.08186        1.0080 ; qtot   -0.196
        11           h10bf         1   UNL       h10        11     0.06529        1.0080 ; qtot   -0.131
        12           h11bf         1   UNL       h11        12     0.06529        1.0080 ; qtot   -0.065
        13           h12bf         1   UNL       h12        13     0.06530        1.0080 ; qtot   -0.000

[ bonds ]
;       ai        aj funct               r               k
         1         2     1        0.180380    93050.248547
         1         5     1        0.183740   108693.100659
         2         3     1        0.127491   530801.944434
         2         6     1        0.150063   211069.175952
         3         4     1        0.146232   176001.987646
         4         5     1        0.154575   160768.999756
         4         7     1        0.109558   294778.275488
         4         8     1        0.109558   294778.275488
         5         9     1        0.109101   311925.193115
         5        10     1        0.109101   311925.193115
         6        11     1        0.109300   307324.836084
         6        12     1        0.109300   307324.836084
         6        13     1        0.109300   307324.836084

[ angles ]
;       ai        aj        ak funct           theta             cth
         1         2         3     1      117.777573      239.548301
         1         2         6     1      117.938988      441.868412
         1         5         4     1      104.774887      374.924348
         1         5         9     1      109.185158      383.927137
         1         5        10     1      109.185158      383.927137
         2         1         5     1       88.688370      597.750694
         2         3         4     1      112.893898      440.352018
         2         6        11     1      110.136429      519.015189
         2         6        12     1      110.136429      519.015189
         2         6        13     1      110.136429      519.015189
         3         2         6     1      124.270775      395.135438
         3         4         5     1      110.030807      324.689215
         3         4         7     1      108.725327      473.759154
         3         4         8     1      108.725327      473.759154
         4         5         9     1      112.229759      457.844204
         4         5        10     1      112.229759      457.844204
         5         4         7     1      110.693260      424.847769
         5         4         8     1      110.693260      424.847769
         7         4         8     1      107.473267      347.040059
         9         5        10     1      109.543594      346.457111
        11         6        12     1      108.780212      354.252218
        11         6        13     1      108.780212      354.252218
        12         6        13     1      108.780212      354.252218

[ dihedrals ] ; propers for gromacs 4.5 or higher, use funct 9
;       ai        aj        ak        al funct           phase               k        pn
         1         2         3         4     9        0.000000       -0.546284         1
         1         2         3         4     9      180.000000       42.943578         2
         1         2         3         4     9        0.000000       -2.483180         3
         1         2         3         4     9      180.000000       -1.784656         4
         1         2         6        11     9        0.000000        0.212845         1
         1         2         6        11     9      180.000000       -0.127578         2
         1         2         6        11     9        0.000000        0.099357         3
         1         2         6        11     9      180.000000        0.016573         4
         1         2         6        12     9        0.000000        0.212845         1
         1         2         6        12     9      180.000000       -0.127578         2
         1         2         6        12     9        0.000000        0.099357         3
         1         2         6        12     9      180.000000        0.016573         4
         1         2         6        13     9        0.000000        0.212845         1
         1         2         6        13     9      180.000000       -0.127578         2
         1         2         6        13     9        0.000000        0.099357         3
         1         2         6        13     9      180.000000        0.016573         4
         1         5         4         3     9        0.000000       -0.518251         1
         1         5         4         3     9      180.000000        2.757051         2
         1         5         4         3     9        0.000000        0.342029         3
         1         5         4         3     9      180.000000       -3.202475         4
         1         5         4         7     9        0.000000        0.177189         1
         1         5         4         7     9      180.000000       -0.159033         2
         1         5         4         7     9        0.000000        0.730567         3
         1         5         4         7     9      180.000000        0.066837         4
         1         5         4         8     9        0.000000        0.177189         1
         1         5         4         8     9      180.000000       -0.159033         2
         1         5         4         8     9        0.000000        0.730567         3
         1         5         4         8     9      180.000000        0.066837         4
         2         1         5         4     9        0.000000       -0.240012         1
         2         1         5         4     9      180.000000       10.736424         2
         2         1         5         4     9        0.000000       -0.485040         3
         2         1         5         4     9      180.000000       -4.049774         4
         2         1         5         9     9        0.000000        0.129012         1
         2         1         5         9     9      180.000000       -0.122573         2
         2         1         5         9     9        0.000000       -0.253926         3
         2         1         5         9     9      180.000000        0.373231         4
         2         1         5        10     9        0.000000        0.129012         1
         2         1         5        10     9      180.000000       -0.122573         2
         2         1         5        10     9        0.000000       -0.253926         3
         2         1         5        10     9      180.000000        0.373231         4
         2         3         4         5     9        0.000000       -0.194718         1
         2         3         4         5     9      180.000000       12.693316         2
         2         3         4         5     9        0.000000       -1.476658         3
         2         3         4         5     9      180.000000       -2.548081         4
         2         3         4         7     9        0.000000        0.372130         1
         2         3         4         7     9      180.000000       -0.137792         2
         2         3         4         7     9        0.000000       -0.542721         3
         2         3         4         7     9      180.000000        0.298319         4
         2         3         4         8     9        0.000000        0.372130         1
         2         3         4         8     9      180.000000       -0.137792         2
         2         3         4         8     9        0.000000       -0.542721         3
         2         3         4         8     9      180.000000        0.298319         4
         3         2         1         5     9        0.000000       -0.978353         1
         3         2         1         5     9      180.000000       26.551070         2
         3         2         1         5     9        0.000000       -3.499083         3
         3         2         1         5     9      180.000000       -1.947257         4
         3         2         6        11     9        0.000000        0.060116         1
         3         2         6        11     9      180.000000        0.006881         2
         3         2         6        11     9        0.000000       -0.308829         3
         3         2         6        11     9      180.000000        0.036954         4
         3         2         6        12     9        0.000000        0.060116         1
         3         2         6        12     9      180.000000        0.006881         2
         3         2         6        12     9        0.000000       -0.308829         3
         3         2         6        12     9      180.000000        0.036954         4
         3         2         6        13     9        0.000000        0.060116         1
         3         2         6        13     9      180.000000        0.006881         2
         3         2         6        13     9        0.000000       -0.308829         3
         3         2         6        13     9      180.000000        0.036954         4
         3         4         5         9     9        0.000000        0.085876         1
         3         4         5         9     9      180.000000        0.082903         2
         3         4         5         9     9        0.000000        0.434026         3
         3         4         5         9     9      180.000000        0.066488         4
         3         4         5        10     9        0.000000        0.085876         1
         3         4         5        10     9      180.000000        0.082903         2
         3         4         5        10     9        0.000000        0.434026         3
         3         4         5        10     9      180.000000        0.066488         4
         4         3         2         6     9        0.000000        1.223421         1
         4         3         2         6     9      180.000000       36.881507         2
         4         3         2         6     9        0.000000        1.832539         3
         4         3         2         6     9      180.000000       -1.699612         4
         5         1         2         6     9        0.000000        1.172432         1
         5         1         2         6     9      180.000000       14.474001         2
         5         1         2         6     9        0.000000        0.757333         3
         5         1         2         6     9      180.000000       -0.674942         4
         7         4         5         9     9        0.000000       -0.049107         1
         7         4         5         9     9      180.000000        0.093988         2
         7         4         5         9     9        0.000000        0.503201         3
         7         4         5         9     9      180.000000        0.003276         4
         7         4         5        10     9        0.000000       -0.049107         1
         7         4         5        10     9      180.000000        0.093987         2
         7         4         5        10     9        0.000000        0.503201         3
         7         4         5        10     9      180.000000        0.003276         4
         8         4         5         9     9        0.000000       -0.049107         1
         8         4         5         9     9      180.000000        0.093987         2
         8         4         5         9     9        0.000000        0.503201         3
         8         4         5         9     9      180.000000        0.003276         4
         8         4         5        10     9        0.000000       -0.049107         1
         8         4         5        10     9      180.000000        0.093987         2
         8         4         5        10     9        0.000000        0.503201         3
         8         4         5        10     9      180.000000        0.003276         4

[ dihedrals ] ; impropers
;       ai        aj        ak        al funct           phase               k        pn
         2         1         3         6     4      180.000000       10.154179         2
         2         3         6         1     4      180.000000       10.154179         2
         2         6         1         3     4      180.000000       10.154179         2

[ pairs ]
;       ai        aj funct
         1         7     1
         1         8     1
         1        11     1
         1        12     1
         1        13     1
         2         7     1
         2         8     1
         2         9     1
         2        10     1
         3         9     1
         3        10     1
         3        11     1
         3        12     1
         3        13     1
         4         6     1
         5         6     1
         7         9     1
         7        10     1
         8         9     1
         8        10     1
