; ITP file created by ByteFF-ML, 2025-12-06 03:37:33.142058

[ atomtypes ]
;name           bonded.type        at.num        mass        charge   ptype           sigma         epsilon
 s0bf                                  16      0.0000       0.00000       A     3.52847e-01     1.18098e+00
 c1bf                                   6      0.0000       0.00000       A     3.31378e-01     4.09357e-01
 n2bf                                   7      0.0000       0.00000       A     3.38209e-01     3.91894e-01
 c3bf                                   6      0.0000       0.00000       A     3.40032e-01     4.52902e-01
 c4bf                                   6      0.0000       0.00000       A     3.39768e-01     4.44604e-01
 c5bf                                   6      0.0000       0.00000       A     3.39516e-01     4.51969e-01
 c6bf                                   6      0.0000       0.00000       A     3.39831e-01     4.51191e-01
 c7bf                                   6      0.0000       0.00000       A     3.39730e-01     4.50615e-01
 h8bf                                   1      0.0000       0.00000       A     2.42262e-01     8.74071e-02
 h9bf                                   1      0.0000       0.00000       A     2.42262e-01     8.74071e-02
 h10bf                                  1      0.0000       0.00000       A     2.41554e-01     8.77998e-02
 h11bf                                  1      0.0000       0.00000       A     2.41554e-01     8.77998e-02
 h12bf                                  1      0.0000       0.00000       A     2.60022e-01     8.73832e-02
 h13bf                                  1      0.0000       0.00000       A     2.60162e-01     8.81302e-02
 h14bf                                  1      0.0000       0.00000       A     2.60162e-01     8.81302e-02
 h15bf                                  1      0.0000       0.00000       A     2.60046e-01     8.73481e-02
 h16bf                                  1      0.0000       0.00000       A     2.60046e-01     8.73481e-02
 h17bf                                  1      0.0000       0.00000       A     2.60046e-01     8.73481e-02
 h18bf                                  1      0.0000       0.00000       A     2.60022e-01     8.73832e-02

[ moleculetype ]
;name             nrexcl
 PT                    3

[ atoms ]
;       nr            type      resi   res      atom      cgnr      charge          mass ; qtot
         1            s0bf         1   UNL        s0         1    -0.40095       32.0670 ; qtot   -0.401
         2            c1bf         1   UNL        c1         2     0.48238       12.0110 ; qtot    0.081
         3            n2bf         1   UNL        n2         3    -0.56937       14.0070 ; qtot   -0.488
         4            c3bf         1   UNL        c3         4     0.09032       12.0110 ; qtot   -0.398
         5            c4bf         1   UNL        c4         5     0.03727       12.0110 ; qtot   -0.360
         6            c5bf         1   UNL        c5         6    -0.11023       12.0110 ; qtot   -0.471
         7            c6bf         1   UNL        c6         7    -0.07329       12.0110 ; qtot   -0.544
         8            c7bf         1   UNL        c7         8    -0.09387       12.0110 ; qtot   -0.638
         9            h8bf         1   UNL        h8         9     0.07307        1.0080 ; qtot   -0.565
        10            h9bf         1   UNL        h9        10     0.07307        1.0080 ; qtot   -0.492
        11           h10bf         1   UNL       h10        11     0.08176        1.0080 ; qtot   -0.410
        12           h11bf         1   UNL       h11        12     0.08176        1.0080 ; qtot   -0.328
        13           h12bf         1   UNL       h12        13     0.06558        1.0080 ; qtot   -0.263
        14           h13bf         1   UNL       h13        14     0.04500        1.0080 ; qtot   -0.218
        15           h14bf         1   UNL       h14        15     0.04500        1.0080 ; qtot   -0.173
        16           h15bf         1   UNL       h15        16     0.03564        1.0080 ; qtot   -0.137
        17           h16bf         1   UNL       h16        17     0.03564        1.0080 ; qtot   -0.101
        18           h17bf         1   UNL       h17        18     0.03564        1.0080 ; qtot   -0.066
        19           h18bf         1   UNL       h18        19     0.06558        1.0080 ; qtot   -0.000

[ bonds ]
;       ai        aj funct               r               k
         1         2     1        0.180381    93498.016223
         1         5     1        0.183836   108289.869702
         2         3     1        0.127557   528888.908496
         2         6     1        0.150291   203360.927173
         3         4     1        0.146190   176250.795703
         4         5     1        0.154564   160853.348828
         4         9     1        0.109555   294989.109863
         4        10     1        0.109555   294989.109863
         5        11     1        0.109102   311862.857031
         5        12     1        0.109102   311862.857031
         6         7     1        0.154066   176036.245679
         6        13     1        0.109462   298519.564160
         6        19     1        0.109462   298519.564160
         7         8     1        0.153290   191729.820874
         7        14     1        0.109554   295592.858203
         7        15     1        0.109554   295592.883740
         8        16     1        0.109459   298459.449805
         8        17     1        0.109459   298459.449805
         8        18     1        0.109459   298459.449805

[ angles ]
;       ai        aj        ak funct           theta             cth
         1         2         3     1      117.700478      234.583807
         1         2         6     1      118.575241      427.096790
         1         5         4     1      104.697777      377.091746
         1         5        11     1      109.207275      381.516434
         1         5        12     1      109.207275      381.516434
         2         1         5     1       88.580765      588.227332
         2         3         4     1      112.779465      436.761692
         2         6         7     1      112.615196      593.073509
         2         6        13     1      108.359764      528.457983
         2         6        19     1      108.359764      528.457983
         3         2         6     1      124.082260      398.343825
         3         4         5     1      110.031601      321.930537
         3         4         9     1      108.757828      471.746000
         3         4        10     1      108.757828      471.746000
         4         5        11     1      112.228897      457.799865
         4         5        12     1      112.228897      457.799865
         5         4         9     1      110.708603      425.005141
         5         4        10     1      110.708603      425.005141
         6         7         8     1      112.725769      628.842508
         6         7        14     1      108.646713      480.585000
         6         7        15     1      108.646713      480.585000
         7         6        13     1      109.943504      488.570103
         7         6        19     1      109.943504      488.570103
         7         8        16     1      111.132835      524.900791
         7         8        17     1      111.132835      524.900791
         7         8        18     1      111.132835      524.900791
         8         7        14     1      109.840958      517.317802
         8         7        15     1      109.840958      517.317802
         9         4        10     1      107.489441      347.041240
        11         5        12     1      109.550964      346.605418
        13         6        19     1      107.276016      358.707518
        14         7        15     1      106.535110      360.605787
        16         8        17     1      107.774460      361.935408
        16         8        18     1      107.774460      361.935408
        17         8        18     1      107.774460      361.935408

[ dihedrals ] ; propers for gromacs 4.5 or higher, use funct 9
;       ai        aj        ak        al funct           phase               k        pn
         1         2         3         4     9        0.000000       -0.449815         1
         1         2         3         4     9      180.000000       42.513900         2
         1         2         3         4     9        0.000000       -2.255216         3
         1         2         3         4     9      180.000000       -1.706739         4
         1         2         6         7     9        0.000000       -0.917891         1
         1         2         6         7     9      180.000000        0.368535         2
         1         2         6         7     9        0.000000        0.324844         3
         1         2         6         7     9      180.000000        0.032424         4
         1         2         6        13     9        0.000000        0.397946         1
         1         2         6        13     9      180.000000       -0.152691         2
         1         2         6        13     9        0.000000        0.290738         3
         1         2         6        13     9      180.000000        0.036398         4
         1         2         6        19     9        0.000000        0.397945         1
         1         2         6        19     9      180.000000       -0.152691         2
         1         2         6        19     9        0.000000        0.290738         3
         1         2         6        19     9      180.000000        0.036398         4
         1         5         4         3     9        0.000000       -0.438457         1
         1         5         4         3     9      180.000000        2.695210         2
         1         5         4         3     9        0.000000        0.360122         3
         1         5         4         3     9      180.000000       -3.140855         4
         1         5         4         9     9        0.000000        0.149387         1
         1         5         4         9     9      180.000000       -0.147283         2
         1         5         4         9     9        0.000000        0.732395         3
         1         5         4         9     9      180.000000        0.058894         4
         1         5         4        10     9        0.000000        0.149387         1
         1         5         4        10     9      180.000000       -0.147283         2
         1         5         4        10     9        0.000000        0.732395         3
         1         5         4        10     9      180.000000        0.058894         4
         2         1         5         4     9        0.000000       -0.296892         1
         2         1         5         4     9      180.000000       11.732399         2
         2         1         5         4     9        0.000000       -0.614315         3
         2         1         5         4     9      180.000000       -4.167090         4
         2         1         5        11     9        0.000000        0.106268         1
         2         1         5        11     9      180.000000        0.053546         2
         2         1         5        11     9        0.000000       -0.297529         3
         2         1         5        11     9      180.000000        0.403118         4
         2         1         5        12     9        0.000000        0.106268         1
         2         1         5        12     9      180.000000        0.053546         2
         2         1         5        12     9        0.000000       -0.297529         3
         2         1         5        12     9      180.000000        0.403118         4
         2         3         4         5     9        0.000000       -0.247401         1
         2         3         4         5     9      180.000000       12.940686         2
         2         3         4         5     9        0.000000       -1.464317         3
         2         3         4         5     9      180.000000       -2.504085         4
         2         3         4         9     9        0.000000        0.402532         1
         2         3         4         9     9      180.000000       -0.172272         2
         2         3         4         9     9        0.000000       -0.586990         3
         2         3         4         9     9      180.000000        0.355321         4
         2         3         4        10     9        0.000000        0.402532         1
         2         3         4        10     9      180.000000       -0.172272         2
         2         3         4        10     9        0.000000       -0.586990         3
         2         3         4        10     9      180.000000        0.355322         4
         2         6         7         8     9        0.000000       -0.334678         1
         2         6         7         8     9      180.000000       -0.175708         2
         2         6         7         8     9        0.000000        0.458867         3
         2         6         7         8     9      180.000000        0.010658         4
         2         6         7        14     9        0.000000        0.008634         1
         2         6         7        14     9      180.000000        0.117976         2
         2         6         7        14     9        0.000000        0.476991         3
         2         6         7        14     9      180.000000        0.013925         4
         2         6         7        15     9        0.000000        0.008634         1
         2         6         7        15     9      180.000000        0.117976         2
         2         6         7        15     9        0.000000        0.476991         3
         2         6         7        15     9      180.000000        0.013925         4
         3         2         1         5     9        0.000000       -0.889704         1
         3         2         1         5     9      180.000000       26.832192         2
         3         2         1         5     9        0.000000       -3.635120         3
         3         2         1         5     9      180.000000       -1.921713         4
         3         2         6         7     9        0.000000       -1.714258         1
         3         2         6         7     9      180.000000        1.345677         2
         3         2         6         7     9        0.000000       -0.413702         3
         3         2         6         7     9      180.000000        0.048803         4
         3         2         6        13     9        0.000000        0.185263         1
         3         2         6        13     9      180.000000        0.233692         2
         3         2         6        13     9        0.000000       -0.329430         3
         3         2         6        13     9      180.000000        0.030733         4
         3         2         6        19     9        0.000000        0.185264         1
         3         2         6        19     9      180.000000        0.233692         2
         3         2         6        19     9        0.000000       -0.329430         3
         3         2         6        19     9      180.000000        0.030733         4
         3         4         5        11     9        0.000000        0.059612         1
         3         4         5        11     9      180.000000        0.074134         2
         3         4         5        11     9        0.000000        0.437762         3
         3         4         5        11     9      180.000000        0.063762         4
         3         4         5        12     9        0.000000        0.059612         1
         3         4         5        12     9      180.000000        0.074134         2
         3         4         5        12     9        0.000000        0.437762         3
         3         4         5        12     9      180.000000        0.063762         4
         4         3         2         6     9        0.000000        1.350642         1
         4         3         2         6     9      180.000000       37.518411         2
         4         3         2         6     9        0.000000        2.190058         3
         4         3         2         6     9      180.000000       -1.731191         4
         5         1         2         6     9        0.000000        0.732114         1
         5         1         2         6     9      180.000000       15.296374         2
         5         1         2         6     9        0.000000        0.638982         3
         5         1         2         6     9      180.000000       -0.679499         4
         6         7         8        16     9        0.000000       -0.042362         1
         6         7         8        16     9      180.000000        0.045022         2
         6         7         8        16     9        0.000000        0.520185         3
         6         7         8        16     9      180.000000        0.025109         4
         6         7         8        17     9        0.000000       -0.042362         1
         6         7         8        17     9      180.000000        0.045022         2
         6         7         8        17     9        0.000000        0.520185         3
         6         7         8        17     9      180.000000        0.025109         4
         6         7         8        18     9        0.000000       -0.042362         1
         6         7         8        18     9      180.000000        0.045022         2
         6         7         8        18     9        0.000000        0.520185         3
         6         7         8        18     9      180.000000        0.025109         4
         8         7         6        13     9        0.000000       -0.119809         1
         8         7         6        13     9      180.000000        0.103945         2
         8         7         6        13     9        0.000000        0.629629         3
         8         7         6        13     9      180.000000        0.055934         4
         8         7         6        19     9        0.000000       -0.119810         1
         8         7         6        19     9      180.000000        0.103945         2
         8         7         6        19     9        0.000000        0.629629         3
         8         7         6        19     9      180.000000        0.055934         4
         9         4         5        11     9        0.000000       -0.049599         1
         9         4         5        11     9      180.000000        0.096290         2
         9         4         5        11     9        0.000000        0.504224         3
         9         4         5        11     9      180.000000        0.004550         4
         9         4         5        12     9        0.000000       -0.049599         1
         9         4         5        12     9      180.000000        0.096290         2
         9         4         5        12     9        0.000000        0.504224         3
         9         4         5        12     9      180.000000        0.004550         4
        10         4         5        11     9        0.000000       -0.049599         1
        10         4         5        11     9      180.000000        0.096290         2
        10         4         5        11     9        0.000000        0.504224         3
        10         4         5        11     9      180.000000        0.004550         4
        10         4         5        12     9        0.000000       -0.049599         1
        10         4         5        12     9      180.000000        0.096290         2
        10         4         5        12     9        0.000000        0.504224         3
        10         4         5        12     9      180.000000        0.004550         4
        13         6         7        14     9        0.000000        0.011485         1
        13         6         7        14     9      180.000000        0.021881         2
        13         6         7        14     9        0.000000        0.617507         3
        13         6         7        14     9      180.000000       -0.026871         4
        13         6         7        15     9        0.000000        0.011485         1
        13         6         7        15     9      180.000000        0.021881         2
        13         6         7        15     9        0.000000        0.617507         3
        13         6         7        15     9      180.000000       -0.026871         4
        14         7         6        19     9        0.000000        0.011485         1
        14         7         6        19     9      180.000000        0.021882         2
        14         7         6        19     9        0.000000        0.617507         3
        14         7         6        19     9      180.000000       -0.026871         4
        14         7         8        16     9        0.000000       -0.011738         1
        14         7         8        16     9      180.000000        0.030058         2
        14         7         8        16     9        0.000000        0.534702         3
        14         7         8        16     9      180.000000       -0.004536         4
        14         7         8        17     9        0.000000       -0.011738         1
        14         7         8        17     9      180.000000        0.030058         2
        14         7         8        17     9        0.000000        0.534702         3
        14         7         8        17     9      180.000000       -0.004536         4
        14         7         8        18     9        0.000000       -0.011739         1
        14         7         8        18     9      180.000000        0.030059         2
        14         7         8        18     9        0.000000        0.534702         3
        14         7         8        18     9      180.000000       -0.004536         4
        15         7         6        19     9        0.000000        0.011485         1
        15         7         6        19     9      180.000000        0.021881         2
        15         7         6        19     9        0.000000        0.617507         3
        15         7         6        19     9      180.000000       -0.026871         4
        15         7         8        16     9        0.000000       -0.011739         1
        15         7         8        16     9      180.000000        0.030059         2
        15         7         8        16     9        0.000000        0.534702         3
        15         7         8        16     9      180.000000       -0.004536         4
        15         7         8        17     9        0.000000       -0.011739         1
        15         7         8        17     9      180.000000        0.030059         2
        15         7         8        17     9        0.000000        0.534702         3
        15         7         8        17     9      180.000000       -0.004536         4
        15         7         8        18     9        0.000000       -0.011739         1
        15         7         8        18     9      180.000000        0.030059         2
        15         7         8        18     9        0.000000        0.534702         3
        15         7         8        18     9      180.000000       -0.004536         4

[ dihedrals ] ; impropers
;       ai        aj        ak        al funct           phase               k        pn
         2         1         3         6     4      180.000000        0.535432         2
         2         3         6         1     4      180.000000        0.535432         2
         2         6         1         3     4      180.000000        0.535432         2

[ pairs ]
;       ai        aj funct
         1         7     1
         1         9     1
         1        10     1
         1        13     1
         1        19     1
         2         8     1
         2         9     1
         2        10     1
         2        11     1
         2        12     1
         2        14     1
         2        15     1
         3         7     1
         3        11     1
         3        12     1
         3        13     1
         3        19     1
         4         6     1
         5         6     1
         6        16     1
         6        17     1
         6        18     1
         8        13     1
         8        19     1
         9        11     1
         9        12     1
        10        11     1
        10        12     1
        13        14     1
        13        15     1
        14        16     1
        14        17     1
        14        18     1
        14        19     1
        15        16     1
        15        17     1
        15        18     1
        15        19     1
