; ITP file created by ByteFF-ML, 2025-12-06 03:37:12.844553

[ atomtypes ]
;name           bonded.type        at.num        mass        charge   ptype           sigma         epsilon
 s0bf                                  16      0.0000       0.00000       A     3.52823e-01     1.17874e+00
 c1bf                                   6      0.0000       0.00000       A     3.31391e-01     4.10150e-01
 n2bf                                   7      0.0000       0.00000       A     3.38199e-01     3.90498e-01
 c3bf                                   6      0.0000       0.00000       A     3.40049e-01     4.53070e-01
 c4bf                                   6      0.0000       0.00000       A     3.39766e-01     4.44866e-01
 c5bf                                   6      0.0000       0.00000       A     3.39453e-01     4.51630e-01
 c6bf                                   6      0.0000       0.00000       A     3.39871e-01     4.51972e-01
 c7bf                                   6      0.0000       0.00000       A     3.39756e-01     4.50966e-01
 c8bf                                   6      0.0000       0.00000       A     3.39765e-01     4.50281e-01
 h9bf                                   1      0.0000       0.00000       A     2.42262e-01     8.74071e-02
 h10bf                                  1      0.0000       0.00000       A     2.42262e-01     8.74071e-02
 h11bf                                  1      0.0000       0.00000       A     2.41554e-01     8.77998e-02
 h12bf                                  1      0.0000       0.00000       A     2.41554e-01     8.77998e-02
 h13bf                                  1      0.0000       0.00000       A     2.60245e-01     8.80376e-02
 h14bf                                  1      0.0000       0.00000       A     2.60157e-01     8.78908e-02
 h15bf                                  1      0.0000       0.00000       A     2.60157e-01     8.78908e-02
 h16bf                                  1      0.0000       0.00000       A     2.60032e-01     8.74119e-02
 h17bf                                  1      0.0000       0.00000       A     2.60032e-01     8.74119e-02
 h18bf                                  1      0.0000       0.00000       A     2.60032e-01     8.74119e-02
 h19bf                                  1      0.0000       0.00000       A     2.59892e-01     8.72747e-02
 h20bf                                  1      0.0000       0.00000       A     2.59892e-01     8.72747e-02
 h21bf                                  1      0.0000       0.00000       A     2.59892e-01     8.72747e-02

[ moleculetype ]
;name             nrexcl
 SBT_R                 3

[ atoms ]
;       nr            type      resi   res      atom      cgnr      charge          mass ; qtot
         1            s0bf         1   UNL        s0         1    -0.39802       32.0670 ; qtot   -0.398
         2            c1bf         1   UNL        c1         2     0.48674       12.0110 ; qtot    0.089
         3            n2bf         1   UNL        n2         3    -0.57214       14.0070 ; qtot   -0.483
         4            c3bf         1   UNL        c3         4     0.09228       12.0110 ; qtot   -0.391
         5            c4bf         1   UNL        c4         5     0.03629       12.0110 ; qtot   -0.355
         6            c5bf         1   UNL        c5         6    -0.09295       12.0110 ; qtot   -0.448
         7            c6bf         1   UNL        c6         7    -0.06916       12.0110 ; qtot   -0.517
         8            c7bf         1   UNL        c7         8    -0.09240       12.0110 ; qtot   -0.609
         9            c8bf         1   UNL        c8         9    -0.08329       12.0110 ; qtot   -0.693
        10            h9bf         1   UNL        h9        10     0.07315        1.0080 ; qtot   -0.619
        11           h10bf         1   UNL       h10        11     0.07315        1.0080 ; qtot   -0.546
        12           h11bf         1   UNL       h11        12     0.08179        1.0080 ; qtot   -0.465
        13           h12bf         1   UNL       h12        13     0.08179        1.0080 ; qtot   -0.383
        14           h13bf         1   UNL       h13        14     0.06526        1.0080 ; qtot   -0.318
        15           h14bf         1   UNL       h14        15     0.04508        1.0080 ; qtot   -0.272
        16           h15bf         1   UNL       h15        16     0.04508        1.0080 ; qtot   -0.227
        17           h16bf         1   UNL       h16        17     0.03489        1.0080 ; qtot   -0.192
        18           h17bf         1   UNL       h17        18     0.03489        1.0080 ; qtot   -0.158
        19           h18bf         1   UNL       h18        19     0.03489        1.0080 ; qtot   -0.123
        20           h19bf         1   UNL       h19        20     0.04090        1.0080 ; qtot   -0.082
        21           h20bf         1   UNL       h20        21     0.04090        1.0080 ; qtot   -0.041
        22           h21bf         1   UNL       h21        22     0.04088        1.0080 ; qtot    0.000

[ bonds ]
;       ai        aj funct               r               k
         1         2     1        0.180563    92244.227148
         1         5     1        0.183785   108452.196338
         2         3     1        0.127597   527857.260352
         2         6     1        0.151046   189402.304883
         3         4     1        0.146150   176781.967578
         4         5     1        0.154536   161244.041064
         4        10     1        0.109557   294936.324658
         4        11     1        0.109557   294936.324658
         5        12     1        0.109102   311816.353955
         5        13     1        0.109102   311816.405029
         6         7     1        0.154586   165520.945068
         6         9     1        0.153878   179461.487085
         6        14     1        0.109589   298574.775391
         7         8     1        0.153310   191111.682373
         7        15     1        0.109558   294802.612354
         7        16     1        0.109558   294802.612354
         8        17     1        0.109447   298689.717920
         8        18     1        0.109447   298689.717920
         8        19     1        0.109447   298689.717920
         9        20     1        0.109351   301411.795020
         9        21     1        0.109351   301411.795020
         9        22     1        0.109351   301411.795020

[ angles ]
;       ai        aj        ak funct           theta             cth
         1         2         3     1      117.536964      231.595790
         1         2         6     1      118.597733      412.562823
         1         5         4     1      104.636765      378.994389
         1         5        12     1      109.246277      380.697012
         1         5        13     1      109.246277      380.697012
         2         1         5     1       88.680313      584.172549
         2         3         4     1      112.910057      431.767815
         2         6         7     1      110.794922      608.532973
         2         6         9     1      110.868042      631.061619
         2         6        14     1      106.124062      531.655739
         3         2         6     1      124.092613      395.988026
         3         4         5     1      109.953392      323.079356
         3         4        10     1      108.813232      470.186002
         3         4        11     1      108.813232      470.186002
         4         5        12     1      112.233475      457.414000
         4         5        13     1      112.233475      457.414000
         5         4        10     1      110.720604      425.253969
         5         4        11     1      110.720604      425.253969
         6         7         8     1      113.957054      618.484018
         6         7        15     1      108.354111      477.553139
         6         7        16     1      108.354111      477.553139
         6         9        20     1      110.728455      497.602834
         6         9        21     1      110.728455      497.602834
         6         9        22     1      110.728455      497.602834
         7         6         9     1      112.440102      604.849819
         7         6        14     1      107.736252      489.725146
         7         8        17     1      111.144493      523.500878
         7         8        18     1      111.144493      523.500878
         7         8        19     1      111.144493      523.500878
         8         7        15     1      109.647156      514.192921
         8         7        16     1      109.647156      514.192921
         9         6        14     1      108.265869      495.628145
        10         4        11     1      107.496010      347.140037
        12         5        13     1      109.545433      346.568006
        15         7        16     1      106.460655      361.278562
        17         8        18     1      107.750648      362.492692
        17         8        19     1      107.750648      362.492692
        18         8        19     1      107.750648      362.492692
        20         9        21     1      108.198853      361.496840
        20         9        22     1      108.198853      361.496840
        21         9        22     1      108.198853      361.496840

[ dihedrals ] ; propers for gromacs 4.5 or higher, use funct 9
;       ai        aj        ak        al funct           phase               k        pn
         1         2         3         4     9        0.000000       -0.562027         1
         1         2         3         4     9      180.000000       42.175877         2
         1         2         3         4     9        0.000000       -2.375005         3
         1         2         3         4     9      180.000000       -1.654840         4
         1         2         6         7     9        0.000000       -0.826037         1
         1         2         6         7     9      180.000000        0.472412         2
         1         2         6         7     9        0.000000        0.244327         3
         1         2         6         7     9      180.000000        0.038669         4
         1         2         6         9     9        0.000000       -0.211592         1
         1         2         6         9     9      180.000000        0.199418         2
         1         2         6         9     9        0.000000        0.274108         3
         1         2         6         9     9      180.000000        0.100253         4
         1         2         6        14     9        0.000000        0.665701         1
         1         2         6        14     9      180.000000       -0.269935         2
         1         2         6        14     9        0.000000        0.253501         3
         1         2         6        14     9      180.000000        0.087002         4
         1         5         4         3     9        0.000000       -0.542118         1
         1         5         4         3     9      180.000000        2.883162         2
         1         5         4         3     9        0.000000        0.349097         3
         1         5         4         3     9      180.000000       -3.226849         4
         1         5         4        10     9        0.000000        0.173345         1
         1         5         4        10     9      180.000000       -0.143724         2
         1         5         4        10     9        0.000000        0.710981         3
         1         5         4        10     9      180.000000        0.053456         4
         1         5         4        11     9        0.000000        0.173345         1
         1         5         4        11     9      180.000000       -0.143724         2
         1         5         4        11     9        0.000000        0.710981         3
         1         5         4        11     9      180.000000        0.053456         4
         2         1         5         4     9        0.000000       -0.042095         1
         2         1         5         4     9      180.000000       11.997583         2
         2         1         5         4     9        0.000000       -0.692838         3
         2         1         5         4     9      180.000000       -4.237126         4
         2         1         5        12     9        0.000000        0.072971         1
         2         1         5        12     9      180.000000        0.056078         2
         2         1         5        12     9        0.000000       -0.306133         3
         2         1         5        12     9      180.000000        0.401981         4
         2         1         5        13     9        0.000000        0.072970         1
         2         1         5        13     9      180.000000        0.056078         2
         2         1         5        13     9        0.000000       -0.306132         3
         2         1         5        13     9      180.000000        0.401980         4
         2         3         4         5     9        0.000000       -0.173767         1
         2         3         4         5     9      180.000000       12.798475         2
         2         3         4         5     9        0.000000       -1.413201         3
         2         3         4         5     9      180.000000       -2.514216         4
         2         3         4        10     9        0.000000        0.513203         1
         2         3         4        10     9      180.000000       -0.214193         2
         2         3         4        10     9        0.000000       -0.608077         3
         2         3         4        10     9      180.000000        0.351596         4
         2         3         4        11     9        0.000000        0.513203         1
         2         3         4        11     9      180.000000       -0.214193         2
         2         3         4        11     9        0.000000       -0.608077         3
         2         3         4        11     9      180.000000        0.351596         4
         2         6         7         8     9        0.000000       -0.354758         1
         2         6         7         8     9      180.000000       -0.172846         2
         2         6         7         8     9        0.000000        0.439866         3
         2         6         7         8     9      180.000000        0.029972         4
         2         6         7        15     9        0.000000        0.065909         1
         2         6         7        15     9      180.000000        0.083227         2
         2         6         7        15     9        0.000000        0.445364         3
         2         6         7        15     9      180.000000        0.015163         4
         2         6         7        16     9        0.000000        0.065909         1
         2         6         7        16     9      180.000000        0.083227         2
         2         6         7        16     9        0.000000        0.445364         3
         2         6         7        16     9      180.000000        0.015163         4
         2         6         9        20     9        0.000000        0.060874         1
         2         6         9        20     9      180.000000        0.039523         2
         2         6         9        20     9        0.000000        0.374776         3
         2         6         9        20     9      180.000000       -0.002838         4
         2         6         9        21     9        0.000000        0.060874         1
         2         6         9        21     9      180.000000        0.039523         2
         2         6         9        21     9        0.000000        0.374776         3
         2         6         9        21     9      180.000000       -0.002838         4
         2         6         9        22     9        0.000000        0.060874         1
         2         6         9        22     9      180.000000        0.039523         2
         2         6         9        22     9        0.000000        0.374776         3
         2         6         9        22     9      180.000000       -0.002838         4
         3         2         1         5     9        0.000000       -0.762156         1
         3         2         1         5     9      180.000000       26.091811         2
         3         2         1         5     9        0.000000       -3.650385         3
         3         2         1         5     9      180.000000       -1.857231         4
         3         2         6         7     9        0.000000       -1.415119         1
         3         2         6         7     9      180.000000        1.347998         2
         3         2         6         7     9        0.000000       -0.285685         3
         3         2         6         7     9      180.000000        0.064136         4
         3         2         6         9     9        0.000000       -0.814881         1
         3         2         6         9     9      180.000000        1.020862         2
         3         2         6         9     9        0.000000       -0.263462         3
         3         2         6         9     9      180.000000        0.069082         4
         3         2         6        14     9        0.000000        0.676386         1
         3         2         6        14     9      180.000000        0.298707         2
         3         2         6        14     9        0.000000       -0.242389         3
         3         2         6        14     9      180.000000        0.046728         4
         3         4         5        12     9        0.000000        0.056622         1
         3         4         5        12     9      180.000000        0.082823         2
         3         4         5        12     9        0.000000        0.434364         3
         3         4         5        12     9      180.000000        0.058674         4
         3         4         5        13     9        0.000000        0.056621         1
         3         4         5        13     9      180.000000        0.082824         2
         3         4         5        13     9        0.000000        0.434364         3
         3         4         5        13     9      180.000000        0.058674         4
         4         3         2         6     9        0.000000        1.204710         1
         4         3         2         6     9      180.000000       37.225867         2
         4         3         2         6     9        0.000000        2.521860         3
         4         3         2         6     9      180.000000       -1.761163         4
         5         1         2         6     9        0.000000        0.948094         1
         5         1         2         6     9      180.000000       14.127549         2
         5         1         2         6     9        0.000000        0.713685         3
         5         1         2         6     9      180.000000       -0.580011         4
         6         7         8        17     9        0.000000       -0.079659         1
         6         7         8        17     9      180.000000        0.067068         2
         6         7         8        17     9        0.000000        0.469361         3
         6         7         8        17     9      180.000000        0.021298         4
         6         7         8        18     9        0.000000       -0.079660         1
         6         7         8        18     9      180.000000        0.067067         2
         6         7         8        18     9        0.000000        0.469361         3
         6         7         8        18     9      180.000000        0.021298         4
         6         7         8        19     9        0.000000       -0.079660         1
         6         7         8        19     9      180.000000        0.067067         2
         6         7         8        19     9        0.000000        0.469361         3
         6         7         8        19     9      180.000000        0.021298         4
         7         6         9        20     9        0.000000       -0.048186         1
         7         6         9        20     9      180.000000        0.044487         2
         7         6         9        20     9        0.000000        0.490900         3
         7         6         9        20     9      180.000000        0.033520         4
         7         6         9        21     9        0.000000       -0.048186         1
         7         6         9        21     9      180.000000        0.044487         2
         7         6         9        21     9        0.000000        0.490900         3
         7         6         9        21     9      180.000000        0.033520         4
         7         6         9        22     9        0.000000       -0.048186         1
         7         6         9        22     9      180.000000        0.044487         2
         7         6         9        22     9        0.000000        0.490900         3
         7         6         9        22     9      180.000000        0.033520         4
         8         7         6         9     9        0.000000        0.690908         1
         8         7         6         9     9      180.000000        0.031913         2
         8         7         6         9     9        0.000000        0.766667         3
         8         7         6         9     9      180.000000       -0.015303         4
         8         7         6        14     9        0.000000       -0.551152         1
         8         7         6        14     9      180.000000        0.160487         2
         8         7         6        14     9        0.000000        0.650094         3
         8         7         6        14     9      180.000000        0.077927         4
         9         6         7        15     9        0.000000       -0.165154         1
         9         6         7        15     9      180.000000        0.051664         2
         9         6         7        15     9        0.000000        0.610494         3
         9         6         7        15     9      180.000000        0.050275         4
         9         6         7        16     9        0.000000       -0.165154         1
         9         6         7        16     9      180.000000        0.051664         2
         9         6         7        16     9        0.000000        0.610494         3
         9         6         7        16     9      180.000000        0.050275         4
        10         4         5        12     9        0.000000       -0.046876         1
        10         4         5        12     9      180.000000        0.096899         2
        10         4         5        12     9        0.000000        0.504441         3
        10         4         5        12     9      180.000000        0.004203         4
        10         4         5        13     9        0.000000       -0.046875         1
        10         4         5        13     9      180.000000        0.096900         2
        10         4         5        13     9        0.000000        0.504441         3
        10         4         5        13     9      180.000000        0.004203         4
        11         4         5        12     9        0.000000       -0.046876         1
        11         4         5        12     9      180.000000        0.096899         2
        11         4         5        12     9        0.000000        0.504441         3
        11         4         5        12     9      180.000000        0.004203         4
        11         4         5        13     9        0.000000       -0.046874         1
        11         4         5        13     9      180.000000        0.096900         2
        11         4         5        13     9        0.000000        0.504441         3
        11         4         5        13     9      180.000000        0.004203         4
        14         6         7        15     9        0.000000        0.280299         1
        14         6         7        15     9      180.000000        0.013309         2
        14         6         7        15     9        0.000000        0.627969         3
        14         6         7        15     9      180.000000       -0.063040         4
        14         6         7        16     9        0.000000        0.280299         1
        14         6         7        16     9      180.000000        0.013309         2
        14         6         7        16     9        0.000000        0.627969         3
        14         6         7        16     9      180.000000       -0.063040         4
        14         6         9        20     9        0.000000        0.038864         1
        14         6         9        20     9      180.000000        0.057287         2
        14         6         9        20     9        0.000000        0.584648         3
        14         6         9        20     9      180.000000       -0.018311         4
        14         6         9        21     9        0.000000        0.038864         1
        14         6         9        21     9      180.000000        0.057287         2
        14         6         9        21     9        0.000000        0.584648         3
        14         6         9        21     9      180.000000       -0.018311         4
        14         6         9        22     9        0.000000        0.038864         1
        14         6         9        22     9      180.000000        0.057287         2
        14         6         9        22     9        0.000000        0.584648         3
        14         6         9        22     9      180.000000       -0.018311         4
        15         7         8        17     9        0.000000       -0.001818         1
        15         7         8        17     9      180.000000        0.031905         2
        15         7         8        17     9        0.000000        0.534344         3
        15         7         8        17     9      180.000000       -0.004117         4
        15         7         8        18     9        0.000000       -0.001818         1
        15         7         8        18     9      180.000000        0.031906         2
        15         7         8        18     9        0.000000        0.534344         3
        15         7         8        18     9      180.000000       -0.004118         4
        15         7         8        19     9        0.000000       -0.001818         1
        15         7         8        19     9      180.000000        0.031906         2
        15         7         8        19     9        0.000000        0.534344         3
        15         7         8        19     9      180.000000       -0.004118         4
        16         7         8        17     9        0.000000       -0.001818         1
        16         7         8        17     9      180.000000        0.031905         2
        16         7         8        17     9        0.000000        0.534344         3
        16         7         8        17     9      180.000000       -0.004117         4
        16         7         8        18     9        0.000000       -0.001818         1
        16         7         8        18     9      180.000000        0.031906         2
        16         7         8        18     9        0.000000        0.534344         3
        16         7         8        18     9      180.000000       -0.004118         4
        16         7         8        19     9        0.000000       -0.001818         1
        16         7         8        19     9      180.000000        0.031906         2
        16         7         8        19     9        0.000000        0.534344         3
        16         7         8        19     9      180.000000       -0.004118         4

[ pairs ]
;       ai        aj funct
         1         7     1
         1         9     1
         1        10     1
         1        11     1
         1        14     1
         2         8     1
         2        10     1
         2        11     1
         2        12     1
         2        13     1
         2        15     1
         2        16     1
         2        20     1
         2        21     1
         2        22     1
         3         7     1
         3         9     1
         3        12     1
         3        13     1
         3        14     1
         4         6     1
         5         6     1
         6        17     1
         6        18     1
         6        19     1
         7        20     1
         7        21     1
         7        22     1
         8         9     1
         8        14     1
         9        15     1
         9        16     1
        10        12     1
        10        13     1
        11        12     1
        11        13     1
        14        15     1
        14        16     1
        14        20     1
        14        21     1
        14        22     1
        15        17     1
        15        18     1
        15        19     1
        16        17     1
        16        18     1
        16        19     1
