Generated by PDBParser
492
    1SOL     OW    1   1.952  -0.291   4.807
    1SOL    HW1    2   2.008  -0.215   4.775
    1SOL    HW2    3   1.886  -0.257   4.874
    2SOL     OW    4   1.188   0.131   5.569
    2SOL    HW1    5   1.199   0.032   5.556
    2SOL    HW2    6   1.144   0.148   5.657
    3SOL     OW    7   1.442   0.904   3.788
    3SOL    HW1    8   1.510   0.956   3.839
    3SOL    HW2    9   1.354   0.907   3.837
    4SOL     OW   10   1.876   1.496   6.001
    4SOL    HW1   11   1.838   1.536   6.085
    4SOL    HW2   12   1.975   1.508   6.001
    5SOL     OW   13   0.530  -0.456   3.973
    5SOL    HW1   14   0.435  -0.442   4.000
    5SOL    HW2   15   0.579  -0.503   4.046
    6SOL     OW   16   1.616   1.609   3.508
    6SOL    HW1   17   1.641   1.660   3.590
    6SOL    HW2   18   1.696   1.598   3.450
    7SOL     OW   19   1.666  -1.068   4.333
    7SOL    HW1   20   1.625  -1.019   4.409
    7SOL    HW2   21   1.609  -1.057   4.251
    8SOL     OW   22   1.419   1.603   6.075
    8SOL    HW1   23   1.320   1.596   6.061
    8SOL    HW2   24   1.454   1.684   6.029
    9SOL     OW   25   1.325   0.264   5.808
    9SOL    HW1   26   1.376   0.344   5.777
    9SOL    HW2   27   1.387   0.199   5.852
   10SOL     OW   28   2.298  -0.997   4.702
   10SOL    HW1   29   2.232  -0.924   4.722
   10SOL    HW2   30   2.387  -0.957   4.683
   11SOL     OW   31   0.451   1.496   6.225
   11SOL    HW1   32   0.500   1.562   6.168
   11SOL    HW2   33   0.353   1.513   6.219
   12SOL     OW   34   0.745   1.939   5.013
   12SOL    HW1   35   0.728   2.034   4.988
   12SOL    HW2   36   0.706   1.879   4.944
   13SOL     OW   37   2.108   0.992   5.780
   13SOL    HW1   38   2.109   1.090   5.762
   13SOL    HW2   39   2.083   0.943   5.697
   14SOL     OW   40   2.385  -1.325   4.046
   14SOL    HW1   41   2.455  -1.292   3.983
   14SOL    HW2   42   2.359  -1.418   4.021
   15SOL     OW   43   1.327  -1.468   4.421
   15SOL    HW1   44   1.385  -1.481   4.341
   15SOL    HW2   45   1.318  -1.555   4.471
   16SOL     OW   46   0.727   1.986   5.274
   16SOL    HW1   47   0.632   2.016   5.283
   16SOL    HW2   48   0.746   1.965   5.178
   17SOL     OW   49   2.163  -1.600   4.734
   17SOL    HW1   50   2.066  -1.581   4.741
   17SOL    HW2   51   2.186  -1.631   4.642
   18SOL     OW   52   0.722   2.100   3.766
   18SOL    HW1   53   0.645   2.058   3.719
   18SOL    HW2   54   0.722   2.073   3.862
   19SOL     OW   55  -0.494  -0.703   5.431
   19SOL    HW1   56  -0.422  -0.642   5.398
   19SOL    HW2   57  -0.480  -0.720   5.529
   20SOL     OW   58   0.746   2.139   4.495
   20SOL    HW1   59   0.790   2.161   4.581
   20SOL    HW2   60   0.653   2.106   4.512
   21SOL     OW   61   1.135   2.053   3.906
   21SOL    HW1   62   1.116   2.010   3.994
   21SOL    HW2   63   1.201   2.127   3.920
   22SOL     OW   64   1.819   2.792   4.189
   22SOL    HW1   65   1.786   2.884   4.213
   22SOL    HW2   66   1.829   2.785   4.090
   23SOL     OW   67   2.384   0.208   5.750
   23SOL    HW1   68   2.449   0.132   5.753
   23SOL    HW2   69   2.291   0.174   5.761
   24SOL     OW   70   2.209   2.386   4.752
   24SOL    HW1   71   2.131   2.328   4.728
   24SOL    HW2   72   2.177   2.475   4.783
   25SOL     OW   73   2.829   0.610   4.122
   25SOL    HW1   74   2.791   0.560   4.044
   25SOL    HW2   75   2.929   0.609   4.117
   26SOL     OW   76   3.306  -0.017   5.191
   26SOL    HW1   77   3.302  -0.114   5.170
   26SOL    HW2   78   3.401   0.013   5.195
   27SOL     OW   79   3.005  -1.229   5.691
   27SOL    HW1   80   3.045  -1.302   5.636
   27SOL    HW2   81   3.017  -1.141   5.644
   28SOL     OW   82   0.913   2.255   4.113
   28SOL    HW1   83   0.867   2.293   4.193
   28SOL    HW2   84   0.981   2.321   4.079
   29SOL     OW   85   1.287   2.321   3.653
   29SOL    HW1   86   1.295   2.296   3.749
   29SOL    HW2   87   1.223   2.260   3.607
   30SOL     OW   88   1.686   1.754   3.741
   30SOL    HW1   89   1.645   1.777   3.830
   30SOL    HW2   90   1.771   1.702   3.756
   31SOL     OW   91   1.232   1.061   2.800
   31SOL    HW1   92   1.276   1.009   2.727
   31SOL    HW2   93   1.277   1.150   2.808
   32SOL     OW   94   1.448   0.468   5.679
   32SOL    HW1   95   1.423   0.556   5.721
   32SOL    HW2   96   1.493   0.485   5.592
   33SOL     OW   97   0.789   2.359   4.332
   33SOL    HW1   98   0.773   2.279   4.390
   33SOL    HW2   99   0.762   2.442   4.380
   34SOL     OW  100   0.172   1.446   6.287
   34SOL    HW1  101   0.178   1.430   6.386
   34SOL    HW2  102   0.115   1.375   6.245
   35SOL     OW  103   0.005   1.574   6.688
   35SOL    HW1  104   0.071   1.512   6.644
   35SOL    HW2  105   0.049   1.619   6.765
   36SOL     OW  106   0.641  -1.739   4.257
   36SOL    HW1  107   0.659  -1.742   4.355
   36SOL    HW2  108   0.708  -1.795   4.209
   37SOL     OW  109  -0.211   0.113   5.026
   37SOL    HW1  110  -0.267   0.170   5.086
   37SOL    HW2  111  -0.164   0.043   5.080
   38SOL     OW  112   2.663   0.487   5.644
   38SOL    HW1  113   2.584   0.442   5.602
   38SOL    HW2  114   2.726   0.419   5.680
   39SOL     OW  115   1.874  -0.379   5.405
   39SOL    HW1  116   1.817  -0.459   5.385
   39SOL    HW2  117   1.951  -0.377   5.342
   40SOL     OW  118   0.972   1.994   3.683
   40SOL    HW1  119   1.010   2.045   3.606
   40SOL    HW2  120   1.027   2.012   3.765
   41SOL     OW  121   2.036   0.951   5.519
   41SOL    HW1  122   2.062   1.032   5.467
   41SOL    HW2  123   1.942   0.927   5.499
   42SOL     OW  124   0.156   1.374   5.213
   42SOL    HW1  125   0.108   1.413   5.291
   42SOL    HW2  126   0.255   1.384   5.226
   43SOL     OW  127   2.123   2.039   3.718
   43SOL    HW1  128   2.189   2.048   3.793
   43SOL    HW2  129   2.116   1.943   3.690
   44SOL     OW  130   2.184   2.205   5.352
   44SOL    HW1  131   2.106   2.268   5.343
   44SOL    HW2  132   2.151   2.111   5.356
   45SOL     OW  133   3.596  -0.534   4.711
   45SOL    HW1  134   3.525  -0.469   4.736
   45SOL    HW2  135   3.651  -0.497   4.635
   46SOL     OW  136   2.391  -0.816   3.491
   46SOL    HW1  137   2.388  -0.717   3.484
   46SOL    HW2  138   2.403  -0.856   3.400
   47SOL     OW  139  -0.611   0.129   5.168
   47SOL    HW1  140  -0.524   0.178   5.176
   47SOL    HW2  141  -0.623   0.098   5.074
   48SOL     OW  142   1.496   0.784   3.553
   48SOL    HW1  143   1.569   0.835   3.507
   48SOL    HW2  144   1.476   0.828   3.641
   49SOL     OW  145   2.233  -0.039   3.891
   49SOL    HW1  146   2.231  -0.068   3.986
   49SOL    HW2  147   2.143  -0.052   3.850
   50SOL     OW  148   1.800   2.169   3.866
   50SOL    HW1  149   1.750   2.241   3.818
   50SOL    HW2  150   1.823   2.096   3.802
   51SOL     OW  151  -0.162   1.087   6.316
   51SOL    HW1  152  -0.156   0.988   6.333
   51SOL    HW2  153  -0.161   1.136   6.403
   52SOL     OW  154   2.228  -0.117   4.148
   52SOL    HW1  155   2.261  -0.059   4.222
   52SOL    HW2  156   2.159  -0.180   4.183
   53SOL     OW  157   2.317  -0.979   4.185
   53SOL    HW1  158   2.339  -0.903   4.124
   53SOL    HW2  159   2.394  -0.997   4.245
   54SOL     OW  160   1.716   0.283   5.740
   54SOL    HW1  161   1.782   0.210   5.755
   54SOL    HW2  162   1.655   0.259   5.665
   55SOL     OW  163   0.878   1.743   3.624
   55SOL    HW1  164   0.912   1.835   3.646
   55SOL    HW2  165   0.928   1.707   3.546
   56SOL     OW  166   1.738  -0.863   5.131
   56SOL    HW1  167   1.771  -0.826   5.044
   56SOL    HW2  168   1.645  -0.829   5.149
   57SOL     OW  169   1.456  -1.461   5.053
   57SOL    HW1  170   1.435  -1.369   5.087
   57SOL    HW2  171   1.488  -1.518   5.129
   58SOL     OW  172  -0.363   0.268   5.191
   58SOL    HW1  173  -0.370   0.354   5.140
   58SOL    HW2  174  -0.337   0.287   5.286
   59SOL     OW  175  -0.209  -0.914   3.895
   59SOL    HW1  176  -0.134  -0.977   3.873
   59SOL    HW2  177  -0.296  -0.957   3.870
   60SOL     OW  178   0.659  -0.327   5.494
   60SOL    HW1  179   0.734  -0.381   5.453
   60SOL    HW2  180   0.652  -0.349   5.591
   61SOL     OW  181   1.599   1.817   2.805
   61SOL    HW1  182   1.645   1.820   2.717
   61SOL    HW2  183   1.665   1.794   2.877
   62SOL     OW  184   2.762   0.711   4.413
   62SOL    HW1  185   2.784   0.679   4.321
   62SOL    HW2  186   2.701   0.646   4.458
   63SOL     OW  187   3.321   0.066   4.711
   63SOL    HW1  188   3.378   0.084   4.631
   63SOL    HW2  189   3.357  -0.012   4.762
   64SOL     OW  190   2.364   1.143   5.841
   64SOL    HW1  191   2.284   1.190   5.804
   64SOL    HW2  192   2.358   1.045   5.822
   65SOL     OW  193   2.322   2.264   5.582
   65SOL    HW1  194   2.272   2.243   5.498
   65SOL    HW2  195   2.368   2.182   5.615
   66SOL     OW  196   1.443   1.223   3.059
   66SOL    HW1  197   1.398   1.234   3.148
   66SOL    HW2  198   1.420   1.133   3.021
   67SOL     OW  199   0.014  -0.077   4.203
   67SOL    HW1  200  -0.008   0.005   4.151
   67SOL    HW2  201   0.110  -0.075   4.230
   68SOL     OW  202   0.556   2.124   4.189
   68SOL    HW1  203   0.521   2.211   4.154
   68SOL    HW2  204   0.585   2.136   4.284
   69SOL     OW  205   0.588  -0.233   3.762
   69SOL    HW1  206   0.570  -0.305   3.830
   69SOL    HW2  207   0.535  -0.152   3.785
   70SOL     OW  208  -0.152   0.755   4.451
   70SOL    HW1  209  -0.056   0.734   4.430
   70SOL    HW2  210  -0.195   0.675   4.493
   71SOL     OW  211   1.080   2.138   3.467
   71SOL    HW1  212   1.133   2.084   3.401
   71SOL    HW2  213   1.016   2.198   3.418
   72SOL     OW  214   2.414  -1.200   4.864
   72SOL    HW1  215   2.373  -1.129   4.807
   72SOL    HW2  216   2.435  -1.163   4.955
   73SOL     OW  217   1.759  -0.140   5.390
   73SOL    HW1  218   1.802  -0.230   5.396
   73SOL    HW2  219   1.826  -0.073   5.356
   74SOL     OW  220   1.379  -0.593   5.276
   74SOL    HW1  221   1.336  -0.677   5.309
   74SOL    HW2  222   1.368  -0.588   5.176
   75SOL     OW  223  -0.382   0.497   5.056
   75SOL    HW1  224  -0.472   0.538   5.071
   75SOL    HW2  225  -0.369   0.480   4.958
   76SOL     OW  226   0.700   2.191   4.946
   76SOL    HW1  227   0.763   2.194   4.868
   76SOL    HW2  228   0.651   2.278   4.953
   77SOL     OW  229  -0.145   0.823   6.361
   77SOL    HW1  230  -0.162   0.763   6.284
   77SOL    HW2  231  -0.086   0.778   6.427
   78SOL     OW  232   1.181   0.753   3.512
   78SOL    HW1  233   1.156   0.656   3.515
   78SOL    HW2  234   1.155   0.791   3.423
   79SOL     OW  235  -0.159   0.060   4.423
   79SOL    HW1  236  -0.139  -0.017   4.483
   79SOL    HW2  237  -0.180   0.027   4.331
   80SOL     OW  238   2.884  -1.399   6.009
   80SOL    HW1  239   2.870  -1.305   6.041
   80SOL    HW2  240   2.920  -1.398   5.916
   81SOL     OW  241  -0.448  -0.749   5.717
   81SOL    HW1  242  -0.523  -0.745   5.783
   81SOL    HW2  243  -0.381  -0.817   5.748
   82SOL     OW  244   0.660  -1.438   3.466
   82SOL    HW1  245   0.658  -1.515   3.530
   82SOL    HW2  246   0.737  -1.447   3.404
   83SOL     OW  247   0.892  -0.396   3.588
   83SOL    HW1  248   0.991  -0.387   3.574
   83SOL    HW2  249   0.846  -0.392   3.499
   84SOL     OW  250   1.910  -1.027   5.268
   84SOL    HW1  251   1.848  -0.967   5.218
   84SOL    HW2  252   1.897  -1.015   5.366
   85SOL     OW  253   1.594  -1.054   3.568
   85SOL    HW1  254   1.541  -0.980   3.526
   85SOL    HW2  255   1.556  -1.142   3.541
   86SOL     OW  256   0.644  -0.316   5.988
   86SOL    HW1  257   0.607  -0.300   5.896
   86SOL    HW2  258   0.744  -0.320   5.983
   87SOL     OW  259   2.006  -0.834   3.659
   87SOL    HW1  260   2.072  -0.772   3.701
   87SOL    HW2  261   1.916  -0.792   3.659
   88SOL     OW  262   3.402  -0.357   4.779
   88SOL    HW1  263   3.341  -0.324   4.707
   88SOL    HW2  264   3.349  -0.403   4.850
   89SOL     OW  265   0.149  -0.182   3.998
   89SOL    HW1  266   0.210  -0.122   3.947
   89SOL    HW2  267   0.056  -0.146   3.996
   90SOL     OW  268   1.371   0.868   6.108
   90SOL    HW1  269   1.322   0.954   6.127
   90SOL    HW2  270   1.390   0.861   6.010
   91SOL     OW  271   2.658  -0.400   4.191
   91SOL    HW1  272   2.590  -0.358   4.131
   91SOL    HW2  273   2.690  -0.485   4.150
   92SOL     OW  274   0.188   1.400   6.567
   92SOL    HW1  275   0.143   1.322   6.609
   92SOL    HW2  276   0.287   1.387   6.570
   93SOL     OW  277   1.770  -1.823   4.175
   93SOL    HW1  278   1.848  -1.760   4.184
   93SOL    HW2  279   1.733  -1.816   4.083
   94SOL     OW  280   0.463   2.068   5.299
   94SOL    HW1  281   0.449   2.001   5.371
   94SOL    HW2  282   0.446   2.160   5.335
   95SOL     OW  283   2.494   1.777   4.906
   95SOL    HW1  284   2.407   1.821   4.928
   95SOL    HW2  285   2.563   1.846   4.888
   96SOL     OW  286  -0.277  -0.279   4.027
   96SOL    HW1  287  -0.304  -0.376   4.025
   96SOL    HW2  288  -0.257  -0.248   3.934
   97SOL     OW  289   2.071   2.559   5.102
   97SOL    HW1  290   1.985   2.516   5.073
   97SOL    HW2  291   2.063   2.588   5.198
   98SOL     OW  292   1.457   1.536   3.221
   98SOL    HW1  293   1.451   1.446   3.178
   98SOL    HW2  294   1.553   1.563   3.229
   99SOL     OW  295   2.920  -0.370   5.736
   99SOL    HW1  296   2.853  -0.404   5.669
   99SOL    HW2  297   2.873  -0.317   5.807
  100SOL     OW  298   1.804   1.802   2.346
  100SOL    HW1  299   1.811   1.754   2.258
  100SOL    HW2  300   1.894   1.807   2.389
  101SOL     OW  301   2.470  -0.283   4.026
  101SOL    HW1  302   2.459  -0.256   3.930
  101SOL    HW2  303   2.399  -0.238   4.081
  102SOL     OW  304  -0.042   1.678   4.600
  102SOL    HW1  305   0.043   1.729   4.586
  102SOL    HW2  306  -0.080   1.651   4.511
  103SOL     OW  307  -0.509   0.595   5.801
  103SOL    HW1  308  -0.424   0.551   5.772
  103SOL    HW2  309  -0.587   0.541   5.770
  104SOL     OW  310   1.441   0.185   6.683
  104SOL    HW1  311   1.367   0.210   6.621
  104SOL    HW2  312   1.406   0.122   6.753
  105SOL     OW  313   2.877   1.967   4.221
  105SOL    HW1  314   2.945   2.037   4.241
  105SOL    HW2  315   2.884   1.940   4.125
  106SOL     OW  316   2.812   0.231   5.731
  106SOL    HW1  317   2.778   0.147   5.688
  106SOL    HW2  318   2.904   0.214   5.767
  107SOL     OW  319   3.276  -0.038   3.716
  107SOL    HW1  320   3.271  -0.021   3.814
  107SOL    HW2  321   3.240  -0.130   3.696
  108SOL     OW  322  -0.080   0.603   4.022
  108SOL    HW1  323  -0.001   0.662   4.004
  108SOL    HW2  324  -0.151   0.655   4.067
  109SOL     OW  325   0.028   1.572   4.932
  109SOL    HW1  326   0.060   1.565   4.838
  109SOL    HW2  327  -0.055   1.628   4.935
  110SOL     OW  328   2.387  -0.142   5.926
  110SOL    HW1  329   2.447  -0.089   5.866
  110SOL    HW2  330   2.442  -0.190   5.994
  111SOL     OW  331   3.077   0.277   5.555
  111SOL    HW1  332   3.070   0.344   5.481
  111SOL    HW2  333   3.140   0.311   5.625
  112SOL     OW  334  -0.179  -0.265   4.294
  112SOL    HW1  335  -0.112  -0.199   4.262
  112SOL    HW2  336  -0.237  -0.294   4.217
  113SOL     OW  337   1.512  -1.511   4.163
  113SOL    HW1  338   1.576  -1.531   4.238
  113SOL    HW2  339   1.486  -1.597   4.118
  114SOL     OW  340   2.436  -0.968   3.833
  114SOL    HW1  341   2.414  -0.900   3.904
  114SOL    HW2  342   2.377  -0.953   3.754
  115SOL     OW  343   0.212  -0.320   6.349
  115SOL    HW1  344   0.129  -0.355   6.306
  115SOL    HW2  345   0.275  -0.395   6.368
  116SOL     OW  346   1.637   2.407   3.708
  116SOL    HW1  347   1.688   2.493   3.715
  116SOL    HW2  348   1.546   2.418   3.748
  117SOL     OW  349   2.382  -0.556   3.473
  117SOL    HW1  350   2.299  -0.501   3.470
  117SOL    HW2  351   2.437  -0.529   3.552
  118SOL     OW  352   1.347   0.982   3.018
  118SOL    HW1  353   1.409   0.915   2.978
  118SOL    HW2  354   1.253   0.952   3.006
  119SOL     OW  355   0.687  -1.171   3.627
  119SOL    HW1  356   0.679  -1.256   3.575
  119SOL    HW2  357   0.596  -1.136   3.649
  120SOL     OW  358  -0.347  -0.531   4.021
  120SOL    HW1  359  -0.300  -0.613   4.054
  120SOL    HW2  360  -0.362  -0.538   3.922
  121SOL     OW  361   0.570  -0.624   5.492
  121SOL    HW1  362   0.542  -0.646   5.586
  121SOL    HW2  363   0.618  -0.702   5.453
  122SOL     OW  364   1.586   1.410   5.394
  122SOL    HW1  365   1.581   1.417   5.494
  122SOL    HW2  366   1.501   1.446   5.355
  123SOL     OW  367   0.346   1.715   7.023
  123SOL    HW1  368   0.378   1.635   6.972
  123SOL    HW2  369   0.404   1.794   7.002
  124SOL     OW  370   1.066   1.968   5.354
  124SOL    HW1  371   0.969   1.973   5.331
  124SOL    HW2  372   1.092   2.050   5.406
  125SOL     OW  373   0.406  -1.294   5.305
  125SOL    HW1  374   0.384  -1.197   5.296
  125SOL    HW2  375   0.505  -1.307   5.298
  126SOL     OW  376   3.347  -0.799   4.099
  126SOL    HW1  377   3.279  -0.812   4.172
  126SOL    HW2  378   3.378  -0.889   4.067
  127SOL     OW  379   1.649   0.669   5.934
  127SOL    HW1  380   1.648   0.570   5.948
  127SOL    HW2  381   1.565   0.697   5.887
  128SOL     OW  382   1.682  -0.066   5.655
  128SOL    HW1  383   1.759  -0.020   5.699
  128SOL    HW2  384   1.707  -0.093   5.562
  129SOL     OW  385   1.044  -0.447   5.577
  129SOL    HW1  386   0.975  -0.456   5.505
  129SOL    HW2  387   1.132  -0.427   5.535
  130SOL     OW  388   3.238   0.271   4.849
  130SOL    HW1  389   3.143   0.264   4.820
  130SOL    HW2  390   3.292   0.198   4.806
  131SOL     OW  391   1.183  -1.301   5.287
  131SOL    HW1  392   1.258  -1.253   5.242
  131SOL    HW2  393   1.168  -1.260   5.377
  132SOL     OW  394   2.663   2.050   5.858
  132SOL    HW1  395   2.745   2.107   5.853
  132SOL    HW2  396   2.647   2.022   5.953
  133SOL     OW  397   2.247   0.436   3.872
  133SOL    HW1  398   2.321   0.467   3.931
  133SOL    HW2  399   2.262   0.468   3.778
  134SOL     OW  400   0.012   1.247   6.171
  134SOL    HW1  401   0.043   1.230   6.078
  134SOL    HW2  402  -0.050   1.174   6.199
  135SOL     OW  403   1.742  -1.239   5.098
  135SOL    HW1  404   1.666  -1.181   5.071
  135SOL    HW2  405   1.806  -1.186   5.154
  136SOL     OW  406  -0.045   0.149   4.060
  136SOL    HW1  407  -0.031   0.238   4.102
  136SOL    HW2  408  -0.067   0.161   3.963
  137SOL     OW  409   2.437  -0.202   3.734
  137SOL    HW1  410   2.370  -0.148   3.785
  137SOL    HW2  411   2.427  -0.182   3.636
  138SOL     OW  412   0.432   2.182   4.778
  138SOL    HW1  413   0.449   2.136   4.691
  138SOL    HW2  414   0.401   2.276   4.761
  139SOL     OW  415   2.404  -1.627   3.988
  139SOL    HW1  416   2.414  -1.640   4.087
  139SOL    HW2  417   2.370  -1.711   3.946
  140SOL     OW  418  -0.644   0.052   4.432
  140SOL    HW1  419  -0.636   0.044   4.531
  140SOL    HW2  420  -0.692  -0.027   4.395
  141SOL     OW  421   1.644   0.363   5.977
  141SOL    HW1  422   1.672   0.333   5.885
  141SOL    HW2  423   1.665   0.292   6.043
  142SOL     OW  424   1.473   0.537   3.708
  142SOL    HW1  425   1.462   0.587   3.794
  142SOL    HW2  426   1.484   0.602   3.633
  143SOL     OW  427   0.623   1.748   3.575
  143SOL    HW1  428   0.576   1.834   3.596
  143SOL    HW2  429   0.720   1.757   3.597
  144SOL     OW  430   1.478   0.104   6.306
  144SOL    HW1  431   1.444   0.188   6.262
  144SOL    HW2  432   1.505   0.124   6.400
  145SOL     OW  433  -0.020   1.482   4.185
  145SOL    HW1  434  -0.055   1.486   4.279
  145SOL    HW2  435  -0.009   1.387   4.158
  146SOL     OW  436   1.544   0.769   2.890
  146SOL    HW1  437   1.556   0.818   2.804
  146SOL    HW2  438   1.602   0.687   2.891
  147SOL     OW  439  -0.656  -0.067   5.667
  147SOL    HW1  440  -0.563  -0.094   5.692
  147SOL    HW2  441  -0.691  -0.129   5.597
  148SOL     OW  442   1.879   1.377   5.324
  148SOL    HW1  443   1.782   1.388   5.347
  148SOL    HW2  444   1.922   1.467   5.319
  149SOL     OW  445   0.348   2.002   5.073
  149SOL    HW1  446   0.392   2.027   5.159
  149SOL    HW2  447   0.327   2.084   5.020
  150SOL     OW  448  -0.496  -0.380   5.211
  150SOL    HW1  449  -0.458  -0.364   5.119
  150SOL    HW2  450  -0.433  -0.437   5.263
  151SOL     OW  451   1.111   2.411   3.991
  151SOL    HW1  452   1.184   2.352   3.958
  151SOL    HW2  453   1.147   2.476   4.058
  152SOL     OW  454   2.356  -1.447   4.865
  152SOL    HW1  455   2.287  -1.502   4.818
  152SOL    HW2  456   2.347  -1.351   4.838
  153SOL     OW  457   0.591   1.685   6.060
  153SOL    HW1  458   0.650   1.696   5.980
  153SOL    HW2  459   0.610   1.757   6.127
  154SOL     OW  460   3.086  -1.181   6.234
  154SOL    HW1  461   3.069  -1.168   6.332
  154SOL    HW2  462   3.152  -1.113   6.203
  155SOL     OW  463   3.174   0.338   4.343
  155SOL    HW1  464   3.217   0.426   4.328
  155SOL    HW2  465   3.230   0.284   4.406
  156SOL     OW  466   1.908  -1.550   4.751
  156SOL    HW1  467   1.875  -1.499   4.671
  156SOL    HW2  468   1.831  -1.571   4.811
  157SOL     OW  469   2.247  -0.326   5.781
  157SOL    HW1  470   2.252  -0.300   5.685
  157SOL    HW2  471   2.298  -0.260   5.837
  158SOL     OW  472   1.499   0.671   3.264
  158SOL    HW1  473   1.498   0.707   3.357
  158SOL    HW2  474   1.559   0.727   3.206
  159SOL     OW  475   1.479   2.518   5.011
  159SOL    HW1  476   1.546   2.445   4.998
  159SOL    HW2  477   1.429   2.533   4.926
  160SOL     OW  478   3.540  -0.955   4.567
  160SOL    HW1  479   3.470  -1.019   4.599
  160SOL    HW2  480   3.528  -0.940   4.469
  161SOL     OW  481   0.589   1.013   3.738
  161SOL    HW1  482   0.518   1.054   3.795
  161SOL    HW2  483   0.634   1.086   3.685
  162SOL     OW  484   1.164  -1.175   5.519
  162SOL    HW1  485   1.229  -1.214   5.584
  162SOL    HW2  486   1.071  -1.186   5.555
  163SOL     OW  487   0.409   1.115   3.884
  163SOL    HW1  488   0.314   1.091   3.900
  163SOL    HW2  489   0.437   1.186   3.948
  164SOL     OW  490   2.067  -1.204   5.163
  164SOL    HW1  491   2.006  -1.135   5.203
  164SOL    HW2  492   2.116  -1.252   5.235
    8.0226    8.0226    8.0226
