; ITP file created by ByteFF-joint-25, 2026-02-17 09:27:47.097502

[ atomtypes ]
;name           bonded.type        at.num        mass        charge   ptype           sigma         epsilon
 s0bf                                  16      0.0000       0.00000       A     3.53165e-01     1.18204e+00    ;  uncertainty sigma = 0.000053, epsilon = 0.003055
 c1bf                                   6      0.0000       0.00000       A     3.31495e-01     4.13373e-01    ;  uncertainty sigma = 0.000032, epsilon = 0.002340
 c2bf                                   6      0.0000       0.00000       A     3.31500e-01     4.12069e-01    ;  uncertainty sigma = 0.000033, epsilon = 0.001338
 c3bf                                   6      0.0000       0.00000       A     3.31511e-01     4.13455e-01    ;  uncertainty sigma = 0.000012, epsilon = 0.000975
 c4bf                                   6      0.0000       0.00000       A     3.31514e-01     4.13061e-01    ;  uncertainty sigma = 0.000022, epsilon = 0.000877
 c5bf                                   6      0.0000       0.00000       A     3.31529e-01     4.13194e-01    ;  uncertainty sigma = 0.000055, epsilon = 0.002345
 o6bf                                   8      0.0000       0.00000       A     3.04804e-01     6.11836e-01    ;  uncertainty sigma = 0.000044, epsilon = 0.001672
 o7bf                                   8      0.0000       0.00000       A     3.04804e-01     6.11836e-01    ;  uncertainty sigma = 0.000044, epsilon = 0.001672
 c8bf                                   6      0.0000       0.00000       A     3.31501e-01     4.12993e-01    ;  uncertainty sigma = 0.000011, epsilon = 0.000434
 c9bf                                   6      0.0000       0.00000       A     3.31531e-01     4.13573e-01    ;  uncertainty sigma = 0.000006, epsilon = 0.000908
 c10bf                                  6      0.0000       0.00000       A     3.31539e-01     4.13493e-01    ;  uncertainty sigma = 0.000010, epsilon = 0.000799
 c11bf                                  6      0.0000       0.00000       A     3.31522e-01     4.13313e-01    ;  uncertainty sigma = 0.000003, epsilon = 0.000698
 c12bf                                  6      0.0000       0.00000       A     3.31524e-01     4.13504e-01    ;  uncertainty sigma = 0.000003, epsilon = 0.000683
 c13bf                                  6      0.0000       0.00000       A     3.31520e-01     4.13276e-01    ;  uncertainty sigma = 0.000003, epsilon = 0.000632
 br14bf                                35      0.0000       0.00000       A     3.61258e-01     1.64394e+00    ;  uncertainty sigma = 0.000027, epsilon = 0.006365
 o15bf                                  8      0.0000       0.00000       A     3.15802e-01     3.03913e-01    ;  uncertainty sigma = 0.000078, epsilon = 0.010291
 c16bf                                  6      0.0000       0.00000       A     3.39717e-01     4.50736e-01    ;  uncertainty sigma = 0.000028, epsilon = 0.002811
 c17bf                                  6      0.0000       0.00000       A     3.31523e-01     4.12941e-01    ;  uncertainty sigma = 0.000026, epsilon = 0.002863
 o18bf                                  8      0.0000       0.00000       A     3.04805e-01     6.12312e-01    ;  uncertainty sigma = 0.000022, epsilon = 0.002455
 o19bf                                  8      0.0000       0.00000       A     3.04805e-01     6.12312e-01    ;  uncertainty sigma = 0.000022, epsilon = 0.002455
 n20bf                                  7      0.0000       0.00000       A     3.27923e-01     6.46786e-01    ;  uncertainty sigma = 0.000014, epsilon = 0.001850
 c21bf                                  6      0.0000       0.00000       A     3.39772e-01     4.51002e-01    ;  uncertainty sigma = 0.000010, epsilon = 0.001117
 h22bf                                  1      0.0000       0.00000       A     2.62548e-01     6.70331e-02    ;  uncertainty sigma = 0.000013, epsilon = 0.000580
 h23bf                                  1      0.0000       0.00000       A     2.62558e-01     6.70546e-02    ;  uncertainty sigma = 0.000013, epsilon = 0.000516
 h24bf                                  1      0.0000       0.00000       A     2.62563e-01     6.69897e-02    ;  uncertainty sigma = 0.000012, epsilon = 0.000446
 h25bf                                  1      0.0000       0.00000       A     2.62561e-01     6.70429e-02    ;  uncertainty sigma = 0.000012, epsilon = 0.000452
 h26bf                                  1      0.0000       0.00000       A     2.42291e-01     8.67021e-02    ;  uncertainty sigma = 0.000194, epsilon = 0.000950
 h27bf                                  1      0.0000       0.00000       A     2.42291e-01     8.67021e-02    ;  uncertainty sigma = 0.000194, epsilon = 0.000950
 h28bf                                  1      0.0000       0.00000       A     1.10657e-01     4.14768e-02    ;  uncertainty sigma = 0.000093, epsilon = 0.001269
 h29bf                                  1      0.0000       0.00000       A     2.42209e-01     8.65230e-02    ;  uncertainty sigma = 0.000022, epsilon = 0.000901
 h30bf                                  1      0.0000       0.00000       A     2.42209e-01     8.65230e-02    ;  uncertainty sigma = 0.000022, epsilon = 0.000901
 c31bf                                  6      0.0000       0.00000       A     3.31519e-01     4.13331e-01    ;  uncertainty sigma = 0.000003, epsilon = 0.000569
 c32bf                                  6      0.0000       0.00000       A     3.31517e-01     4.13353e-01    ;  uncertainty sigma = 0.000002, epsilon = 0.000531
 c33bf                                  6      0.0000       0.00000       A     3.31518e-01     4.13490e-01    ;  uncertainty sigma = 0.000003, epsilon = 0.000610
 c34bf                                  6      0.0000       0.00000       A     3.31504e-01     4.13250e-01    ;  uncertainty sigma = 0.000006, epsilon = 0.000408
 c35bf                                  6      0.0000       0.00000       A     3.31518e-01     4.13490e-01    ;  uncertainty sigma = 0.000003, epsilon = 0.000611
 c36bf                                  6      0.0000       0.00000       A     3.31517e-01     4.13353e-01    ;  uncertainty sigma = 0.000002, epsilon = 0.000531
 h37bf                                  1      0.0000       0.00000       A     2.62552e-01     6.70647e-02    ;  uncertainty sigma = 0.000011, epsilon = 0.000453
 h38bf                                  1      0.0000       0.00000       A     2.62558e-01     6.70323e-02    ;  uncertainty sigma = 0.000010, epsilon = 0.000442
 h39bf                                  1      0.0000       0.00000       A     2.62564e-01     6.71199e-02    ;  uncertainty sigma = 0.000005, epsilon = 0.000556
 h40bf                                  1      0.0000       0.00000       A     2.62564e-01     6.71201e-02    ;  uncertainty sigma = 0.000005, epsilon = 0.000557
 h41bf                                  1      0.0000       0.00000       A     2.62558e-01     6.70322e-02    ;  uncertainty sigma = 0.000010, epsilon = 0.000442

[ moleculetype ]
;name             nrexcl
 MOL                   3

[ atoms ]
;       nr            type      resi   res      atom      cgnr      charge          mass ; qtot
         1            s0bf         1   UNL        s0         1    -0.06026       32.0670 ; qtot   -0.060
         2            c1bf         1   UNL        c1         2    -0.15250       12.0110 ; qtot   -0.213
         3            c2bf         1   UNL        c2         3     0.12085       12.0110 ; qtot   -0.092
         4            c3bf         1   UNL        c3         4    -0.04845       12.0110 ; qtot   -0.140
         5            c4bf         1   UNL        c4         5    -0.04819       12.0110 ; qtot   -0.189
         6            c5bf         1   UNL        c5         6     0.93104       12.0110 ; qtot    0.742
         7            o6bf         1   UNL        o6         7    -0.81786       15.9990 ; qtot   -0.075
         8            o7bf         1   UNL        o7         8    -0.81786       15.9990 ; qtot   -0.893
         9            c8bf         1   UNL        c8         9     0.02341       12.0110 ; qtot   -0.870
        10            c9bf         1   UNL        c9        10    -0.17739       12.0110 ; qtot   -1.047
        11           c10bf         1   UNL       c10        11     0.15759       12.0110 ; qtot   -0.890
        12           c11bf         1   UNL       c11        12    -0.18653       12.0110 ; qtot   -1.076
        13           c12bf         1   UNL       c12        13    -0.08893       12.0110 ; qtot   -1.165
        14           c13bf         1   UNL       c13        14    -0.13744       12.0110 ; qtot   -1.303
        15          br14bf         1   UNL      br14        15    -0.09860       79.9040 ; qtot   -1.401
        16           o15bf         1   UNL       o15        16    -0.32674       15.9990 ; qtot   -1.728
        17           c16bf         1   UNL       c16        17    -0.04389       12.0110 ; qtot   -1.772
        18           c17bf         1   UNL       c17        18     0.91650       12.0110 ; qtot   -0.855
        19           o18bf         1   UNL       o18        19    -0.83281       15.9990 ; qtot   -1.688
        20           o19bf         1   UNL       o19        20    -0.83281       15.9990 ; qtot   -2.521
        21           n20bf         1   UNL       n20        21    -0.75077       14.0070 ; qtot   -3.272
        22           c21bf         1   UNL       c21        22     0.24505       12.0110 ; qtot   -3.027
        23           h22bf         1   UNL       h22        23     0.13895        1.0080 ; qtot   -2.888
        24           h23bf         1   UNL       h23        24     0.13093        1.0080 ; qtot   -2.757
        25           h24bf         1   UNL       h24        25     0.13564        1.0080 ; qtot   -2.621
        26           h25bf         1   UNL       h25        26     0.14276        1.0080 ; qtot   -2.478
        27           h26bf         1   UNL       h26        27     0.02291        1.0080 ; qtot   -2.455
        28           h27bf         1   UNL       h27        28     0.02291        1.0080 ; qtot   -2.432
        29           h28bf         1   UNL       h28        29     0.40593        1.0080 ; qtot   -2.027
        30           h29bf         1   UNL       h29        30     0.04933        1.0080 ; qtot   -1.977
        31           h30bf         1   UNL       h30        31     0.04933        1.0080 ; qtot   -1.928
        32           c31bf         1   UNL       c31        32    -0.12448       12.0110 ; qtot   -2.052
        33           c32bf         1   UNL       c32        33    -0.13249       12.0110 ; qtot   -2.185
        34           c33bf         1   UNL       c33        34    -0.11598       12.0110 ; qtot   -2.301
        35           c34bf         1   UNL       c34        35    -0.11708       12.0110 ; qtot   -2.418
        36           c35bf         1   UNL       c35        36    -0.11598       12.0110 ; qtot   -2.534
        37           c36bf         1   UNL       c36        37    -0.13249       12.0110 ; qtot   -2.666
        38           h37bf         1   UNL       h37        38     0.13198        1.0080 ; qtot   -2.534
        39           h38bf         1   UNL       h38        39     0.13133        1.0080 ; qtot   -2.403
        40           h39bf         1   UNL       h39        40     0.13587        1.0080 ; qtot   -2.267
        41           h40bf         1   UNL       h40        41     0.13587        1.0080 ; qtot   -2.131
        42           h41bf         1   UNL       h41        42     0.13135        1.0080 ; qtot   -2.000

[ bonds ]
;       ai        aj funct               r               k
         1         2     1        0.174192   168649.560181    ;  uncertainty r = 0.000346, k = 32.148596
         1         5     1        0.174357   166232.447241    ;  uncertainty r = 0.000237, k = 14.888510
         2         3     1        0.138080   385642.911377    ;  uncertainty r = 0.000134, k = 36.968685
         2         6     1        0.154055   191773.233960    ;  uncertainty r = 0.000283, k = 45.899503
         3         4     1        0.143810   249799.356152    ;  uncertainty r = 0.000373, k = 34.755195
         3        16     1        0.136007   307552.652637    ;  uncertainty r = 0.000403, k = 36.149075
         4         5     1        0.137757   380537.379248    ;  uncertainty r = 0.000227, k = 7.612841
         4        15     1        0.190420   156686.726831    ;  uncertainty r = 0.000144, k = 29.636935
         5         9     1        0.146512   276484.001074    ;  uncertainty r = 0.000140, k = 8.275699
         6         7     1        0.126149   550576.911523    ;  uncertainty r = 0.000229, k = 9.262788
         6         8     1        0.126149   550576.911523    ;  uncertainty r = 0.000229, k = 9.262788
         9        10     1        0.139925   346644.400000    ;  uncertainty r = 0.000089, k = 3.300508
         9        14     1        0.140217   349501.236426    ;  uncertainty r = 0.000027, k = 3.618539
        10        11     1        0.140630   361889.645703    ;  uncertainty r = 0.000051, k = 2.700151
        10        23     1        0.108905   336611.942285    ;  uncertainty r = 0.000018, k = 2.879832
        11        12     1        0.140824   363665.113232    ;  uncertainty r = 0.000051, k = 7.537741
        11        21     1        0.139812   339612.373877    ;  uncertainty r = 0.000071, k = 7.197102
        12        13     1        0.139410   371602.174512    ;  uncertainty r = 0.000030, k = 1.927907
        12        24     1        0.108872   336955.212109    ;  uncertainty r = 0.000023, k = 1.342767
        13        14     1        0.139378   367329.535205    ;  uncertainty r = 0.000030, k = 1.881430
        13        25     1        0.108779   332372.475684    ;  uncertainty r = 0.000014, k = 1.522708
        14        26     1        0.108759   334843.242090    ;  uncertainty r = 0.000027, k = 0.771472
        16        17     1        0.144489   220596.573486    ;  uncertainty r = 0.000632, k = 19.356591
        17        18     1        0.155273   162501.513867    ;  uncertainty r = 0.000271, k = 66.063610
        17        27     1        0.109682   316919.485596    ;  uncertainty r = 0.000081, k = 8.518153
        17        28     1        0.109682   316919.485596    ;  uncertainty r = 0.000081, k = 8.518153
        18        19     1        0.126286   541570.585938    ;  uncertainty r = 0.000058, k = 12.189171
        18        20     1        0.126286   541570.585938    ;  uncertainty r = 0.000058, k = 12.189171
        21        22     1        0.146076   255084.720605    ;  uncertainty r = 0.000034, k = 9.809302
        21        29     1        0.101312   413729.901123    ;  uncertainty r = 0.000040, k = 3.153063
        22        30     1        0.109743   302784.772168    ;  uncertainty r = 0.000026, k = 2.077945
        22        31     1        0.109743   302784.772168    ;  uncertainty r = 0.000026, k = 2.077945
        22        35     1        0.151656   241554.879150    ;  uncertainty r = 0.000027, k = 4.270708
        32        33     1        0.139638   370581.175342    ;  uncertainty r = 0.000018, k = 1.146001
        32        37     1        0.139638   370581.124268    ;  uncertainty r = 0.000018, k = 1.145993
        32        38     1        0.108851   334582.457129    ;  uncertainty r = 0.000012, k = 0.680653
        33        34     1        0.139638   366519.140576    ;  uncertainty r = 0.000019, k = 1.513702
        33        39     1        0.108856   334264.264746    ;  uncertainty r = 0.000012, k = 0.982830
        34        35     1        0.139889   353651.042236    ;  uncertainty r = 0.000033, k = 1.846158
        34        40     1        0.108880   333747.521338    ;  uncertainty r = 0.000011, k = 0.660085
        35        36     1        0.139889   353651.042236    ;  uncertainty r = 0.000033, k = 1.846169
        36        37     1        0.139638   366519.166113    ;  uncertainty r = 0.000019, k = 1.513694
        36        41     1        0.108880   333747.495801    ;  uncertainty r = 0.000011, k = 0.660072
        37        42     1        0.108856   334264.264746    ;  uncertainty r = 0.000012, k = 0.982832

[ angles ]
;       ai        aj        ak funct           theta             cth
         1         2         3     1      112.357254      490.287825    ;  uncertainty theta = 0.005257, k = 0.446159
         1         2         6     1      115.451401      321.272126    ;  uncertainty theta = 0.011344, k = 0.278095
         1         5         4     1      111.659386      449.584992    ;  uncertainty theta = 0.002310, k = 0.394971
         1         5         9     1      118.743629      342.105300    ;  uncertainty theta = 0.007439, k = 0.158122
         2         1         5     1       93.409683     1113.970975    ;  uncertainty theta = 0.008532, k = 0.189168
         2         3         4     1      115.069199      491.410436    ;  uncertainty theta = 0.004813, k = 0.280924
         2         3        16     1      123.043716      386.336563    ;  uncertainty theta = 0.006879, k = 0.395881
         2         6         7     1      114.979454      369.254791    ;  uncertainty theta = 0.012630, k = 0.171059
         2         6         8     1      114.979454      369.254791    ;  uncertainty theta = 0.012630, k = 0.171059
         3         2         6     1      128.246002      305.353665    ;  uncertainty theta = 0.014744, k = 0.309527
         3         4         5     1      117.601578      512.725910    ;  uncertainty theta = 0.003379, k = 0.473085
         3         4        15     1      119.051048      364.447781    ;  uncertainty theta = 0.003204, k = 0.273279
         3        16        17     1      112.137527      461.556502    ;  uncertainty theta = 0.007449, k = 0.230739
         4         3        16     1      118.536453      394.142587    ;  uncertainty theta = 0.008837, k = 0.130964
         4         5         9     1      126.542969      327.867372    ;  uncertainty theta = 0.004382, k = 0.182532
         5         4        15     1      120.673264      351.209758    ;  uncertainty theta = 0.006817, k = 0.079938
         5         9        10     1      120.404175      415.380301    ;  uncertainty theta = 0.002871, k = 0.082132
         5         9        14     1      121.195702      420.117307    ;  uncertainty theta = 0.001861, k = 0.070317
         7         6         8     1      131.649750      807.008217    ;  uncertainty theta = 0.009047, k = 0.187853
         9        10        11     1      120.251625      536.583316    ;  uncertainty theta = 0.003578, k = 0.119717
         9        10        23     1      119.436356      282.013449    ;  uncertainty theta = 0.001804, k = 0.057027
         9        14        13     1      119.256271      529.901468    ;  uncertainty theta = 0.001553, k = 0.054365
         9        14        26     1      119.517715      279.527124    ;  uncertainty theta = 0.002370, k = 0.060326
        10         9        14     1      121.516724      398.105851    ;  uncertainty theta = 0.005160, k = 0.119261
        10        11        12     1      118.837402      369.916489    ;  uncertainty theta = 0.007824, k = 0.147266
        10        11        21     1      122.666702      576.185052    ;  uncertainty theta = 0.005150, k = 0.211779
        11        10        23     1      119.435020      277.190319    ;  uncertainty theta = 0.001069, k = 0.051716
        11        12        13     1      118.278709      528.426285    ;  uncertainty theta = 0.004344, k = 0.115730
        11        12        24     1      119.451927      268.678928    ;  uncertainty theta = 0.002823, k = 0.119770
        11        21        22     1      115.092728      430.790957    ;  uncertainty theta = 0.002863, k = 0.076483
        11        21        29     1      111.016525      358.587717    ;  uncertainty theta = 0.004291, k = 0.109518
        12        11        21     1      123.158813      605.784797    ;  uncertainty theta = 0.005304, k = 0.059388
        12        13        14     1      121.404358      506.210819    ;  uncertainty theta = 0.002736, k = 0.079588
        12        13        25     1      120.174942      280.144580    ;  uncertainty theta = 0.001122, k = 0.068796
        13        12        24     1      121.001266      294.992079    ;  uncertainty theta = 0.002715, k = 0.086006
        13        14        26     1      120.788986      296.778750    ;  uncertainty theta = 0.001122, k = 0.065456
        14        13        25     1      120.083252      281.235685    ;  uncertainty theta = 0.000949, k = 0.026107
        16        17        18     1      108.358414      484.414258    ;  uncertainty theta = 0.009599, k = 0.239378
        16        17        27     1      106.609215      413.715920    ;  uncertainty theta = 0.002333, k = 0.101205
        16        17        28     1      106.609215      413.715920    ;  uncertainty theta = 0.002333, k = 0.101205
        17        18        19     1      116.281067      425.507680    ;  uncertainty theta = 0.009799, k = 0.299635
        17        18        20     1      116.281067      425.507680    ;  uncertainty theta = 0.009799, k = 0.299635
        18        17        27     1      110.053444      352.214644    ;  uncertainty theta = 0.003968, k = 0.110269
        18        17        28     1      110.053444      352.214644    ;  uncertainty theta = 0.003968, k = 0.110269
        19        18        20     1      131.546265      818.159315    ;  uncertainty theta = 0.002374, k = 0.066126
        21        22        30     1      107.704208      463.603557    ;  uncertainty theta = 0.001901, k = 0.082530
        21        22        31     1      107.704208      463.603557    ;  uncertainty theta = 0.001901, k = 0.082530
        21        22        35     1      112.776978      634.381316    ;  uncertainty theta = 0.001596, k = 0.082341
        22        21        29     1      110.570618      357.784032    ;  uncertainty theta = 0.004568, k = 0.086573
        22        35        34     1      120.600258      429.384021    ;  uncertainty theta = 0.002251, k = 0.059526
        22        35        36     1      120.600258      429.384021    ;  uncertainty theta = 0.002251, k = 0.059526
        27        17        28     1      108.449631      321.244163    ;  uncertainty theta = 0.009962, k = 0.176306
        30        22        31     1      104.901405      319.177158    ;  uncertainty theta = 0.000916, k = 0.026530
        30        22        35     1      107.987572      419.268581    ;  uncertainty theta = 0.000930, k = 0.066517
        31        22        35     1      107.987572      419.268581    ;  uncertainty theta = 0.000930, k = 0.066517
        32        33        34     1      119.499794      514.317638    ;  uncertainty theta = 0.000673, k = 0.025322
        32        33        39     1      120.569397      288.003880    ;  uncertainty theta = 0.001570, k = 0.010513
        32        37        36     1      119.499794      514.317638    ;  uncertainty theta = 0.000673, k = 0.025322
        32        37        42     1      120.569397      288.003880    ;  uncertainty theta = 0.001570, k = 0.010513
        33        32        37     1      118.410767      525.827884    ;  uncertainty theta = 0.000768, k = 0.035147
        33        32        38     1      120.628151      289.424255    ;  uncertainty theta = 0.001729, k = 0.008321
        33        34        35     1      120.919144      519.798732    ;  uncertainty theta = 0.001621, k = 0.039817
        33        34        40     1      120.282310      292.200649    ;  uncertainty theta = 0.001854, k = 0.012311
        34        33        39     1      120.238075      284.145223    ;  uncertainty theta = 0.001636, k = 0.008315
        34        35        36     1      120.147072      463.422339    ;  uncertainty theta = 0.002169, k = 0.054487
        35        34        40     1      119.143883      269.336860    ;  uncertainty theta = 0.001654, k = 0.016507
        35        36        37     1      120.919128      519.798732    ;  uncertainty theta = 0.001621, k = 0.039817
        35        36        41     1      119.143883      269.336892    ;  uncertainty theta = 0.001654, k = 0.016507
        36        37        42     1      120.238075      284.145191    ;  uncertainty theta = 0.001636, k = 0.008315
        37        32        38     1      120.628151      289.424223    ;  uncertainty theta = 0.001729, k = 0.008321
        37        36        41     1      120.282310      292.200649    ;  uncertainty theta = 0.001854, k = 0.012311

[ dihedrals ] ; propers for gromacs 4.5 or higher, use funct 9
;       ai        aj        ak        al funct           phase               k        pn
         1         2         3         4     9        0.000000       -0.320833         1    ;  uncertainty k = 0.754080
         1         2         3         4     9      180.000000       17.555282         2    ;  uncertainty k = 0.424189
         1         2         3         4     9        0.000000       -2.376894         3    ;  uncertainty k = 1.115238
         1         2         3         4     9      180.000000        0.923152         4    ;  uncertainty k = 0.610957
         1         2         3        16     9        0.000000        0.376558         1    ;  uncertainty k = 1.230098
         1         2         3        16     9      180.000000       18.623043         2    ;  uncertainty k = 0.210713
         1         2         3        16     9        0.000000        1.608484         3    ;  uncertainty k = 0.452084
         1         2         3        16     9      180.000000        0.624278         4    ;  uncertainty k = 0.345564
         1         2         6         7     9        0.000000        0.648298         1    ;  uncertainty k = 2.496588
         1         2         6         7     9      180.000000        4.832235         2    ;  uncertainty k = 0.504618
         1         2         6         7     9        0.000000        0.188147         3    ;  uncertainty k = 0.527138
         1         2         6         7     9      180.000000        0.229089         4    ;  uncertainty k = 0.149777
         1         2         6         8     9        0.000000        0.648298         1    ;  uncertainty k = 2.496588
         1         2         6         8     9      180.000000        4.832235         2    ;  uncertainty k = 0.504618
         1         2         6         8     9        0.000000        0.188147         3    ;  uncertainty k = 0.527138
         1         2         6         8     9      180.000000        0.229089         4    ;  uncertainty k = 0.149777
         1         5         4         3     9        0.000000       -0.230943         1    ;  uncertainty k = 0.350057
         1         5         4         3     9      180.000000       15.958089         2    ;  uncertainty k = 0.404103
         1         5         4         3     9        0.000000       -2.380903         3    ;  uncertainty k = 0.809268
         1         5         4         3     9      180.000000        0.865666         4    ;  uncertainty k = 0.750586
         1         5         4        15     9        0.000000        0.242023         1    ;  uncertainty k = 0.389261
         1         5         4        15     9      180.000000       12.724293         2    ;  uncertainty k = 0.534639
         1         5         4        15     9        0.000000        2.310394         3    ;  uncertainty k = 0.489088
         1         5         4        15     9      180.000000        0.570757         4    ;  uncertainty k = 0.408314
         1         5         9        10     9        0.000000       -0.623258         1    ;  uncertainty k = 0.616499
         1         5         9        10     9      180.000000        3.251847         2    ;  uncertainty k = 0.119076
         1         5         9        10     9        0.000000        0.281710         3    ;  uncertainty k = 0.250586
         1         5         9        10     9      180.000000        0.127139         4    ;  uncertainty k = 0.131372
         1         5         9        14     9        0.000000       -0.213945         1    ;  uncertainty k = 0.541416
         1         5         9        14     9      180.000000        3.329723         2    ;  uncertainty k = 0.238002
         1         5         9        14     9        0.000000        0.475158         3    ;  uncertainty k = 0.251909
         1         5         9        14     9      180.000000        0.111307         4    ;  uncertainty k = 0.126160
         2         1         5         4     9        0.000000       -0.381502         1    ;  uncertainty k = 1.018320
         2         1         5         4     9      180.000000       14.624384         2    ;  uncertainty k = 0.929119
         2         1         5         4     9        0.000000       -6.005800         3    ;  uncertainty k = 1.036762
         2         1         5         4     9      180.000000        1.151585         4    ;  uncertainty k = 0.363309
         2         1         5         9     9        0.000000        0.634749         1    ;  uncertainty k = 1.300798
         2         1         5         9     9      180.000000       11.655228         2    ;  uncertainty k = 0.619935
         2         1         5         9     9        0.000000        0.976157         3    ;  uncertainty k = 1.170238
         2         1         5         9     9      180.000000       -0.041024         4    ;  uncertainty k = 0.486610
         2         3         4         5     9        0.000000       -0.163892         1    ;  uncertainty k = 0.802841
         2         3         4         5     9      180.000000        9.355372         2    ;  uncertainty k = 0.794784
         2         3         4         5     9        0.000000       -2.165171         3    ;  uncertainty k = 0.822975
         2         3         4         5     9      180.000000        0.987821         4    ;  uncertainty k = 0.358170
         2         3         4        15     9        0.000000        0.463445         1    ;  uncertainty k = 0.544884
         2         3         4        15     9      180.000000        7.807701         2    ;  uncertainty k = 0.817270
         2         3         4        15     9        0.000000        1.640989         3    ;  uncertainty k = 0.318182
         2         3         4        15     9      180.000000        0.389068         4    ;  uncertainty k = 0.234157
         2         3        16        17     9        0.000000        0.562638         1    ;  uncertainty k = 2.473037
         2         3        16        17     9      180.000000        4.453660         2    ;  uncertainty k = 1.236403
         2         3        16        17     9        0.000000       -0.243071         3    ;  uncertainty k = 0.584348
         2         3        16        17     9      180.000000        0.011309         4    ;  uncertainty k = 0.249195
         3         2         1         5     9        0.000000       -1.343735         1    ;  uncertainty k = 1.825069
         3         2         1         5     9      180.000000       12.410483         2    ;  uncertainty k = 0.765515
         3         2         1         5     9        0.000000       -3.924755         3    ;  uncertainty k = 1.286096
         3         2         1         5     9      180.000000        1.226932         4    ;  uncertainty k = 0.620813
         3         2         6         7     9        0.000000       -0.600971         1    ;  uncertainty k = 1.233380
         3         2         6         7     9      180.000000        2.750847         2    ;  uncertainty k = 0.470266
         3         2         6         7     9        0.000000        0.420307         3    ;  uncertainty k = 0.314900
         3         2         6         7     9      180.000000        0.072508         4    ;  uncertainty k = 0.103468
         3         2         6         8     9        0.000000       -0.600971         1    ;  uncertainty k = 1.233380
         3         2         6         8     9      180.000000        2.750847         2    ;  uncertainty k = 0.470266
         3         2         6         8     9        0.000000        0.420307         3    ;  uncertainty k = 0.314900
         3         2         6         8     9      180.000000        0.072508         4    ;  uncertainty k = 0.103468
         3         4         5         9     9        0.000000        0.206054         1    ;  uncertainty k = 0.214193
         3         4         5         9     9      180.000000       11.437436         2    ;  uncertainty k = 0.269987
         3         4         5         9     9        0.000000        1.975109         3    ;  uncertainty k = 0.453656
         3         4         5         9     9      180.000000        0.656640         4    ;  uncertainty k = 0.316124
         3        16        17        18     9        0.000000       -2.546996         1    ;  uncertainty k = 2.263476
         3        16        17        18     9      180.000000       -2.071281         2    ;  uncertainty k = 0.852216
         3        16        17        18     9        0.000000        0.377848         3    ;  uncertainty k = 0.447363
         3        16        17        18     9      180.000000        0.728091         4    ;  uncertainty k = 0.372243
         3        16        17        27     9        0.000000        1.943735         1    ;  uncertainty k = 0.725643
         3        16        17        27     9      180.000000       -1.013528         2    ;  uncertainty k = 0.770891
         3        16        17        27     9        0.000000        0.504468         3    ;  uncertainty k = 0.367188
         3        16        17        27     9      180.000000        0.022954         4    ;  uncertainty k = 0.163828
         3        16        17        28     9        0.000000        1.943735         1    ;  uncertainty k = 0.725643
         3        16        17        28     9      180.000000       -1.013528         2    ;  uncertainty k = 0.770891
         3        16        17        28     9        0.000000        0.504468         3    ;  uncertainty k = 0.367188
         3        16        17        28     9      180.000000        0.022954         4    ;  uncertainty k = 0.163828
         4         3         2         6     9        0.000000        0.750539         1    ;  uncertainty k = 1.420042
         4         3         2         6     9      180.000000        9.225337         2    ;  uncertainty k = 0.449657
         4         3         2         6     9        0.000000        2.146628         3    ;  uncertainty k = 0.096833
         4         3         2         6     9      180.000000        0.908103         4    ;  uncertainty k = 0.276689
         4         3        16        17     9        0.000000        4.003546         1    ;  uncertainty k = 2.209639
         4         3        16        17     9      180.000000        4.149396         2    ;  uncertainty k = 0.785914
         4         3        16        17     9        0.000000        0.594406         3    ;  uncertainty k = 0.772201
         4         3        16        17     9      180.000000       -0.129795         4    ;  uncertainty k = 0.090251
         4         5         9        10     9        0.000000        0.352639         1    ;  uncertainty k = 0.556323
         4         5         9        10     9      180.000000        2.899341         2    ;  uncertainty k = 0.323438
         4         5         9        10     9        0.000000        0.460383         3    ;  uncertainty k = 0.555450
         4         5         9        10     9      180.000000        0.003856         4    ;  uncertainty k = 0.144500
         4         5         9        14     9        0.000000        0.472376         1    ;  uncertainty k = 0.563434
         4         5         9        14     9      180.000000        3.094093         2    ;  uncertainty k = 0.272668
         4         5         9        14     9        0.000000        0.477062         3    ;  uncertainty k = 0.386712
         4         5         9        14     9      180.000000       -0.024678         4    ;  uncertainty k = 0.124685
         5         1         2         6     9        0.000000        0.451497         1    ;  uncertainty k = 2.202869
         5         1         2         6     9      180.000000        8.209202         2    ;  uncertainty k = 0.569487
         5         1         2         6     9        0.000000        1.043882         3    ;  uncertainty k = 0.663821
         5         1         2         6     9      180.000000        0.550351         4    ;  uncertainty k = 0.309694
         5         4         3        16     9        0.000000        0.887263         1    ;  uncertainty k = 1.387606
         5         4         3        16     9      180.000000       11.850633         2    ;  uncertainty k = 0.768527
         5         4         3        16     9        0.000000        1.717065         3    ;  uncertainty k = 0.314044
         5         4         3        16     9      180.000000        0.438991         4    ;  uncertainty k = 0.459203
         5         9        10        11     9        0.000000        0.177532         1    ;  uncertainty k = 0.325961
         5         9        10        11     9      180.000000        8.760350         2    ;  uncertainty k = 0.605870
         5         9        10        11     9        0.000000        1.279450         3    ;  uncertainty k = 0.280188
         5         9        10        11     9      180.000000        1.575548         4    ;  uncertainty k = 0.194414
         5         9        10        23     9        0.000000       -0.163798         1    ;  uncertainty k = 0.387557
         5         9        10        23     9      180.000000        7.082292         2    ;  uncertainty k = 0.437977
         5         9        10        23     9        0.000000        0.677036         3    ;  uncertainty k = 0.257427
         5         9        10        23     9      180.000000        1.227681         4    ;  uncertainty k = 0.209879
         5         9        14        13     9        0.000000        0.000208         1    ;  uncertainty k = 0.352601
         5         9        14        13     9      180.000000        8.999777         2    ;  uncertainty k = 0.483884
         5         9        14        13     9        0.000000        1.126075         3    ;  uncertainty k = 0.284053
         5         9        14        13     9      180.000000        1.726652         4    ;  uncertainty k = 0.166110
         5         9        14        26     9        0.000000       -0.167551         1    ;  uncertainty k = 0.572212
         5         9        14        26     9      180.000000        6.857422         2    ;  uncertainty k = 0.373088
         5         9        14        26     9        0.000000        0.757356         3    ;  uncertainty k = 0.226238
         5         9        14        26     9      180.000000        1.251405         4    ;  uncertainty k = 0.166929
         6         2         3        16     9        0.000000       -0.665249         1    ;  uncertainty k = 0.977507
         6         2         3        16     9      180.000000       11.691680         2    ;  uncertainty k = 0.581130
         6         2         3        16     9        0.000000        1.652052         3    ;  uncertainty k = 0.309495
         6         2         3        16     9      180.000000        0.410579         4    ;  uncertainty k = 0.549466
         9         5         4        15     9        0.000000        0.039778         1    ;  uncertainty k = 0.682298
         9         5         4        15     9      180.000000        8.647903         2    ;  uncertainty k = 0.565832
         9         5         4        15     9        0.000000        1.537070         3    ;  uncertainty k = 0.088388
         9         5         4        15     9      180.000000        0.835150         4    ;  uncertainty k = 0.165388
         9        10        11        12     9        0.000000       -0.065595         1    ;  uncertainty k = 0.339329
         9        10        11        12     9      180.000000        7.876835         2    ;  uncertainty k = 0.520569
         9        10        11        12     9        0.000000        0.327557         3    ;  uncertainty k = 0.289343
         9        10        11        12     9      180.000000        1.389779         4    ;  uncertainty k = 0.266513
         9        10        11        21     9        0.000000        0.168681         1    ;  uncertainty k = 0.596960
         9        10        11        21     9      180.000000        8.807116         2    ;  uncertainty k = 0.263338
         9        10        11        21     9        0.000000        0.991234         3    ;  uncertainty k = 0.263491
         9        10        11        21     9      180.000000        1.623405         4    ;  uncertainty k = 0.167733
         9        14        13        12     9        0.000000       -0.032546         1    ;  uncertainty k = 0.377902
         9        14        13        12     9      180.000000       14.661160         2    ;  uncertainty k = 0.297438
         9        14        13        12     9        0.000000       -1.052732         3    ;  uncertainty k = 0.459762
         9        14        13        12     9      180.000000        0.608234         4    ;  uncertainty k = 0.308404
         9        14        13        25     9        0.000000        0.072136         1    ;  uncertainty k = 0.069467
         9        14        13        25     9      180.000000        7.747808         2    ;  uncertainty k = 0.303594
         9        14        13        25     9        0.000000        1.328019         3    ;  uncertainty k = 0.275578
         9        14        13        25     9      180.000000        1.821017         4    ;  uncertainty k = 0.104489
        10         9        14        13     9        0.000000       -0.191538         1    ;  uncertainty k = 0.138971
        10         9        14        13     9      180.000000       11.585674         2    ;  uncertainty k = 0.257754
        10         9        14        13     9        0.000000       -0.419273         3    ;  uncertainty k = 0.246226
        10         9        14        13     9      180.000000        0.958711         4    ;  uncertainty k = 0.270101
        10         9        14        26     9        0.000000        0.147828         1    ;  uncertainty k = 0.302987
        10         9        14        26     9      180.000000        6.911664         2    ;  uncertainty k = 0.611909
        10         9        14        26     9        0.000000        1.476791         3    ;  uncertainty k = 0.214404
        10         9        14        26     9      180.000000        1.682694         4    ;  uncertainty k = 0.254182
        10        11        12        13     9        0.000000       -0.129895         1    ;  uncertainty k = 0.077566
        10        11        12        13     9      180.000000        8.382000         2    ;  uncertainty k = 0.571430
        10        11        12        13     9        0.000000        0.140657         3    ;  uncertainty k = 0.312734
        10        11        12        13     9      180.000000        1.288101         4    ;  uncertainty k = 0.337376
        10        11        12        24     9        0.000000        0.195344         1    ;  uncertainty k = 0.659266
        10        11        12        24     9      180.000000        5.970463         2    ;  uncertainty k = 0.692299
        10        11        12        24     9        0.000000        1.250477         3    ;  uncertainty k = 0.225542
        10        11        12        24     9      180.000000        1.476053         4    ;  uncertainty k = 0.194786
        10        11        21        22     9        0.000000        2.171972         1    ;  uncertainty k = 0.831860
        10        11        21        22     9      180.000000        6.765277         2    ;  uncertainty k = 0.301651
        10        11        21        22     9        0.000000        0.467212         3    ;  uncertainty k = 0.171817
        10        11        21        22     9      180.000000        0.134132         4    ;  uncertainty k = 0.075254
        10        11        21        29     9        0.000000        4.731185         1    ;  uncertainty k = 1.042781
        10        11        21        29     9      180.000000        5.881105         2    ;  uncertainty k = 0.248936
        10        11        21        29     9        0.000000        0.741379         3    ;  uncertainty k = 0.274494
        10        11        21        29     9      180.000000       -0.254472         4    ;  uncertainty k = 0.067501
        11        10         9        14     9        0.000000       -0.059010         1    ;  uncertainty k = 0.144349
        11        10         9        14     9      180.000000       10.973405         2    ;  uncertainty k = 0.264495
        11        10         9        14     9        0.000000       -0.248689         3    ;  uncertainty k = 0.271757
        11        10         9        14     9      180.000000        0.976926         4    ;  uncertainty k = 0.122700
        11        12        13        14     9        0.000000       -0.228178         1    ;  uncertainty k = 0.272044
        11        12        13        14     9      180.000000       14.114079         2    ;  uncertainty k = 0.219517
        11        12        13        14     9        0.000000       -0.949217         3    ;  uncertainty k = 0.352978
        11        12        13        14     9      180.000000        0.687132         4    ;  uncertainty k = 0.200460
        11        12        13        25     9        0.000000        0.053865         1    ;  uncertainty k = 0.255968
        11        12        13        25     9      180.000000        7.855484         2    ;  uncertainty k = 0.439925
        11        12        13        25     9        0.000000        1.225473         3    ;  uncertainty k = 0.301907
        11        12        13        25     9      180.000000        1.539824         4    ;  uncertainty k = 0.180794
        11        21        22        30     9        0.000000       -0.145808         1    ;  uncertainty k = 0.404508
        11        21        22        30     9      180.000000       -0.850477         2    ;  uncertainty k = 0.280843
        11        21        22        30     9        0.000000        0.872252         3    ;  uncertainty k = 0.125396
        11        21        22        30     9      180.000000        0.290811         4    ;  uncertainty k = 0.075489
        11        21        22        31     9        0.000000       -0.145808         1    ;  uncertainty k = 0.404508
        11        21        22        31     9      180.000000       -0.850477         2    ;  uncertainty k = 0.280843
        11        21        22        31     9        0.000000        0.872252         3    ;  uncertainty k = 0.125396
        11        21        22        31     9      180.000000        0.290811         4    ;  uncertainty k = 0.075489
        11        21        22        35     9        0.000000       -0.188661         1    ;  uncertainty k = 0.494488
        11        21        22        35     9      180.000000       -1.346357         2    ;  uncertainty k = 0.277367
        11        21        22        35     9        0.000000        1.120527         3    ;  uncertainty k = 0.230652
        11        21        22        35     9      180.000000        0.338045         4    ;  uncertainty k = 0.014385
        12        11        10        23     9        0.000000        0.227656         1    ;  uncertainty k = 0.456373
        12        11        10        23     9      180.000000        6.064066         2    ;  uncertainty k = 0.493675
        12        11        10        23     9        0.000000        1.309001         3    ;  uncertainty k = 0.255647
        12        11        10        23     9      180.000000        1.552007         4    ;  uncertainty k = 0.189611
        12        11        21        22     9        0.000000        2.180312         1    ;  uncertainty k = 0.670938
        12        11        21        22     9      180.000000        6.708528         2    ;  uncertainty k = 0.139718
        12        11        21        22     9        0.000000        0.510892         3    ;  uncertainty k = 0.075976
        12        11        21        22     9      180.000000        0.138580         4    ;  uncertainty k = 0.083627
        12        11        21        29     9        0.000000        4.840507         1    ;  uncertainty k = 0.925399
        12        11        21        29     9      180.000000        5.748572         2    ;  uncertainty k = 0.145294
        12        11        21        29     9        0.000000        0.817816         3    ;  uncertainty k = 0.188522
        12        11        21        29     9      180.000000       -0.248398         4    ;  uncertainty k = 0.105514
        12        13        14        26     9        0.000000        0.073428         1    ;  uncertainty k = 0.198130
        12        13        14        26     9      180.000000        7.794004         2    ;  uncertainty k = 0.199035
        12        13        14        26     9        0.000000        1.335952         3    ;  uncertainty k = 0.265004
        12        13        14        26     9      180.000000        1.853589         4    ;  uncertainty k = 0.145739
        13        12        11        21     9        0.000000        0.104065         1    ;  uncertainty k = 0.446423
        13        12        11        21     9      180.000000        8.731459         2    ;  uncertainty k = 0.403595
        13        12        11        21     9        0.000000        1.074893         3    ;  uncertainty k = 0.270264
        13        12        11        21     9      180.000000        1.580305         4    ;  uncertainty k = 0.179785
        14         9        10        23     9        0.000000        0.243895         1    ;  uncertainty k = 0.289594
        14         9        10        23     9      180.000000        7.142599         2    ;  uncertainty k = 0.377398
        14         9        10        23     9        0.000000        1.555014         3    ;  uncertainty k = 0.226665
        14         9        10        23     9      180.000000        1.610322         4    ;  uncertainty k = 0.211788
        14        13        12        24     9        0.000000        0.157533         1    ;  uncertainty k = 0.148938
        14        13        12        24     9      180.000000        8.089780         2    ;  uncertainty k = 0.348092
        14        13        12        24     9        0.000000        1.536233         3    ;  uncertainty k = 0.302374
        14        13        12        24     9      180.000000        1.781344         4    ;  uncertainty k = 0.110495
        15         4         3        16     9        0.000000       -0.300934         1    ;  uncertainty k = 0.650861
        15         4         3        16     9      180.000000        9.165092         2    ;  uncertainty k = 0.275746
        15         4         3        16     9        0.000000        1.456381         3    ;  uncertainty k = 0.310393
        15         4         3        16     9      180.000000        0.631618         4    ;  uncertainty k = 0.388932
        16        17        18        19     9        0.000000        1.079222         1    ;  uncertainty k = 0.841475
        16        17        18        19     9      180.000000        5.864588         2    ;  uncertainty k = 0.515928
        16        17        18        19     9        0.000000        1.140649         3    ;  uncertainty k = 0.463168
        16        17        18        19     9      180.000000        0.279519         4    ;  uncertainty k = 0.238932
        16        17        18        20     9        0.000000        1.079222         1    ;  uncertainty k = 0.841475
        16        17        18        20     9      180.000000        5.864588         2    ;  uncertainty k = 0.515928
        16        17        18        20     9        0.000000        1.140649         3    ;  uncertainty k = 0.463168
        16        17        18        20     9      180.000000        0.279519         4    ;  uncertainty k = 0.238932
        19        18        17        27     9        0.000000       -2.498422         1    ;  uncertainty k = 1.124580
        19        18        17        27     9      180.000000        1.806048         2    ;  uncertainty k = 0.648461
        19        18        17        27     9        0.000000        0.840718         3    ;  uncertainty k = 0.199496
        19        18        17        27     9      180.000000        0.238884         4    ;  uncertainty k = 0.091169
        19        18        17        28     9        0.000000       -2.498422         1    ;  uncertainty k = 1.124580
        19        18        17        28     9      180.000000        1.806048         2    ;  uncertainty k = 0.648461
        19        18        17        28     9        0.000000        0.840718         3    ;  uncertainty k = 0.199496
        19        18        17        28     9      180.000000        0.238884         4    ;  uncertainty k = 0.091169
        20        18        17        27     9        0.000000       -2.498422         1    ;  uncertainty k = 1.124580
        20        18        17        27     9      180.000000        1.806048         2    ;  uncertainty k = 0.648461
        20        18        17        27     9        0.000000        0.840718         3    ;  uncertainty k = 0.199496
        20        18        17        27     9      180.000000        0.238884         4    ;  uncertainty k = 0.091169
        20        18        17        28     9        0.000000       -2.498422         1    ;  uncertainty k = 1.124580
        20        18        17        28     9      180.000000        1.806048         2    ;  uncertainty k = 0.648461
        20        18        17        28     9        0.000000        0.840718         3    ;  uncertainty k = 0.199496
        20        18        17        28     9      180.000000        0.238884         4    ;  uncertainty k = 0.091169
        21        11        10        23     9        0.000000       -0.366739         1    ;  uncertainty k = 0.203520
        21        11        10        23     9      180.000000        7.415555         2    ;  uncertainty k = 0.373815
        21        11        10        23     9        0.000000        0.919610         3    ;  uncertainty k = 0.182329
        21        11        10        23     9      180.000000        1.085550         4    ;  uncertainty k = 0.222358
        21        11        12        24     9        0.000000       -0.246023         1    ;  uncertainty k = 0.269995
        21        11        12        24     9      180.000000        7.436346         2    ;  uncertainty k = 0.368330
        21        11        12        24     9        0.000000        0.978537         3    ;  uncertainty k = 0.247508
        21        11        12        24     9      180.000000        1.025790         4    ;  uncertainty k = 0.240655
        21        22        35        34     9        0.000000       -0.122913         1    ;  uncertainty k = 0.497346
        21        22        35        34     9      180.000000        3.227303         2    ;  uncertainty k = 0.088502
        21        22        35        34     9        0.000000        0.656022         3    ;  uncertainty k = 0.158441
        21        22        35        34     9      180.000000        0.475342         4    ;  uncertainty k = 0.058891
        21        22        35        36     9        0.000000       -0.122913         1    ;  uncertainty k = 0.497345
        21        22        35        36     9      180.000000        3.227303         2    ;  uncertainty k = 0.088502
        21        22        35        36     9        0.000000        0.656022         3    ;  uncertainty k = 0.158441
        21        22        35        36     9      180.000000        0.475342         4    ;  uncertainty k = 0.058892
        22        35        34        33     9        0.000000        0.295537         1    ;  uncertainty k = 0.331315
        22        35        34        33     9      180.000000        9.075477         2    ;  uncertainty k = 0.487824
        22        35        34        33     9        0.000000        1.304606         3    ;  uncertainty k = 0.326364
        22        35        34        33     9      180.000000        1.882932         4    ;  uncertainty k = 0.234675
        22        35        34        40     9        0.000000       -0.134972         1    ;  uncertainty k = 0.444772
        22        35        34        40     9      180.000000        7.499489         2    ;  uncertainty k = 0.177735
        22        35        34        40     9        0.000000        0.534911         3    ;  uncertainty k = 0.312909
        22        35        34        40     9      180.000000        0.945954         4    ;  uncertainty k = 0.144004
        22        35        36        37     9        0.000000        0.295537         1    ;  uncertainty k = 0.331314
        22        35        36        37     9      180.000000        9.075477         2    ;  uncertainty k = 0.487824
        22        35        36        37     9        0.000000        1.304606         3    ;  uncertainty k = 0.326364
        22        35        36        37     9      180.000000        1.882932         4    ;  uncertainty k = 0.234675
        22        35        36        41     9        0.000000       -0.134972         1    ;  uncertainty k = 0.444771
        22        35        36        41     9      180.000000        7.499490         2    ;  uncertainty k = 0.177735
        22        35        36        41     9        0.000000        0.534911         3    ;  uncertainty k = 0.312910
        22        35        36        41     9      180.000000        0.945955         4    ;  uncertainty k = 0.144004
        24        12        13        25     9        0.000000        0.012190         1    ;  uncertainty k = 0.254827
        24        12        13        25     9      180.000000        7.651772         2    ;  uncertainty k = 0.356485
        24        12        13        25     9        0.000000       -0.376195         3    ;  uncertainty k = 0.256175
        24        12        13        25     9      180.000000        0.176975         4    ;  uncertainty k = 0.148226
        25        13        14        26     9        0.000000       -0.046741         1    ;  uncertainty k = 0.293740
        25        13        14        26     9      180.000000        7.666904         2    ;  uncertainty k = 0.370555
        25        13        14        26     9        0.000000       -0.445849         3    ;  uncertainty k = 0.296098
        25        13        14        26     9      180.000000        0.120484         4    ;  uncertainty k = 0.125143
        29        21        22        30     9        0.000000        1.907053         1    ;  uncertainty k = 0.266794
        29        21        22        30     9      180.000000       -1.914075         2    ;  uncertainty k = 0.346456
        29        21        22        30     9        0.000000        0.079356         3    ;  uncertainty k = 0.027619
        29        21        22        30     9      180.000000        0.127948         4    ;  uncertainty k = 0.031037
        29        21        22        31     9        0.000000        1.907053         1    ;  uncertainty k = 0.266794
        29        21        22        31     9      180.000000       -1.914075         2    ;  uncertainty k = 0.346456
        29        21        22        31     9        0.000000        0.079356         3    ;  uncertainty k = 0.027619
        29        21        22        31     9      180.000000        0.127948         4    ;  uncertainty k = 0.031037
        29        21        22        35     9        0.000000        5.333682         1    ;  uncertainty k = 0.244929
        29        21        22        35     9      180.000000       -2.751319         2    ;  uncertainty k = 0.157231
        29        21        22        35     9        0.000000        0.289370         3    ;  uncertainty k = 0.113272
        29        21        22        35     9      180.000000       -0.026894         4    ;  uncertainty k = 0.083397
        30        22        35        34     9        0.000000       -0.338373         1    ;  uncertainty k = 0.217711
        30        22        35        34     9      180.000000        2.258898         2    ;  uncertainty k = 0.071404
        30        22        35        34     9        0.000000        0.521846         3    ;  uncertainty k = 0.037446
        30        22        35        34     9      180.000000        0.148737         4    ;  uncertainty k = 0.039877
        30        22        35        36     9        0.000000       -0.338373         1    ;  uncertainty k = 0.217711
        30        22        35        36     9      180.000000        2.258898         2    ;  uncertainty k = 0.071404
        30        22        35        36     9        0.000000        0.521846         3    ;  uncertainty k = 0.037447
        30        22        35        36     9      180.000000        0.148737         4    ;  uncertainty k = 0.039877
        31        22        35        34     9        0.000000       -0.338373         1    ;  uncertainty k = 0.217711
        31        22        35        34     9      180.000000        2.258898         2    ;  uncertainty k = 0.071404
        31        22        35        34     9        0.000000        0.521846         3    ;  uncertainty k = 0.037446
        31        22        35        34     9      180.000000        0.148737         4    ;  uncertainty k = 0.039877
        31        22        35        36     9        0.000000       -0.338373         1    ;  uncertainty k = 0.217711
        31        22        35        36     9      180.000000        2.258898         2    ;  uncertainty k = 0.071404
        31        22        35        36     9        0.000000        0.521846         3    ;  uncertainty k = 0.037447
        31        22        35        36     9      180.000000        0.148737         4    ;  uncertainty k = 0.039877
        32        33        34        35     9        0.000000       -0.107315         1    ;  uncertainty k = 0.110945
        32        33        34        35     9      180.000000       13.982895         2    ;  uncertainty k = 0.196943
        32        33        34        35     9        0.000000       -1.049567         3    ;  uncertainty k = 0.494624
        32        33        34        35     9      180.000000        0.677698         4    ;  uncertainty k = 0.259955
        32        33        34        40     9        0.000000        0.060841         1    ;  uncertainty k = 0.037017
        32        33        34        40     9      180.000000        7.841307         2    ;  uncertainty k = 0.320356
        32        33        34        40     9        0.000000        1.430107         3    ;  uncertainty k = 0.303874
        32        33        34        40     9      180.000000        1.840121         4    ;  uncertainty k = 0.163202
        32        37        36        35     9        0.000000       -0.107315         1    ;  uncertainty k = 0.110946
        32        37        36        35     9      180.000000       13.982894         2    ;  uncertainty k = 0.196943
        32        37        36        35     9        0.000000       -1.049567         3    ;  uncertainty k = 0.494624
        32        37        36        35     9      180.000000        0.677699         4    ;  uncertainty k = 0.259955
        32        37        36        41     9        0.000000        0.060840         1    ;  uncertainty k = 0.037018
        32        37        36        41     9      180.000000        7.841306         2    ;  uncertainty k = 0.320356
        32        37        36        41     9        0.000000        1.430107         3    ;  uncertainty k = 0.303873
        32        37        36        41     9      180.000000        1.840121         4    ;  uncertainty k = 0.163202
        33        32        37        36     9        0.000000        0.004425         1    ;  uncertainty k = 0.049024
        33        32        37        36     9      180.000000       15.009550         2    ;  uncertainty k = 0.263251
        33        32        37        36     9        0.000000       -1.208146         3    ;  uncertainty k = 0.478401
        33        32        37        36     9      180.000000        0.488573         4    ;  uncertainty k = 0.299197
        33        32        37        42     9        0.000000        0.056242         1    ;  uncertainty k = 0.039449
        33        32        37        42     9      180.000000        7.540173         2    ;  uncertainty k = 0.339126
        33        32        37        42     9        0.000000        1.440757         3    ;  uncertainty k = 0.320117
        33        32        37        42     9      180.000000        1.793427         4    ;  uncertainty k = 0.163826
        33        34        35        36     9        0.000000       -0.174321         1    ;  uncertainty k = 0.180890
        33        34        35        36     9      180.000000       11.729839         2    ;  uncertainty k = 0.394724
        33        34        35        36     9        0.000000       -0.585931         3    ;  uncertainty k = 0.362501
        33        34        35        36     9      180.000000        0.767487         4    ;  uncertainty k = 0.434137
        34        33        32        37     9        0.000000        0.004425         1    ;  uncertainty k = 0.049024
        34        33        32        37     9      180.000000       15.009551         2    ;  uncertainty k = 0.263251
        34        33        32        37     9        0.000000       -1.208146         3    ;  uncertainty k = 0.478401
        34        33        32        37     9      180.000000        0.488573         4    ;  uncertainty k = 0.299197
        34        33        32        38     9        0.000000        0.051654         1    ;  uncertainty k = 0.083460
        34        33        32        38     9      180.000000        7.458179         2    ;  uncertainty k = 0.356487
        34        33        32        38     9        0.000000        1.453010         3    ;  uncertainty k = 0.282441
        34        33        32        38     9      180.000000        1.798808         4    ;  uncertainty k = 0.196361
        34        35        36        37     9        0.000000       -0.174322         1    ;  uncertainty k = 0.180890
        34        35        36        37     9      180.000000       11.729839         2    ;  uncertainty k = 0.394724
        34        35        36        37     9        0.000000       -0.585931         3    ;  uncertainty k = 0.362501
        34        35        36        37     9      180.000000        0.767487         4    ;  uncertainty k = 0.434137
        34        35        36        41     9        0.000000        0.133059         1    ;  uncertainty k = 0.155907
        34        35        36        41     9      180.000000        7.187242         2    ;  uncertainty k = 0.610438
        34        35        36        41     9        0.000000        1.432392         3    ;  uncertainty k = 0.309945
        34        35        36        41     9      180.000000        1.678039         4    ;  uncertainty k = 0.173598
        35        34        33        39     9        0.000000        0.039576         1    ;  uncertainty k = 0.161192
        35        34        33        39     9      180.000000        7.567040         2    ;  uncertainty k = 0.412744
        35        34        33        39     9        0.000000        1.427894         3    ;  uncertainty k = 0.240376
        35        34        33        39     9      180.000000        1.771427         4    ;  uncertainty k = 0.108028
        35        36        37        42     9        0.000000        0.039576         1    ;  uncertainty k = 0.161193
        35        36        37        42     9      180.000000        7.567039         2    ;  uncertainty k = 0.412744
        35        36        37        42     9        0.000000        1.427894         3    ;  uncertainty k = 0.240376
        35        36        37        42     9      180.000000        1.771427         4    ;  uncertainty k = 0.108028
        36        35        34        40     9        0.000000        0.133059         1    ;  uncertainty k = 0.155908
        36        35        34        40     9      180.000000        7.187243         2    ;  uncertainty k = 0.610439
        36        35        34        40     9        0.000000        1.432392         3    ;  uncertainty k = 0.309945
        36        35        34        40     9      180.000000        1.678039         4    ;  uncertainty k = 0.173598
        36        37        32        38     9        0.000000        0.051654         1    ;  uncertainty k = 0.083460
        36        37        32        38     9      180.000000        7.458181         2    ;  uncertainty k = 0.356486
        36        37        32        38     9        0.000000        1.453010         3    ;  uncertainty k = 0.282441
        36        37        32        38     9      180.000000        1.798808         4    ;  uncertainty k = 0.196361
        37        32        33        39     9        0.000000        0.056241         1    ;  uncertainty k = 0.039450
        37        32        33        39     9      180.000000        7.540174         2    ;  uncertainty k = 0.339126
        37        32        33        39     9        0.000000        1.440757         3    ;  uncertainty k = 0.320117
        37        32        33        39     9      180.000000        1.793427         4    ;  uncertainty k = 0.163826
        38        32        33        39     9        0.000000       -0.001259         1    ;  uncertainty k = 0.076770
        38        32        33        39     9      180.000000        7.465293         2    ;  uncertainty k = 0.328013
        38        32        33        39     9        0.000000       -0.419443         3    ;  uncertainty k = 0.273716
        38        32        33        39     9      180.000000        0.052260         4    ;  uncertainty k = 0.145911
        38        32        37        42     9        0.000000       -0.001258         1    ;  uncertainty k = 0.076770
        38        32        37        42     9      180.000000        7.465294         2    ;  uncertainty k = 0.328013
        38        32        37        42     9        0.000000       -0.419443         3    ;  uncertainty k = 0.273717
        38        32        37        42     9      180.000000        0.052260         4    ;  uncertainty k = 0.145911
        39        33        34        40     9        0.000000       -0.045854         1    ;  uncertainty k = 0.142610
        39        33        34        40     9      180.000000        7.544567         2    ;  uncertainty k = 0.254949
        39        33        34        40     9        0.000000       -0.433167         3    ;  uncertainty k = 0.250187
        39        33        34        40     9      180.000000        0.111472         4    ;  uncertainty k = 0.106040
        41        36        37        42     9        0.000000       -0.045854         1    ;  uncertainty k = 0.142609
        41        36        37        42     9      180.000000        7.544566         2    ;  uncertainty k = 0.254949
        41        36        37        42     9        0.000000       -0.433167         3    ;  uncertainty k = 0.250187
        41        36        37        42     9      180.000000        0.111472         4    ;  uncertainty k = 0.106040

[ dihedrals ] ; impropers
;       ai        aj        ak        al funct           phase               k        pn
         2         1         3         6     4      180.000000        2.833395         2    ;  uncertainty k = 1.376267
         2         3         6         1     4      180.000000        2.833395         2    ;  uncertainty k = 1.376267
         2         6         1         3     4      180.000000        2.833395         2    ;  uncertainty k = 1.376267
         3         2         4        16     4      180.000000        5.361893         2    ;  uncertainty k = 0.990709
         3         4        16         2     4      180.000000        5.361893         2    ;  uncertainty k = 0.990709
         3        16         2         4     4      180.000000        5.361893         2    ;  uncertainty k = 0.990709
         4         3         5        15     4      180.000000        2.498686         2    ;  uncertainty k = 0.371762
         4         5        15         3     4      180.000000        2.498686         2    ;  uncertainty k = 0.371762
         4        15         3         5     4      180.000000        2.498686         2    ;  uncertainty k = 0.371762
         5         1         4         9     4      180.000000        5.473349         2    ;  uncertainty k = 0.359616
         5         4         9         1     4      180.000000        5.473349         2    ;  uncertainty k = 0.359616
         5         9         1         4     4      180.000000        5.473349         2    ;  uncertainty k = 0.359616
         6         2         7         8     4      180.000000       66.076957         2    ;  uncertainty k = 0.057409
         6         7         8         2     4      180.000000       66.076957         2    ;  uncertainty k = 0.057409
         6         8         2         7     4      180.000000       66.076957         2    ;  uncertainty k = 0.057409
         9         5        10        14     4      180.000000       14.879934         2    ;  uncertainty k = 0.094531
         9        10        14         5     4      180.000000       14.879934         2    ;  uncertainty k = 0.094531
         9        14         5        10     4      180.000000       14.879934         2    ;  uncertainty k = 0.094531
        10         9        11        23     4      180.000000        2.158976         2    ;  uncertainty k = 0.399303
        10        11        23         9     4      180.000000        2.158976         2    ;  uncertainty k = 0.399303
        10        23         9        11     4      180.000000        2.158976         2    ;  uncertainty k = 0.399303
        11        10        12        21     4      180.000000       20.488785         2    ;  uncertainty k = 0.059328
        11        12        21        10     4      180.000000       20.488785         2    ;  uncertainty k = 0.059328
        11        21        10        12     4      180.000000       20.488785         2    ;  uncertainty k = 0.059328
        12        11        13        24     4      180.000000        2.239983         2    ;  uncertainty k = 0.324945
        12        13        24        11     4      180.000000        2.239983         2    ;  uncertainty k = 0.324945
        12        24        11        13     4      180.000000        2.239983         2    ;  uncertainty k = 0.324945
        13        12        14        25     4      180.000000        4.292600         2    ;  uncertainty k = 0.189248
        13        14        25        12     4      180.000000        4.292600         2    ;  uncertainty k = 0.189248
        13        25        12        14     4      180.000000        4.292600         2    ;  uncertainty k = 0.189248
        14         9        13        26     4      180.000000        3.142267         2    ;  uncertainty k = 0.169616
        14        13        26         9     4      180.000000        3.142267         2    ;  uncertainty k = 0.169616
        14        26         9        13     4      180.000000        3.142267         2    ;  uncertainty k = 0.169616
        18        17        19        20     4      180.000000       68.314311         2    ;  uncertainty k = 0.022612
        18        19        20        17     4      180.000000       68.314311         2    ;  uncertainty k = 0.022612
        18        20        17        19     4      180.000000       68.314311         2    ;  uncertainty k = 0.022612
        32        33        37        38     4      180.000000        4.464757         2    ;  uncertainty k = 0.149432
        32        37        38        33     4      180.000000        4.464757         2    ;  uncertainty k = 0.149432
        32        38        33        37     4      180.000000        4.464757         2    ;  uncertainty k = 0.149432
        33        32        34        39     4      180.000000        4.351208         2    ;  uncertainty k = 0.071210
        33        34        39        32     4      180.000000        4.351208         2    ;  uncertainty k = 0.071210
        33        39        32        34     4      180.000000        4.351208         2    ;  uncertainty k = 0.071210
        34        33        35        40     4      180.000000        4.240991         2    ;  uncertainty k = 0.093546
        34        35        40        33     4      180.000000        4.240991         2    ;  uncertainty k = 0.093546
        34        40        33        35     4      180.000000        4.240991         2    ;  uncertainty k = 0.093546
        35        22        34        36     4      180.000000       12.916731         2    ;  uncertainty k = 0.067840
        35        34        36        22     4      180.000000       12.916731         2    ;  uncertainty k = 0.067840
        35        36        22        34     4      180.000000       12.916731         2    ;  uncertainty k = 0.067840
        36        35        37        41     4      180.000000        4.240991         2    ;  uncertainty k = 0.093546
        36        37        41        35     4      180.000000        4.240991         2    ;  uncertainty k = 0.093546
        36        41        35        37     4      180.000000        4.240991         2    ;  uncertainty k = 0.093546
        37        32        36        42     4      180.000000        4.351208         2    ;  uncertainty k = 0.071211
        37        36        42        32     4      180.000000        4.351208         2    ;  uncertainty k = 0.071211
        37        42        32        36     4      180.000000        4.351208         2    ;  uncertainty k = 0.071211

[ pairs ]
;       ai        aj funct
         1         7     1
         1         8     1
         1        10     1
         1        14     1
         1        15     1
         1        16     1
         2         9     1
         2        15     1
         2        17     1
         3         7     1
         3         8     1
         3         9     1
         3        18     1
         3        27     1
         3        28     1
         4         6     1
         4        10     1
         4        14     1
         4        17     1
         5         6     1
         5        11     1
         5        13     1
         5        16     1
         5        23     1
         5        26     1
         6        16     1
         9        12     1
         9        15     1
         9        21     1
         9        25     1
        10        13     1
        10        22     1
        10        24     1
        10        26     1
        10        29     1
        11        14     1
        11        25     1
        11        30     1
        11        31     1
        11        35     1
        12        22     1
        12        23     1
        12        26     1
        12        29     1
        13        21     1
        14        23     1
        14        24     1
        15        16     1
        16        19     1
        16        20     1
        19        27     1
        19        28     1
        20        27     1
        20        28     1
        21        23     1
        21        24     1
        21        34     1
        21        36     1
        22        33     1
        22        37     1
        22        40     1
        22        41     1
        24        25     1
        25        26     1
        29        30     1
        29        31     1
        29        35     1
        30        34     1
        30        36     1
        31        34     1
        31        36     1
        32        35     1
        32        40     1
        32        41     1
        33        36     1
        33        42     1
        34        37     1
        34        38     1
        34        41     1
        35        39     1
        35        42     1
        36        38     1
        36        40     1
        37        39     1
        38        39     1
        38        42     1
        39        40     1
        41        42     1
