; ITP file created by ByteFF-joint-25, 2026-02-17 09:28:26.196072

[ atomtypes ]
;name           bonded.type        at.num        mass        charge   ptype           sigma         epsilon
 s0bf                                  16      0.0000       0.00000       A     3.53165e-01     1.18204e+00    ;  uncertainty sigma = 0.000053, epsilon = 0.003055
 c1bf                                   6      0.0000       0.00000       A     3.31495e-01     4.13373e-01    ;  uncertainty sigma = 0.000032, epsilon = 0.002340
 c2bf                                   6      0.0000       0.00000       A     3.31500e-01     4.12069e-01    ;  uncertainty sigma = 0.000033, epsilon = 0.001338
 c3bf                                   6      0.0000       0.00000       A     3.31511e-01     4.13455e-01    ;  uncertainty sigma = 0.000012, epsilon = 0.000975
 c4bf                                   6      0.0000       0.00000       A     3.31514e-01     4.13061e-01    ;  uncertainty sigma = 0.000022, epsilon = 0.000877
 c5bf                                   6      0.0000       0.00000       A     3.31529e-01     4.13194e-01    ;  uncertainty sigma = 0.000055, epsilon = 0.002345
 o6bf                                   8      0.0000       0.00000       A     3.04804e-01     6.11836e-01    ;  uncertainty sigma = 0.000044, epsilon = 0.001672
 o7bf                                   8      0.0000       0.00000       A     3.04804e-01     6.11836e-01    ;  uncertainty sigma = 0.000044, epsilon = 0.001672
 c8bf                                   6      0.0000       0.00000       A     3.31502e-01     4.12993e-01    ;  uncertainty sigma = 0.000011, epsilon = 0.000429
 c9bf                                   6      0.0000       0.00000       A     3.31524e-01     4.13376e-01    ;  uncertainty sigma = 0.000005, epsilon = 0.000868
 c10bf                                  6      0.0000       0.00000       A     3.31507e-01     4.13226e-01    ;  uncertainty sigma = 0.000013, epsilon = 0.000870
 c11bf                                  6      0.0000       0.00000       A     3.31521e-01     4.13203e-01    ;  uncertainty sigma = 0.000002, epsilon = 0.000548
 c12bf                                  6      0.0000       0.00000       A     3.31522e-01     4.13513e-01    ;  uncertainty sigma = 0.000003, epsilon = 0.000666
 c13bf                                  6      0.0000       0.00000       A     3.31520e-01     4.13276e-01    ;  uncertainty sigma = 0.000003, epsilon = 0.000632
 br14bf                                35      0.0000       0.00000       A     3.61258e-01     1.64394e+00    ;  uncertainty sigma = 0.000027, epsilon = 0.006365
 o15bf                                  8      0.0000       0.00000       A     3.15802e-01     3.03913e-01    ;  uncertainty sigma = 0.000078, epsilon = 0.010291
 c16bf                                  6      0.0000       0.00000       A     3.39717e-01     4.50736e-01    ;  uncertainty sigma = 0.000028, epsilon = 0.002811
 c17bf                                  6      0.0000       0.00000       A     3.31523e-01     4.12941e-01    ;  uncertainty sigma = 0.000026, epsilon = 0.002863
 o18bf                                  8      0.0000       0.00000       A     3.04805e-01     6.12312e-01    ;  uncertainty sigma = 0.000022, epsilon = 0.002455
 o19bf                                  8      0.0000       0.00000       A     3.04805e-01     6.12312e-01    ;  uncertainty sigma = 0.000022, epsilon = 0.002455
 n20bf                                  7      0.0000       0.00000       A     3.27946e-01     6.44717e-01    ;  uncertainty sigma = 0.000033, epsilon = 0.000917
 c21bf                                  6      0.0000       0.00000       A     3.39792e-01     4.51330e-01    ;  uncertainty sigma = 0.000011, epsilon = 0.000898
 c22bf                                  6      0.0000       0.00000       A     3.39794e-01     4.50895e-01    ;  uncertainty sigma = 0.000006, epsilon = 0.000594
 c23bf                                  6      0.0000       0.00000       A     3.39757e-01     4.50321e-01    ;  uncertainty sigma = 0.000005, epsilon = 0.000485
 n24bf                                  7      0.0000       0.00000       A     3.36516e-01     3.59122e-01    ;  uncertainty sigma = 0.000022, epsilon = 0.001472
 c25bf                                  6      0.0000       0.00000       A     3.39757e-01     4.50321e-01    ;  uncertainty sigma = 0.000005, epsilon = 0.000485
 c26bf                                  6      0.0000       0.00000       A     3.39794e-01     4.50895e-01    ;  uncertainty sigma = 0.000006, epsilon = 0.000594
 s27bf                                 16      0.0000       0.00000       A     4.05888e-01     2.56891e-01    ;  uncertainty sigma = 0.000017, epsilon = 0.000907
 o28bf                                  8      0.0000       0.00000       A     3.04816e-01     6.11998e-01    ;  uncertainty sigma = 0.000009, epsilon = 0.000608
 o29bf                                  8      0.0000       0.00000       A     3.04816e-01     6.11998e-01    ;  uncertainty sigma = 0.000009, epsilon = 0.000608
 c30bf                                  6      0.0000       0.00000       A     3.39799e-01     4.50846e-01    ;  uncertainty sigma = 0.000016, epsilon = 0.001433
 c31bf                                  6      0.0000       0.00000       A     3.31503e-01     4.12959e-01    ;  uncertainty sigma = 0.000017, epsilon = 0.001220
 c32bf                                  6      0.0000       0.00000       A     3.31516e-01     4.13385e-01    ;  uncertainty sigma = 0.000003, epsilon = 0.000454
 c33bf                                  6      0.0000       0.00000       A     3.31517e-01     4.13357e-01    ;  uncertainty sigma = 0.000003, epsilon = 0.000583
 c34bf                                  6      0.0000       0.00000       A     3.31519e-01     4.13331e-01    ;  uncertainty sigma = 0.000003, epsilon = 0.000569
 c35bf                                  6      0.0000       0.00000       A     3.31517e-01     4.13357e-01    ;  uncertainty sigma = 0.000003, epsilon = 0.000583
 c36bf                                  6      0.0000       0.00000       A     3.31516e-01     4.13385e-01    ;  uncertainty sigma = 0.000003, epsilon = 0.000454
 h37bf                                  1      0.0000       0.00000       A     2.62548e-01     6.70805e-02    ;  uncertainty sigma = 0.000012, epsilon = 0.000580
 h38bf                                  1      0.0000       0.00000       A     2.62556e-01     6.70450e-02    ;  uncertainty sigma = 0.000012, epsilon = 0.000463
 h39bf                                  1      0.0000       0.00000       A     2.62563e-01     6.69897e-02    ;  uncertainty sigma = 0.000012, epsilon = 0.000446
 h40bf                                  1      0.0000       0.00000       A     2.62561e-01     6.70428e-02    ;  uncertainty sigma = 0.000012, epsilon = 0.000452
 h41bf                                  1      0.0000       0.00000       A     2.42291e-01     8.67021e-02    ;  uncertainty sigma = 0.000194, epsilon = 0.000950
 h42bf                                  1      0.0000       0.00000       A     2.42291e-01     8.67021e-02    ;  uncertainty sigma = 0.000194, epsilon = 0.000950
 h43bf                                  1      0.0000       0.00000       A     1.10678e-01     4.13568e-02    ;  uncertainty sigma = 0.000090, epsilon = 0.000744
 h44bf                                  1      0.0000       0.00000       A     2.42228e-01     8.69235e-02    ;  uncertainty sigma = 0.000023, epsilon = 0.000690
 h45bf                                  1      0.0000       0.00000       A     2.60030e-01     8.68440e-02    ;  uncertainty sigma = 0.000010, epsilon = 0.000536
 h46bf                                  1      0.0000       0.00000       A     2.60030e-01     8.68440e-02    ;  uncertainty sigma = 0.000010, epsilon = 0.000536
 h47bf                                  1      0.0000       0.00000       A     2.42194e-01     8.69282e-02    ;  uncertainty sigma = 0.000025, epsilon = 0.000692
 h48bf                                  1      0.0000       0.00000       A     2.42194e-01     8.69282e-02    ;  uncertainty sigma = 0.000025, epsilon = 0.000692
 h49bf                                  1      0.0000       0.00000       A     2.42194e-01     8.69282e-02    ;  uncertainty sigma = 0.000025, epsilon = 0.000692
 h50bf                                  1      0.0000       0.00000       A     2.42194e-01     8.69282e-02    ;  uncertainty sigma = 0.000025, epsilon = 0.000692
 h51bf                                  1      0.0000       0.00000       A     2.60030e-01     8.68440e-02    ;  uncertainty sigma = 0.000010, epsilon = 0.000536
 h52bf                                  1      0.0000       0.00000       A     2.60030e-01     8.68440e-02    ;  uncertainty sigma = 0.000010, epsilon = 0.000536
 h53bf                                  1      0.0000       0.00000       A     2.42160e-01     8.67038e-02    ;  uncertainty sigma = 0.000064, epsilon = 0.000815
 h54bf                                  1      0.0000       0.00000       A     2.42160e-01     8.67038e-02    ;  uncertainty sigma = 0.000064, epsilon = 0.000815
 h55bf                                  1      0.0000       0.00000       A     2.62562e-01     6.71208e-02    ;  uncertainty sigma = 0.000008, epsilon = 0.000478
 h56bf                                  1      0.0000       0.00000       A     2.62558e-01     6.70323e-02    ;  uncertainty sigma = 0.000010, epsilon = 0.000442
 h57bf                                  1      0.0000       0.00000       A     2.62552e-01     6.70646e-02    ;  uncertainty sigma = 0.000011, epsilon = 0.000453
 h58bf                                  1      0.0000       0.00000       A     2.62558e-01     6.70323e-02    ;  uncertainty sigma = 0.000010, epsilon = 0.000442
 h59bf                                  1      0.0000       0.00000       A     2.62562e-01     6.71208e-02    ;  uncertainty sigma = 0.000008, epsilon = 0.000478

[ moleculetype ]
;name             nrexcl
 MOL                   3

[ atoms ]
;       nr            type      resi   res      atom      cgnr      charge          mass ; qtot
         1            s0bf         1   UNL        s0         1    -0.06026       32.0670 ; qtot   -0.060
         2            c1bf         1   UNL        c1         2    -0.15250       12.0110 ; qtot   -0.213
         3            c2bf         1   UNL        c2         3     0.12085       12.0110 ; qtot   -0.092
         4            c3bf         1   UNL        c3         4    -0.04845       12.0110 ; qtot   -0.140
         5            c4bf         1   UNL        c4         5    -0.04862       12.0110 ; qtot   -0.189
         6            c5bf         1   UNL        c5         6     0.93104       12.0110 ; qtot    0.742
         7            o6bf         1   UNL        o6         7    -0.81786       15.9990 ; qtot   -0.076
         8            o7bf         1   UNL        o7         8    -0.81786       15.9990 ; qtot   -0.894
         9            c8bf         1   UNL        c8         9     0.02218       12.0110 ; qtot   -0.871
        10            c9bf         1   UNL        c9        10    -0.18104       12.0110 ; qtot   -1.053
        11           c10bf         1   UNL       c10        11     0.16136       12.0110 ; qtot   -0.891
        12           c11bf         1   UNL       c11        12    -0.19079       12.0110 ; qtot   -1.082
        13           c12bf         1   UNL       c12        13    -0.09078       12.0110 ; qtot   -1.173
        14           c13bf         1   UNL       c13        14    -0.13415       12.0110 ; qtot   -1.307
        15          br14bf         1   UNL      br14        15    -0.09860       79.9040 ; qtot   -1.405
        16           o15bf         1   UNL       o15        16    -0.32674       15.9990 ; qtot   -1.732
        17           c16bf         1   UNL       c16        17    -0.04389       12.0110 ; qtot   -1.776
        18           c17bf         1   UNL       c17        18     0.91650       12.0110 ; qtot   -0.860
        19           o18bf         1   UNL       o18        19    -0.83281       15.9990 ; qtot   -1.692
        20           o19bf         1   UNL       o19        20    -0.83281       15.9990 ; qtot   -2.525
        21           n20bf         1   UNL       n20        21    -0.74906       14.0070 ; qtot   -3.274
        22           c21bf         1   UNL       c21        22     0.20770       12.0110 ; qtot   -3.067
        23           c22bf         1   UNL       c22        23    -0.10422       12.0110 ; qtot   -3.171
        24           c23bf         1   UNL       c23        24     0.20435       12.0110 ; qtot   -2.966
        25           n24bf         1   UNL       n24        25    -0.73938       14.0070 ; qtot   -3.706
        26           c25bf         1   UNL       c25        26     0.20435       12.0110 ; qtot   -3.501
        27           c26bf         1   UNL       c26        27    -0.10422       12.0110 ; qtot   -3.606
        28           s27bf         1   UNL       s27        28     1.14047       32.0670 ; qtot   -2.465
        29           o28bf         1   UNL       o28        29    -0.58827       15.9990 ; qtot   -3.054
        30           o29bf         1   UNL       o29        30    -0.58827       15.9990 ; qtot   -3.642
        31           c30bf         1   UNL       c30        31    -0.10260       12.0110 ; qtot   -3.744
        32           c31bf         1   UNL       c31        32    -0.08640       12.0110 ; qtot   -3.831
        33           c32bf         1   UNL       c32        33    -0.10541       12.0110 ; qtot   -3.936
        34           c33bf         1   UNL       c33        34    -0.12917       12.0110 ; qtot   -4.065
        35           c34bf         1   UNL       c34        35    -0.12175       12.0110 ; qtot   -4.187
        36           c35bf         1   UNL       c35        36    -0.12917       12.0110 ; qtot   -4.316
        37           c36bf         1   UNL       c36        37    -0.10541       12.0110 ; qtot   -4.422
        38           h37bf         1   UNL       h37        38     0.13981        1.0080 ; qtot   -4.282
        39           h38bf         1   UNL       h38        39     0.13179        1.0080 ; qtot   -4.150
        40           h39bf         1   UNL       h39        40     0.13626        1.0080 ; qtot   -4.014
        41           h40bf         1   UNL       h40        41     0.14276        1.0080 ; qtot   -3.871
        42           h41bf         1   UNL       h41        42     0.02291        1.0080 ; qtot   -3.848
        43           h42bf         1   UNL       h42        43     0.02291        1.0080 ; qtot   -3.825
        44           h43bf         1   UNL       h43        44     0.39961        1.0080 ; qtot   -3.426
        45           h44bf         1   UNL       h44        45     0.06053        1.0080 ; qtot   -3.365
        46           h45bf         1   UNL       h45        46     0.05926        1.0080 ; qtot   -3.306
        47           h46bf         1   UNL       h46        47     0.05926        1.0080 ; qtot   -3.247
        48           h47bf         1   UNL       h47        48     0.06174        1.0080 ; qtot   -3.185
        49           h48bf         1   UNL       h48        49     0.06174        1.0080 ; qtot   -3.123
        50           h49bf         1   UNL       h49        50     0.06174        1.0080 ; qtot   -3.061
        51           h50bf         1   UNL       h50        51     0.06174        1.0080 ; qtot   -3.000
        52           h51bf         1   UNL       h51        52     0.05926        1.0080 ; qtot   -2.940
        53           h52bf         1   UNL       h52        53     0.05926        1.0080 ; qtot   -2.881
        54           h53bf         1   UNL       h53        54     0.10127        1.0080 ; qtot   -2.780
        55           h54bf         1   UNL       h54        55     0.10127        1.0080 ; qtot   -2.679
        56           h55bf         1   UNL       h55        56     0.14029        1.0080 ; qtot   -2.538
        57           h56bf         1   UNL       h56        57     0.13299        1.0080 ; qtot   -2.405
        58           h57bf         1   UNL       h57        58     0.13198        1.0080 ; qtot   -2.273
        59           h58bf         1   UNL       h58        59     0.13299        1.0080 ; qtot   -2.140
        60           h59bf         1   UNL       h59        60     0.14032        1.0080 ; qtot   -2.000

[ bonds ]
;       ai        aj funct               r               k
         1         2     1        0.174192   168649.560181    ;  uncertainty r = 0.000346, k = 32.148596
         1         5     1        0.174357   166232.447241    ;  uncertainty r = 0.000237, k = 14.888510
         2         3     1        0.138080   385642.911377    ;  uncertainty r = 0.000134, k = 36.968685
         2         6     1        0.154055   191773.233960    ;  uncertainty r = 0.000283, k = 45.899503
         3         4     1        0.143810   249799.356152    ;  uncertainty r = 0.000373, k = 34.755195
         3        16     1        0.136007   307552.652637    ;  uncertainty r = 0.000403, k = 36.149075
         4         5     1        0.137757   380537.379248    ;  uncertainty r = 0.000227, k = 7.612841
         4        15     1        0.190420   156686.726831    ;  uncertainty r = 0.000144, k = 29.636935
         5         9     1        0.146498   276255.265186    ;  uncertainty r = 0.000143, k = 7.998639
         6         7     1        0.126149   550576.911523    ;  uncertainty r = 0.000229, k = 9.262788
         6         8     1        0.126149   550576.911523    ;  uncertainty r = 0.000229, k = 9.262788
         9        10     1        0.139866   346656.581201    ;  uncertainty r = 0.000090, k = 3.370148
         9        14     1        0.140211   349325.336816    ;  uncertainty r = 0.000029, k = 3.652698
        10        11     1        0.140727   361666.272607    ;  uncertainty r = 0.000046, k = 6.105763
        10        38     1        0.108901   336801.478711    ;  uncertainty r = 0.000022, k = 2.489614
        11        12     1        0.140941   361928.206738    ;  uncertainty r = 0.000067, k = 7.751592
        11        21     1        0.139656   340533.778320    ;  uncertainty r = 0.000093, k = 9.299274
        12        13     1        0.139380   371821.742578    ;  uncertainty r = 0.000036, k = 2.429869
        12        39     1        0.108873   337023.140820    ;  uncertainty r = 0.000023, k = 0.936943
        13        14     1        0.139370   367208.565918    ;  uncertainty r = 0.000033, k = 1.516097
        13        40     1        0.108779   332374.620801    ;  uncertainty r = 0.000017, k = 1.550752
        14        41     1        0.108759   334843.242090    ;  uncertainty r = 0.000027, k = 0.771472
        16        17     1        0.144489   220596.573486    ;  uncertainty r = 0.000632, k = 19.356591
        17        18     1        0.155273   162501.513867    ;  uncertainty r = 0.000271, k = 66.063610
        17        42     1        0.109682   316919.485596    ;  uncertainty r = 0.000081, k = 8.518153
        17        43     1        0.109682   316919.485596    ;  uncertainty r = 0.000081, k = 8.518153
        18        19     1        0.126286   541570.585938    ;  uncertainty r = 0.000058, k = 12.189171
        18        20     1        0.126286   541570.585938    ;  uncertainty r = 0.000058, k = 12.189171
        21        22     1        0.146259   234136.578711    ;  uncertainty r = 0.000084, k = 7.753098
        21        44     1        0.101386   415221.140625    ;  uncertainty r = 0.000050, k = 2.421602
        22        23     1        0.153823   205581.391602    ;  uncertainty r = 0.000032, k = 5.695215
        22        27     1        0.153823   205581.391602    ;  uncertainty r = 0.000032, k = 5.695215
        22        45     1        0.109618   302969.992822    ;  uncertainty r = 0.000029, k = 3.107582
        23        24     1        0.153043   210383.249194    ;  uncertainty r = 0.000034, k = 2.538289
        23        46     1        0.109607   310899.341895    ;  uncertainty r = 0.000023, k = 1.329036
        23        47     1        0.109607   310899.341895    ;  uncertainty r = 0.000023, k = 1.329036
        24        25     1        0.147392   220427.696582    ;  uncertainty r = 0.000066, k = 11.885726
        24        48     1        0.109564   306592.048730    ;  uncertainty r = 0.000043, k = 1.487022
        24        49     1        0.109564   306592.048730    ;  uncertainty r = 0.000043, k = 1.487022
        25        26     1        0.147392   220427.696582    ;  uncertainty r = 0.000066, k = 11.885726
        25        28     1        0.167957   119743.710156    ;  uncertainty r = 0.000111, k = 13.461252
        26        27     1        0.153043   210383.249194    ;  uncertainty r = 0.000034, k = 2.538289
        26        50     1        0.109564   306592.048730    ;  uncertainty r = 0.000043, k = 1.487022
        26        51     1        0.109564   306592.048730    ;  uncertainty r = 0.000043, k = 1.487022
        27        52     1        0.109607   310899.341895    ;  uncertainty r = 0.000023, k = 1.329036
        27        53     1        0.109607   310899.341895    ;  uncertainty r = 0.000023, k = 1.329036
        28        29     1        0.147216   517367.790527    ;  uncertainty r = 0.000046, k = 6.238391
        28        30     1        0.147216   517367.790527    ;  uncertainty r = 0.000046, k = 6.238391
        28        31     1        0.183347   144483.716968    ;  uncertainty r = 0.000059, k = 10.559041
        31        32     1        0.150254   236045.528711    ;  uncertainty r = 0.000070, k = 6.059591
        31        54     1        0.109543   319118.741455    ;  uncertainty r = 0.000033, k = 1.728383
        31        55     1        0.109543   319118.741455    ;  uncertainty r = 0.000033, k = 1.728383
        32        33     1        0.139903   352173.567236    ;  uncertainty r = 0.000032, k = 2.758771
        32        37     1        0.139903   352173.567236    ;  uncertainty r = 0.000032, k = 2.758771
        33        34     1        0.139513   367487.329004    ;  uncertainty r = 0.000019, k = 1.407067
        33        56     1        0.108838   333708.807080    ;  uncertainty r = 0.000023, k = 0.433138
        34        35     1        0.139644   370527.470801    ;  uncertainty r = 0.000023, k = 1.213490
        34        57     1        0.108843   334218.195801    ;  uncertainty r = 0.000011, k = 0.972131
        35        36     1        0.139644   370527.470801    ;  uncertainty r = 0.000023, k = 1.213490
        35        58     1        0.108851   334582.431592    ;  uncertainty r = 0.000012, k = 0.680626
        36        37     1        0.139513   367487.329004    ;  uncertainty r = 0.000019, k = 1.407067
        36        59     1        0.108843   334218.195801    ;  uncertainty r = 0.000011, k = 0.972131
        37        60     1        0.108838   333708.807080    ;  uncertainty r = 0.000023, k = 0.433128

[ angles ]
;       ai        aj        ak funct           theta             cth
         1         2         3     1      112.357254      490.287825    ;  uncertainty theta = 0.005257, k = 0.446159
         1         2         6     1      115.451401      321.272126    ;  uncertainty theta = 0.011344, k = 0.278095
         1         5         4     1      111.659386      449.584992    ;  uncertainty theta = 0.002310, k = 0.394971
         1         5         9     1      118.728165      342.867040    ;  uncertainty theta = 0.007322, k = 0.153391
         2         1         5     1       93.409683     1113.970975    ;  uncertainty theta = 0.008532, k = 0.189168
         2         3         4     1      115.069199      491.410436    ;  uncertainty theta = 0.004813, k = 0.280924
         2         3        16     1      123.043716      386.336563    ;  uncertainty theta = 0.006879, k = 0.395881
         2         6         7     1      114.979454      369.254791    ;  uncertainty theta = 0.012630, k = 0.171059
         2         6         8     1      114.979454      369.254791    ;  uncertainty theta = 0.012630, k = 0.171059
         3         2         6     1      128.246002      305.353665    ;  uncertainty theta = 0.014744, k = 0.309527
         3         4         5     1      117.601578      512.725910    ;  uncertainty theta = 0.003379, k = 0.473085
         3         4        15     1      119.051048      364.447781    ;  uncertainty theta = 0.003204, k = 0.273279
         3        16        17     1      112.137527      461.556502    ;  uncertainty theta = 0.007449, k = 0.230739
         4         3        16     1      118.536453      394.142587    ;  uncertainty theta = 0.008837, k = 0.130964
         4         5         9     1      126.491371      327.557288    ;  uncertainty theta = 0.004316, k = 0.181971
         5         4        15     1      120.673264      351.209758    ;  uncertainty theta = 0.006817, k = 0.079938
         5         9        10     1      120.397461      415.443409    ;  uncertainty theta = 0.002814, k = 0.087126
         5         9        14     1      121.217979      420.375742    ;  uncertainty theta = 0.001875, k = 0.061522
         7         6         8     1      131.649750      807.008217    ;  uncertainty theta = 0.009047, k = 0.187853
         9        10        11     1      120.428894      536.832239    ;  uncertainty theta = 0.003964, k = 0.078433
         9        10        38     1      119.446228      281.459645    ;  uncertainty theta = 0.002184, k = 0.055595
         9        14        13     1      119.273636      529.780262    ;  uncertainty theta = 0.001628, k = 0.054049
         9        14        41     1      119.473221      279.687114    ;  uncertainty theta = 0.002433, k = 0.056230
        10         9        14     1      121.486282      396.733614    ;  uncertainty theta = 0.005023, k = 0.115979
        10        11        12     1      118.820084      368.448584    ;  uncertainty theta = 0.006898, k = 0.170009
        10        11        21     1      123.207497      559.122880    ;  uncertainty theta = 0.004652, k = 0.225127
        11        10        38     1      119.650734      276.539889    ;  uncertainty theta = 0.001696, k = 0.041192
        11        12        13     1      118.451317      533.334932    ;  uncertainty theta = 0.003729, k = 0.122588
        11        12        39     1      119.619423      267.231708    ;  uncertainty theta = 0.002416, k = 0.066386
        11        21        22     1      114.779846      429.072533    ;  uncertainty theta = 0.004451, k = 0.146915
        11        21        44     1      110.680946      371.423657    ;  uncertainty theta = 0.004168, k = 0.065248
        12        11        21     1      123.735001      591.600465    ;  uncertainty theta = 0.004505, k = 0.147872
        12        13        14     1      121.365150      506.111639    ;  uncertainty theta = 0.002455, k = 0.077037
        12        13        40     1      120.189308      280.032408    ;  uncertainty theta = 0.001024, k = 0.065623
        13        12        39     1      121.003220      294.864680    ;  uncertainty theta = 0.002261, k = 0.074534
        13        14        41     1      120.754356      296.535541    ;  uncertainty theta = 0.001263, k = 0.063263
        14        13        40     1      120.097679      281.198464    ;  uncertainty theta = 0.001024, k = 0.024519
        16        17        18     1      108.358414      484.414258    ;  uncertainty theta = 0.009599, k = 0.239378
        16        17        42     1      106.609215      413.715920    ;  uncertainty theta = 0.002333, k = 0.101205
        16        17        43     1      106.609215      413.715920    ;  uncertainty theta = 0.002333, k = 0.101205
        17        18        19     1      116.281067      425.507680    ;  uncertainty theta = 0.009799, k = 0.299635
        17        18        20     1      116.281067      425.507680    ;  uncertainty theta = 0.009799, k = 0.299635
        18        17        42     1      110.053444      352.214644    ;  uncertainty theta = 0.003968, k = 0.110269
        18        17        43     1      110.053444      352.214644    ;  uncertainty theta = 0.003968, k = 0.110269
        19        18        20     1      131.546265      818.159315    ;  uncertainty theta = 0.002374, k = 0.066126
        21        22        23     1      111.874893      608.781640    ;  uncertainty theta = 0.002670, k = 0.056193
        21        22        27     1      111.874893      608.781640    ;  uncertainty theta = 0.002670, k = 0.056193
        21        22        45     1      105.105202      431.697684    ;  uncertainty theta = 0.000667, k = 0.128592
        22        21        44     1      109.826096      364.700566    ;  uncertainty theta = 0.003958, k = 0.118398
        22        23        24     1      110.060074      566.963538    ;  uncertainty theta = 0.002977, k = 0.093252
        22        23        46     1      108.163086      389.798501    ;  uncertainty theta = 0.000562, k = 0.019447
        22        23        47     1      108.163086      389.798501    ;  uncertainty theta = 0.000562, k = 0.019447
        22        27        26     1      110.060074      566.963538    ;  uncertainty theta = 0.002977, k = 0.093252
        22        27        52     1      108.163086      389.798501    ;  uncertainty theta = 0.000562, k = 0.019447
        22        27        53     1      108.163086      389.798501    ;  uncertainty theta = 0.000562, k = 0.019447
        23        22        27     1      108.550858      573.147413    ;  uncertainty theta = 0.002717, k = 0.112066
        23        22        45     1      107.951881      404.294482    ;  uncertainty theta = 0.002626, k = 0.042159
        23        24        25     1      109.259689      661.967140    ;  uncertainty theta = 0.002496, k = 0.165476
        23        24        48     1      109.589439      414.874921    ;  uncertainty theta = 0.000574, k = 0.041752
        23        24        49     1      109.589439      414.874921    ;  uncertainty theta = 0.000574, k = 0.041752
        24        23        46     1      107.819115      397.813036    ;  uncertainty theta = 0.000545, k = 0.058984
        24        23        47     1      107.819115      397.813036    ;  uncertainty theta = 0.000545, k = 0.058984
        24        25        26     1      108.347214      477.043099    ;  uncertainty theta = 0.006497, k = 0.088259
        24        25        28     1      107.526390      421.352824    ;  uncertainty theta = 0.004077, k = 0.136080
        25        24        48     1      107.439697      440.133772    ;  uncertainty theta = 0.001245, k = 0.060515
        25        24        49     1      107.439697      440.133772    ;  uncertainty theta = 0.001245, k = 0.060515
        25        26        27     1      109.259689      661.967140    ;  uncertainty theta = 0.002496, k = 0.165476
        25        26        50     1      107.439697      440.133772    ;  uncertainty theta = 0.001245, k = 0.060515
        25        26        51     1      107.439697      440.133772    ;  uncertainty theta = 0.001245, k = 0.060515
        25        28        29     1      113.095688      783.120613    ;  uncertainty theta = 0.002858, k = 0.059603
        25        28        30     1      113.095688      783.120613    ;  uncertainty theta = 0.002858, k = 0.059603
        25        28        31     1      104.556190      574.445401    ;  uncertainty theta = 0.004758, k = 0.134924
        26        25        28     1      107.526390      421.352824    ;  uncertainty theta = 0.004077, k = 0.136080
        26        27        52     1      107.819115      397.813036    ;  uncertainty theta = 0.000545, k = 0.058984
        26        27        53     1      107.819115      397.813036    ;  uncertainty theta = 0.000545, k = 0.058984
        27        22        45     1      107.951881      404.294482    ;  uncertainty theta = 0.002626, k = 0.042159
        27        26        50     1      109.589439      414.874921    ;  uncertainty theta = 0.000574, k = 0.041752
        27        26        51     1      109.589439      414.874921    ;  uncertainty theta = 0.000574, k = 0.041752
        28        31        32     1      109.649918      495.715035    ;  uncertainty theta = 0.004234, k = 0.061160
        28        31        54     1      105.703957      368.051993    ;  uncertainty theta = 0.002863, k = 0.113098
        28        31        55     1      105.703957      368.051993    ;  uncertainty theta = 0.002863, k = 0.113098
        29        28        30     1      123.102562      837.741170    ;  uncertainty theta = 0.004451, k = 0.055256
        29        28        31     1      111.604637      646.652216    ;  uncertainty theta = 0.003974, k = 0.095117
        30        28        31     1      111.604637      646.652216    ;  uncertainty theta = 0.003974, k = 0.095117
        31        32        33     1      119.892944      402.465801    ;  uncertainty theta = 0.003011, k = 0.179666
        31        32        37     1      119.892944      402.465801    ;  uncertainty theta = 0.003011, k = 0.179666
        32        31        54     1      110.903542      383.204564    ;  uncertainty theta = 0.003465, k = 0.060312
        32        31        55     1      110.903542      383.204564    ;  uncertainty theta = 0.003465, k = 0.060312
        32        33        34     1      120.345314      516.940906    ;  uncertainty theta = 0.001946, k = 0.082955
        32        33        56     1      118.665062      275.796121    ;  uncertainty theta = 0.001604, k = 0.061144
        32        37        36     1      120.345314      516.940906    ;  uncertainty theta = 0.001946, k = 0.082955
        32        37        60     1      118.665062      275.796121    ;  uncertainty theta = 0.001604, k = 0.061144
        33        32        37     1      120.659508      464.018056    ;  uncertainty theta = 0.002029, k = 0.059375
        33        34        35     1      119.373512      517.504989    ;  uncertainty theta = 0.001399, k = 0.034154
        33        34        57     1      119.983643      284.143659    ;  uncertainty theta = 0.001388, k = 0.020024
        34        33        56     1      120.407043      293.275698    ;  uncertainty theta = 0.001871, k = 0.020524
        34        35        36     1      118.513145      527.821821    ;  uncertainty theta = 0.001354, k = 0.028652
        34        35        58     1      120.600479      288.987953    ;  uncertainty theta = 0.001685, k = 0.006948
        35        34        57     1      120.580788      288.011318    ;  uncertainty theta = 0.001274, k = 0.008284
        35        36        37     1      119.373512      517.504989    ;  uncertainty theta = 0.001399, k = 0.034154
        35        36        59     1      120.580788      288.011318    ;  uncertainty theta = 0.001274, k = 0.008284
        36        35        58     1      120.600479      288.987953    ;  uncertainty theta = 0.001685, k = 0.006948
        36        37        60     1      120.407043      293.275698    ;  uncertainty theta = 0.001871, k = 0.020524
        37        36        59     1      119.983643      284.143659    ;  uncertainty theta = 0.001388, k = 0.020024
        42        17        43     1      108.449623      321.244163    ;  uncertainty theta = 0.009962, k = 0.176306
        46        23        47     1      105.624390      312.800446    ;  uncertainty theta = 0.001718, k = 0.026570
        48        24        49     1      105.553688      321.577422    ;  uncertainty theta = 0.001002, k = 0.056967
        50        26        51     1      105.553688      321.577422    ;  uncertainty theta = 0.001002, k = 0.056967
        52        27        53     1      105.624390      312.800478    ;  uncertainty theta = 0.001718, k = 0.026570
        54        31        55     1      107.674545      299.565839    ;  uncertainty theta = 0.003188, k = 0.077713

[ dihedrals ] ; propers for gromacs 4.5 or higher, use funct 9
;       ai        aj        ak        al funct           phase               k        pn
         1         2         3         4     9        0.000000       -0.320833         1    ;  uncertainty k = 0.754080
         1         2         3         4     9      180.000000       17.555282         2    ;  uncertainty k = 0.424189
         1         2         3         4     9        0.000000       -2.376894         3    ;  uncertainty k = 1.115238
         1         2         3         4     9      180.000000        0.923152         4    ;  uncertainty k = 0.610957
         1         2         3        16     9        0.000000        0.376558         1    ;  uncertainty k = 1.230098
         1         2         3        16     9      180.000000       18.623043         2    ;  uncertainty k = 0.210713
         1         2         3        16     9        0.000000        1.608484         3    ;  uncertainty k = 0.452084
         1         2         3        16     9      180.000000        0.624278         4    ;  uncertainty k = 0.345564
         1         2         6         7     9        0.000000        0.648298         1    ;  uncertainty k = 2.496588
         1         2         6         7     9      180.000000        4.832235         2    ;  uncertainty k = 0.504618
         1         2         6         7     9        0.000000        0.188147         3    ;  uncertainty k = 0.527138
         1         2         6         7     9      180.000000        0.229089         4    ;  uncertainty k = 0.149777
         1         2         6         8     9        0.000000        0.648298         1    ;  uncertainty k = 2.496588
         1         2         6         8     9      180.000000        4.832235         2    ;  uncertainty k = 0.504618
         1         2         6         8     9        0.000000        0.188147         3    ;  uncertainty k = 0.527138
         1         2         6         8     9      180.000000        0.229089         4    ;  uncertainty k = 0.149777
         1         5         4         3     9        0.000000       -0.230943         1    ;  uncertainty k = 0.350057
         1         5         4         3     9      180.000000       15.958089         2    ;  uncertainty k = 0.404103
         1         5         4         3     9        0.000000       -2.380903         3    ;  uncertainty k = 0.809268
         1         5         4         3     9      180.000000        0.865666         4    ;  uncertainty k = 0.750586
         1         5         4        15     9        0.000000        0.242023         1    ;  uncertainty k = 0.389261
         1         5         4        15     9      180.000000       12.724293         2    ;  uncertainty k = 0.534639
         1         5         4        15     9        0.000000        2.310394         3    ;  uncertainty k = 0.489088
         1         5         4        15     9      180.000000        0.570757         4    ;  uncertainty k = 0.408314
         1         5         9        10     9        0.000000       -0.656981         1    ;  uncertainty k = 0.571836
         1         5         9        10     9      180.000000        3.252194         2    ;  uncertainty k = 0.077129
         1         5         9        10     9        0.000000        0.284571         3    ;  uncertainty k = 0.258066
         1         5         9        10     9      180.000000        0.122527         4    ;  uncertainty k = 0.130736
         1         5         9        14     9        0.000000       -0.233259         1    ;  uncertainty k = 0.548333
         1         5         9        14     9      180.000000        3.321067         2    ;  uncertainty k = 0.213032
         1         5         9        14     9        0.000000        0.471770         3    ;  uncertainty k = 0.250673
         1         5         9        14     9      180.000000        0.112740         4    ;  uncertainty k = 0.126557
         2         1         5         4     9        0.000000       -0.381502         1    ;  uncertainty k = 1.018320
         2         1         5         4     9      180.000000       14.624384         2    ;  uncertainty k = 0.929119
         2         1         5         4     9        0.000000       -6.005800         3    ;  uncertainty k = 1.036762
         2         1         5         4     9      180.000000        1.151585         4    ;  uncertainty k = 0.363309
         2         1         5         9     9        0.000000        0.589347         1    ;  uncertainty k = 1.308291
         2         1         5         9     9      180.000000       11.699598         2    ;  uncertainty k = 0.623079
         2         1         5         9     9        0.000000        0.979108         3    ;  uncertainty k = 1.167760
         2         1         5         9     9      180.000000       -0.045828         4    ;  uncertainty k = 0.492309
         2         3         4         5     9        0.000000       -0.163892         1    ;  uncertainty k = 0.802841
         2         3         4         5     9      180.000000        9.355372         2    ;  uncertainty k = 0.794784
         2         3         4         5     9        0.000000       -2.165171         3    ;  uncertainty k = 0.822975
         2         3         4         5     9      180.000000        0.987821         4    ;  uncertainty k = 0.358170
         2         3         4        15     9        0.000000        0.463445         1    ;  uncertainty k = 0.544884
         2         3         4        15     9      180.000000        7.807701         2    ;  uncertainty k = 0.817270
         2         3         4        15     9        0.000000        1.640989         3    ;  uncertainty k = 0.318182
         2         3         4        15     9      180.000000        0.389068         4    ;  uncertainty k = 0.234157
         2         3        16        17     9        0.000000        0.562638         1    ;  uncertainty k = 2.473037
         2         3        16        17     9      180.000000        4.453660         2    ;  uncertainty k = 1.236403
         2         3        16        17     9        0.000000       -0.243071         3    ;  uncertainty k = 0.584348
         2         3        16        17     9      180.000000        0.011309         4    ;  uncertainty k = 0.249195
         3         2         1         5     9        0.000000       -1.343735         1    ;  uncertainty k = 1.825069
         3         2         1         5     9      180.000000       12.410483         2    ;  uncertainty k = 0.765515
         3         2         1         5     9        0.000000       -3.924755         3    ;  uncertainty k = 1.286096
         3         2         1         5     9      180.000000        1.226932         4    ;  uncertainty k = 0.620813
         3         2         6         7     9        0.000000       -0.600971         1    ;  uncertainty k = 1.233380
         3         2         6         7     9      180.000000        2.750847         2    ;  uncertainty k = 0.470266
         3         2         6         7     9        0.000000        0.420307         3    ;  uncertainty k = 0.314900
         3         2         6         7     9      180.000000        0.072508         4    ;  uncertainty k = 0.103468
         3         2         6         8     9        0.000000       -0.600971         1    ;  uncertainty k = 1.233380
         3         2         6         8     9      180.000000        2.750847         2    ;  uncertainty k = 0.470266
         3         2         6         8     9        0.000000        0.420307         3    ;  uncertainty k = 0.314900
         3         2         6         8     9      180.000000        0.072508         4    ;  uncertainty k = 0.103468
         3         4         5         9     9        0.000000        0.194284         1    ;  uncertainty k = 0.219592
         3         4         5         9     9      180.000000       11.409582         2    ;  uncertainty k = 0.271107
         3         4         5         9     9        0.000000        1.980401         3    ;  uncertainty k = 0.456250
         3         4         5         9     9      180.000000        0.657823         4    ;  uncertainty k = 0.315054
         3        16        17        18     9        0.000000       -2.546996         1    ;  uncertainty k = 2.263476
         3        16        17        18     9      180.000000       -2.071281         2    ;  uncertainty k = 0.852216
         3        16        17        18     9        0.000000        0.377848         3    ;  uncertainty k = 0.447363
         3        16        17        18     9      180.000000        0.728091         4    ;  uncertainty k = 0.372243
         3        16        17        42     9        0.000000        1.943735         1    ;  uncertainty k = 0.725643
         3        16        17        42     9      180.000000       -1.013528         2    ;  uncertainty k = 0.770891
         3        16        17        42     9        0.000000        0.504468         3    ;  uncertainty k = 0.367188
         3        16        17        42     9      180.000000        0.022954         4    ;  uncertainty k = 0.163828
         3        16        17        43     9        0.000000        1.943735         1    ;  uncertainty k = 0.725643
         3        16        17        43     9      180.000000       -1.013528         2    ;  uncertainty k = 0.770891
         3        16        17        43     9        0.000000        0.504468         3    ;  uncertainty k = 0.367188
         3        16        17        43     9      180.000000        0.022954         4    ;  uncertainty k = 0.163828
         4         3         2         6     9        0.000000        0.750539         1    ;  uncertainty k = 1.420042
         4         3         2         6     9      180.000000        9.225337         2    ;  uncertainty k = 0.449657
         4         3         2         6     9        0.000000        2.146628         3    ;  uncertainty k = 0.096833
         4         3         2         6     9      180.000000        0.908103         4    ;  uncertainty k = 0.276689
         4         3        16        17     9        0.000000        4.003546         1    ;  uncertainty k = 2.209639
         4         3        16        17     9      180.000000        4.149396         2    ;  uncertainty k = 0.785914
         4         3        16        17     9        0.000000        0.594406         3    ;  uncertainty k = 0.772201
         4         3        16        17     9      180.000000       -0.129795         4    ;  uncertainty k = 0.090251
         4         5         9        10     9        0.000000        0.353515         1    ;  uncertainty k = 0.518464
         4         5         9        10     9      180.000000        2.904106         2    ;  uncertainty k = 0.313612
         4         5         9        10     9        0.000000        0.455749         3    ;  uncertainty k = 0.523304
         4         5         9        10     9      180.000000       -0.006953         4    ;  uncertainty k = 0.142758
         4         5         9        14     9        0.000000        0.468422         1    ;  uncertainty k = 0.543316
         4         5         9        14     9      180.000000        3.088237         2    ;  uncertainty k = 0.260629
         4         5         9        14     9        0.000000        0.475580         3    ;  uncertainty k = 0.388282
         4         5         9        14     9      180.000000       -0.025865         4    ;  uncertainty k = 0.122964
         5         1         2         6     9        0.000000        0.451497         1    ;  uncertainty k = 2.202869
         5         1         2         6     9      180.000000        8.209202         2    ;  uncertainty k = 0.569487
         5         1         2         6     9        0.000000        1.043882         3    ;  uncertainty k = 0.663821
         5         1         2         6     9      180.000000        0.550351         4    ;  uncertainty k = 0.309694
         5         4         3        16     9        0.000000        0.887263         1    ;  uncertainty k = 1.387606
         5         4         3        16     9      180.000000       11.850633         2    ;  uncertainty k = 0.768527
         5         4         3        16     9        0.000000        1.717065         3    ;  uncertainty k = 0.314044
         5         4         3        16     9      180.000000        0.438991         4    ;  uncertainty k = 0.459203
         5         9        10        11     9        0.000000        0.215494         1    ;  uncertainty k = 0.383663
         5         9        10        11     9      180.000000        8.822034         2    ;  uncertainty k = 0.578324
         5         9        10        11     9        0.000000        1.259536         3    ;  uncertainty k = 0.294337
         5         9        10        11     9      180.000000        1.579315         4    ;  uncertainty k = 0.186089
         5         9        10        38     9        0.000000       -0.118096         1    ;  uncertainty k = 0.464671
         5         9        10        38     9      180.000000        7.094356         2    ;  uncertainty k = 0.451824
         5         9        10        38     9        0.000000        0.693463         3    ;  uncertainty k = 0.250327
         5         9        10        38     9      180.000000        1.251162         4    ;  uncertainty k = 0.217118
         5         9        14        13     9        0.000000       -0.012159         1    ;  uncertainty k = 0.343542
         5         9        14        13     9      180.000000        9.008833         2    ;  uncertainty k = 0.493794
         5         9        14        13     9        0.000000        1.121536         3    ;  uncertainty k = 0.283096
         5         9        14        13     9      180.000000        1.726057         4    ;  uncertainty k = 0.162672
         5         9        14        41     9        0.000000       -0.167143         1    ;  uncertainty k = 0.574521
         5         9        14        41     9      180.000000        6.858649         2    ;  uncertainty k = 0.387138
         5         9        14        41     9        0.000000        0.754216         3    ;  uncertainty k = 0.222931
         5         9        14        41     9      180.000000        1.253932         4    ;  uncertainty k = 0.164620
         6         2         3        16     9        0.000000       -0.665249         1    ;  uncertainty k = 0.977507
         6         2         3        16     9      180.000000       11.691680         2    ;  uncertainty k = 0.581130
         6         2         3        16     9        0.000000        1.652052         3    ;  uncertainty k = 0.309495
         6         2         3        16     9      180.000000        0.410579         4    ;  uncertainty k = 0.549466
         9         5         4        15     9        0.000000        0.037386         1    ;  uncertainty k = 0.686408
         9         5         4        15     9      180.000000        8.650582         2    ;  uncertainty k = 0.563137
         9         5         4        15     9        0.000000        1.546341         3    ;  uncertainty k = 0.089957
         9         5         4        15     9      180.000000        0.838665         4    ;  uncertainty k = 0.167551
         9        10        11        12     9        0.000000       -0.074148         1    ;  uncertainty k = 0.332965
         9        10        11        12     9      180.000000        7.483719         2    ;  uncertainty k = 0.623420
         9        10        11        12     9        0.000000        0.428210         3    ;  uncertainty k = 0.279487
         9        10        11        12     9      180.000000        1.427985         4    ;  uncertainty k = 0.272185
         9        10        11        21     9        0.000000        0.207505         1    ;  uncertainty k = 0.774216
         9        10        11        21     9      180.000000        8.418789         2    ;  uncertainty k = 0.216020
         9        10        11        21     9        0.000000        0.945095         3    ;  uncertainty k = 0.203223
         9        10        11        21     9      180.000000        1.631448         4    ;  uncertainty k = 0.155889
         9        14        13        12     9        0.000000       -0.059272         1    ;  uncertainty k = 0.367616
         9        14        13        12     9      180.000000       14.573975         2    ;  uncertainty k = 0.295850
         9        14        13        12     9        0.000000       -1.019944         3    ;  uncertainty k = 0.445748
         9        14        13        12     9      180.000000        0.617677         4    ;  uncertainty k = 0.302018
         9        14        13        40     9        0.000000        0.069339         1    ;  uncertainty k = 0.069200
         9        14        13        40     9      180.000000        7.749906         2    ;  uncertainty k = 0.302242
         9        14        13        40     9        0.000000        1.324182         3    ;  uncertainty k = 0.264322
         9        14        13        40     9      180.000000        1.821714         4    ;  uncertainty k = 0.104858
        10         9        14        13     9        0.000000       -0.203690         1    ;  uncertainty k = 0.123253
        10         9        14        13     9      180.000000       11.480953         2    ;  uncertainty k = 0.260324
        10         9        14        13     9        0.000000       -0.404305         3    ;  uncertainty k = 0.248781
        10         9        14        13     9      180.000000        0.965820         4    ;  uncertainty k = 0.267591
        10         9        14        41     9        0.000000        0.150213         1    ;  uncertainty k = 0.316032
        10         9        14        41     9      180.000000        6.874749         2    ;  uncertainty k = 0.612333
        10         9        14        41     9        0.000000        1.482867         3    ;  uncertainty k = 0.213165
        10         9        14        41     9      180.000000        1.679697         4    ;  uncertainty k = 0.258977
        10        11        12        13     9        0.000000       -0.073712         1    ;  uncertainty k = 0.159132
        10        11        12        13     9      180.000000        7.945433         2    ;  uncertainty k = 0.728072
        10        11        12        13     9        0.000000        0.237869         3    ;  uncertainty k = 0.361995
        10        11        12        13     9      180.000000        1.328537         4    ;  uncertainty k = 0.358964
        10        11        12        39     9        0.000000        0.176090         1    ;  uncertainty k = 0.574540
        10        11        12        39     9      180.000000        5.845761         2    ;  uncertainty k = 0.726173
        10        11        12        39     9        0.000000        1.234507         3    ;  uncertainty k = 0.225381
        10        11        12        39     9      180.000000        1.458598         4    ;  uncertainty k = 0.177455
        10        11        21        22     9        0.000000        3.384366         1    ;  uncertainty k = 0.530089
        10        11        21        22     9      180.000000        6.460792         2    ;  uncertainty k = 0.153242
        10        11        21        22     9        0.000000        0.619464         3    ;  uncertainty k = 0.211579
        10        11        21        22     9      180.000000        0.000331         4    ;  uncertainty k = 0.096879
        10        11        21        44     9        0.000000        4.557200         1    ;  uncertainty k = 0.494329
        10        11        21        44     9      180.000000        6.372880         2    ;  uncertainty k = 0.392836
        10        11        21        44     9        0.000000        0.758624         3    ;  uncertainty k = 0.296327
        10        11        21        44     9      180.000000       -0.348227         4    ;  uncertainty k = 0.041135
        11        10         9        14     9        0.000000       -0.102423         1    ;  uncertainty k = 0.211277
        11        10         9        14     9      180.000000       11.067681         2    ;  uncertainty k = 0.309326
        11        10         9        14     9        0.000000       -0.235296         3    ;  uncertainty k = 0.258684
        11        10         9        14     9      180.000000        0.977510         4    ;  uncertainty k = 0.143871
        11        12        13        14     9        0.000000       -0.191175         1    ;  uncertainty k = 0.296372
        11        12        13        14     9      180.000000       14.192922         2    ;  uncertainty k = 0.193875
        11        12        13        14     9        0.000000       -0.988808         3    ;  uncertainty k = 0.358747
        11        12        13        14     9      180.000000        0.689347         4    ;  uncertainty k = 0.215409
        11        12        13        40     9        0.000000        0.008745         1    ;  uncertainty k = 0.271105
        11        12        13        40     9      180.000000        7.906785         2    ;  uncertainty k = 0.355014
        11        12        13        40     9        0.000000        1.181555         3    ;  uncertainty k = 0.304014
        11        12        13        40     9      180.000000        1.549599         4    ;  uncertainty k = 0.193568
        11        21        22        23     9        0.000000       -0.277193         1    ;  uncertainty k = 0.242795
        11        21        22        23     9      180.000000       -0.160612         2    ;  uncertainty k = 0.301049
        11        21        22        23     9        0.000000        0.860041         3    ;  uncertainty k = 0.088359
        11        21        22        23     9      180.000000        0.309882         4    ;  uncertainty k = 0.097552
        11        21        22        27     9        0.000000       -0.277193         1    ;  uncertainty k = 0.242795
        11        21        22        27     9      180.000000       -0.160612         2    ;  uncertainty k = 0.301049
        11        21        22        27     9        0.000000        0.860041         3    ;  uncertainty k = 0.088359
        11        21        22        27     9      180.000000        0.309882         4    ;  uncertainty k = 0.097552
        11        21        22        45     9        0.000000       -1.619691         1    ;  uncertainty k = 0.408978
        11        21        22        45     9      180.000000       -1.111115         2    ;  uncertainty k = 0.450739
        11        21        22        45     9        0.000000        0.908050         3    ;  uncertainty k = 0.141012
        11        21        22        45     9      180.000000        0.296216         4    ;  uncertainty k = 0.060925
        12        11        10        38     9        0.000000        0.231149         1    ;  uncertainty k = 0.394154
        12        11        10        38     9      180.000000        5.904814         2    ;  uncertainty k = 0.574407
        12        11        10        38     9        0.000000        1.304281         3    ;  uncertainty k = 0.238156
        12        11        10        38     9      180.000000        1.559688         4    ;  uncertainty k = 0.176136
        12        11        21        22     9        0.000000        3.529469         1    ;  uncertainty k = 0.406540
        12        11        21        22     9      180.000000        6.300627         2    ;  uncertainty k = 0.174227
        12        11        21        22     9        0.000000        0.644658         3    ;  uncertainty k = 0.126724
        12        11        21        22     9      180.000000        0.018042         4    ;  uncertainty k = 0.101649
        12        11        21        44     9        0.000000        4.567643         1    ;  uncertainty k = 0.339780
        12        11        21        44     9      180.000000        6.194534         2    ;  uncertainty k = 0.262213
        12        11        21        44     9        0.000000        0.836430         3    ;  uncertainty k = 0.198459
        12        11        21        44     9      180.000000       -0.344411         4    ;  uncertainty k = 0.056041
        12        13        14        41     9        0.000000        0.088368         1    ;  uncertainty k = 0.180682
        12        13        14        41     9      180.000000        7.766930         2    ;  uncertainty k = 0.210467
        12        13        14        41     9        0.000000        1.340742         3    ;  uncertainty k = 0.259609
        12        13        14        41     9      180.000000        1.860457         4    ;  uncertainty k = 0.145823
        13        12        11        21     9        0.000000        0.120920         1    ;  uncertainty k = 0.549044
        13        12        11        21     9      180.000000        8.442271         2    ;  uncertainty k = 0.265232
        13        12        11        21     9        0.000000        1.023839         3    ;  uncertainty k = 0.255340
        13        12        11        21     9      180.000000        1.595114         4    ;  uncertainty k = 0.100329
        14         9        10        38     9        0.000000        0.230556         1    ;  uncertainty k = 0.246255
        14         9        10        38     9      180.000000        7.165952         2    ;  uncertainty k = 0.381940
        14         9        10        38     9        0.000000        1.531849         3    ;  uncertainty k = 0.214497
        14         9        10        38     9      180.000000        1.622865         4    ;  uncertainty k = 0.218540
        14        13        12        39     9        0.000000        0.141650         1    ;  uncertainty k = 0.102849
        14        13        12        39     9      180.000000        8.103568         2    ;  uncertainty k = 0.348066
        14        13        12        39     9        0.000000        1.502037         3    ;  uncertainty k = 0.296762
        14        13        12        39     9      180.000000        1.786260         4    ;  uncertainty k = 0.120930
        15         4         3        16     9        0.000000       -0.300934         1    ;  uncertainty k = 0.650861
        15         4         3        16     9      180.000000        9.165092         2    ;  uncertainty k = 0.275746
        15         4         3        16     9        0.000000        1.456381         3    ;  uncertainty k = 0.310393
        15         4         3        16     9      180.000000        0.631618         4    ;  uncertainty k = 0.388932
        16        17        18        19     9        0.000000        1.079222         1    ;  uncertainty k = 0.841475
        16        17        18        19     9      180.000000        5.864588         2    ;  uncertainty k = 0.515928
        16        17        18        19     9        0.000000        1.140649         3    ;  uncertainty k = 0.463168
        16        17        18        19     9      180.000000        0.279519         4    ;  uncertainty k = 0.238932
        16        17        18        20     9        0.000000        1.079222         1    ;  uncertainty k = 0.841475
        16        17        18        20     9      180.000000        5.864588         2    ;  uncertainty k = 0.515928
        16        17        18        20     9        0.000000        1.140649         3    ;  uncertainty k = 0.463168
        16        17        18        20     9      180.000000        0.279519         4    ;  uncertainty k = 0.238932
        19        18        17        42     9        0.000000       -2.498422         1    ;  uncertainty k = 1.124580
        19        18        17        42     9      180.000000        1.806048         2    ;  uncertainty k = 0.648461
        19        18        17        42     9        0.000000        0.840718         3    ;  uncertainty k = 0.199496
        19        18        17        42     9      180.000000        0.238884         4    ;  uncertainty k = 0.091169
        19        18        17        43     9        0.000000       -2.498422         1    ;  uncertainty k = 1.124580
        19        18        17        43     9      180.000000        1.806048         2    ;  uncertainty k = 0.648461
        19        18        17        43     9        0.000000        0.840718         3    ;  uncertainty k = 0.199496
        19        18        17        43     9      180.000000        0.238884         4    ;  uncertainty k = 0.091169
        20        18        17        42     9        0.000000       -2.498422         1    ;  uncertainty k = 1.124580
        20        18        17        42     9      180.000000        1.806048         2    ;  uncertainty k = 0.648461
        20        18        17        42     9        0.000000        0.840718         3    ;  uncertainty k = 0.199496
        20        18        17        42     9      180.000000        0.238884         4    ;  uncertainty k = 0.091169
        20        18        17        43     9        0.000000       -2.498422         1    ;  uncertainty k = 1.124580
        20        18        17        43     9      180.000000        1.806048         2    ;  uncertainty k = 0.648461
        20        18        17        43     9        0.000000        0.840718         3    ;  uncertainty k = 0.199496
        20        18        17        43     9      180.000000        0.238884         4    ;  uncertainty k = 0.091169
        21        11        10        38     9        0.000000       -0.341765         1    ;  uncertainty k = 0.178279
        21        11        10        38     9      180.000000        7.315110         2    ;  uncertainty k = 0.470144
        21        11        10        38     9        0.000000        0.901262         3    ;  uncertainty k = 0.203045
        21        11        10        38     9      180.000000        1.103426         4    ;  uncertainty k = 0.208578
        21        11        12        39     9        0.000000       -0.208112         1    ;  uncertainty k = 0.295706
        21        11        12        39     9      180.000000        7.253053         2    ;  uncertainty k = 0.347875
        21        11        12        39     9        0.000000        0.951981         3    ;  uncertainty k = 0.279935
        21        11        12        39     9      180.000000        1.062878         4    ;  uncertainty k = 0.186193
        21        22        23        24     9        0.000000       -5.136098         1    ;  uncertainty k = 1.043848
        21        22        23        24     9      180.000000       -0.051193         2    ;  uncertainty k = 0.439582
        21        22        23        24     9        0.000000        1.238893         3    ;  uncertainty k = 0.245171
        21        22        23        24     9      180.000000       -0.144028         4    ;  uncertainty k = 0.066282
        21        22        23        46     9        0.000000       -0.535460         1    ;  uncertainty k = 0.150632
        21        22        23        46     9      180.000000       -0.364854         2    ;  uncertainty k = 0.186150
        21        22        23        46     9        0.000000        1.179605         3    ;  uncertainty k = 0.213686
        21        22        23        46     9      180.000000       -0.153264         4    ;  uncertainty k = 0.061851
        21        22        23        47     9        0.000000       -0.535460         1    ;  uncertainty k = 0.150632
        21        22        23        47     9      180.000000       -0.364854         2    ;  uncertainty k = 0.186150
        21        22        23        47     9        0.000000        1.179605         3    ;  uncertainty k = 0.213686
        21        22        23        47     9      180.000000       -0.153264         4    ;  uncertainty k = 0.061851
        21        22        27        26     9        0.000000       -5.136098         1    ;  uncertainty k = 1.043848
        21        22        27        26     9      180.000000       -0.051193         2    ;  uncertainty k = 0.439582
        21        22        27        26     9        0.000000        1.238893         3    ;  uncertainty k = 0.245171
        21        22        27        26     9      180.000000       -0.144028         4    ;  uncertainty k = 0.066282
        21        22        27        52     9        0.000000       -0.535460         1    ;  uncertainty k = 0.150632
        21        22        27        52     9      180.000000       -0.364854         2    ;  uncertainty k = 0.186150
        21        22        27        52     9        0.000000        1.179605         3    ;  uncertainty k = 0.213686
        21        22        27        52     9      180.000000       -0.153264         4    ;  uncertainty k = 0.061851
        21        22        27        53     9        0.000000       -0.535460         1    ;  uncertainty k = 0.150632
        21        22        27        53     9      180.000000       -0.364854         2    ;  uncertainty k = 0.186150
        21        22        27        53     9        0.000000        1.179605         3    ;  uncertainty k = 0.213686
        21        22        27        53     9      180.000000       -0.153264         4    ;  uncertainty k = 0.061851
        22        23        24        25     9        0.000000       -0.148847         1    ;  uncertainty k = 0.397834
        22        23        24        25     9      180.000000       -4.571385         2    ;  uncertainty k = 1.019097
        22        23        24        25     9        0.000000        2.114453         3    ;  uncertainty k = 0.368217
        22        23        24        25     9      180.000000       -0.488533         4    ;  uncertainty k = 0.117256
        22        23        24        48     9        0.000000        2.785845         1    ;  uncertainty k = 0.530042
        22        23        24        48     9      180.000000       -2.330233         2    ;  uncertainty k = 0.276082
        22        23        24        48     9        0.000000       -0.079434         3    ;  uncertainty k = 0.175618
        22        23        24        48     9      180.000000        0.352534         4    ;  uncertainty k = 0.135804
        22        23        24        49     9        0.000000        2.785845         1    ;  uncertainty k = 0.530042
        22        23        24        49     9      180.000000       -2.330233         2    ;  uncertainty k = 0.276082
        22        23        24        49     9        0.000000       -0.079434         3    ;  uncertainty k = 0.175618
        22        23        24        49     9      180.000000        0.352534         4    ;  uncertainty k = 0.135804
        22        27        26        25     9        0.000000       -0.148847         1    ;  uncertainty k = 0.397834
        22        27        26        25     9      180.000000       -4.571385         2    ;  uncertainty k = 1.019097
        22        27        26        25     9        0.000000        2.114453         3    ;  uncertainty k = 0.368217
        22        27        26        25     9      180.000000       -0.488533         4    ;  uncertainty k = 0.117256
        22        27        26        50     9        0.000000        2.785845         1    ;  uncertainty k = 0.530042
        22        27        26        50     9      180.000000       -2.330233         2    ;  uncertainty k = 0.276082
        22        27        26        50     9        0.000000       -0.079434         3    ;  uncertainty k = 0.175618
        22        27        26        50     9      180.000000        0.352534         4    ;  uncertainty k = 0.135804
        22        27        26        51     9        0.000000        2.785845         1    ;  uncertainty k = 0.530042
        22        27        26        51     9      180.000000       -2.330233         2    ;  uncertainty k = 0.276082
        22        27        26        51     9        0.000000       -0.079434         3    ;  uncertainty k = 0.175618
        22        27        26        51     9      180.000000        0.352534         4    ;  uncertainty k = 0.135804
        23        22        21        44     9        0.000000        2.841835         1    ;  uncertainty k = 0.368019
        23        22        21        44     9      180.000000       -1.817583         2    ;  uncertainty k = 0.255149
        23        22        21        44     9        0.000000        0.197702         3    ;  uncertainty k = 0.122169
        23        22        21        44     9      180.000000        0.111128         4    ;  uncertainty k = 0.094779
        23        22        27        26     9        0.000000       -7.398289         1    ;  uncertainty k = 1.114205
        23        22        27        26     9      180.000000        0.772994         2    ;  uncertainty k = 0.787748
        23        22        27        26     9        0.000000        1.284273         3    ;  uncertainty k = 0.148211
        23        22        27        26     9      180.000000       -1.372294         4    ;  uncertainty k = 0.205237
        23        22        27        52     9        0.000000       -1.844686         1    ;  uncertainty k = 0.323911
        23        22        27        52     9      180.000000       -0.032260         2    ;  uncertainty k = 0.103578
        23        22        27        52     9        0.000000        0.269779         3    ;  uncertainty k = 0.112380
        23        22        27        52     9      180.000000       -0.144836         4    ;  uncertainty k = 0.053686
        23        22        27        53     9        0.000000       -1.844686         1    ;  uncertainty k = 0.323911
        23        22        27        53     9      180.000000       -0.032260         2    ;  uncertainty k = 0.103578
        23        22        27        53     9        0.000000        0.269779         3    ;  uncertainty k = 0.112380
        23        22        27        53     9      180.000000       -0.144836         4    ;  uncertainty k = 0.053686
        23        24        25        26     9        0.000000       -4.088458         1    ;  uncertainty k = 1.867282
        23        24        25        26     9      180.000000        0.889714         2    ;  uncertainty k = 0.667890
        23        24        25        26     9        0.000000        0.584557         3    ;  uncertainty k = 0.291659
        23        24        25        26     9      180.000000       -0.636593         4    ;  uncertainty k = 0.223033
        23        24        25        28     9        0.000000       -7.348500         1    ;  uncertainty k = 0.834720
        23        24        25        28     9      180.000000       -1.724542         2    ;  uncertainty k = 0.551083
        23        24        25        28     9        0.000000       -0.216030         3    ;  uncertainty k = 0.339972
        23        24        25        28     9      180.000000       -0.827606         4    ;  uncertainty k = 0.173862
        24        23        22        27     9        0.000000       -7.398289         1    ;  uncertainty k = 1.114205
        24        23        22        27     9      180.000000        0.772994         2    ;  uncertainty k = 0.787748
        24        23        22        27     9        0.000000        1.284273         3    ;  uncertainty k = 0.148211
        24        23        22        27     9      180.000000       -1.372294         4    ;  uncertainty k = 0.205237
        24        23        22        45     9        0.000000       -1.489834         1    ;  uncertainty k = 0.498262
        24        23        22        45     9      180.000000       -0.726861         2    ;  uncertainty k = 0.320028
        24        23        22        45     9        0.000000        0.084383         3    ;  uncertainty k = 0.138187
        24        23        22        45     9      180.000000       -0.160514         4    ;  uncertainty k = 0.093764
        24        25        26        27     9        0.000000       -4.088458         1    ;  uncertainty k = 1.867282
        24        25        26        27     9      180.000000        0.889714         2    ;  uncertainty k = 0.667890
        24        25        26        27     9        0.000000        0.584557         3    ;  uncertainty k = 0.291659
        24        25        26        27     9      180.000000       -0.636593         4    ;  uncertainty k = 0.223033
        24        25        26        50     9        0.000000       -6.211466         1    ;  uncertainty k = 0.401821
        24        25        26        50     9      180.000000        0.273829         2    ;  uncertainty k = 0.303792
        24        25        26        50     9        0.000000        0.752021         3    ;  uncertainty k = 0.192836
        24        25        26        50     9      180.000000       -0.002512         4    ;  uncertainty k = 0.021259
        24        25        26        51     9        0.000000       -6.211466         1    ;  uncertainty k = 0.401821
        24        25        26        51     9      180.000000        0.273829         2    ;  uncertainty k = 0.303792
        24        25        26        51     9        0.000000        0.752021         3    ;  uncertainty k = 0.192836
        24        25        26        51     9      180.000000       -0.002512         4    ;  uncertainty k = 0.021259
        24        25        28        29     9        0.000000        1.270237         1    ;  uncertainty k = 0.500475
        24        25        28        29     9      180.000000        2.505361         2    ;  uncertainty k = 0.401482
        24        25        28        29     9        0.000000        0.779609         3    ;  uncertainty k = 0.159997
        24        25        28        29     9      180.000000       -0.308889         4    ;  uncertainty k = 0.140057
        24        25        28        30     9        0.000000        1.270237         1    ;  uncertainty k = 0.500475
        24        25        28        30     9      180.000000        2.505361         2    ;  uncertainty k = 0.401482
        24        25        28        30     9        0.000000        0.779609         3    ;  uncertainty k = 0.159997
        24        25        28        30     9      180.000000       -0.308889         4    ;  uncertainty k = 0.140057
        24        25        28        31     9        0.000000       -7.549010         1    ;  uncertainty k = 0.541322
        24        25        28        31     9      180.000000       -2.996510         2    ;  uncertainty k = 0.664699
        24        25        28        31     9        0.000000       -0.101282         3    ;  uncertainty k = 0.314563
        24        25        28        31     9      180.000000       -0.343229         4    ;  uncertainty k = 0.158947
        25        24        23        46     9        0.000000       -0.852861         1    ;  uncertainty k = 0.235199
        25        24        23        46     9      180.000000       -0.179849         2    ;  uncertainty k = 0.440860
        25        24        23        46     9        0.000000        0.882203         3    ;  uncertainty k = 0.149383
        25        24        23        46     9      180.000000       -0.285173         4    ;  uncertainty k = 0.185067
        25        24        23        47     9        0.000000       -0.852861         1    ;  uncertainty k = 0.235199
        25        24        23        47     9      180.000000       -0.179849         2    ;  uncertainty k = 0.440860
        25        24        23        47     9        0.000000        0.882203         3    ;  uncertainty k = 0.149383
        25        24        23        47     9      180.000000       -0.285173         4    ;  uncertainty k = 0.185067
        25        26        27        52     9        0.000000       -0.852861         1    ;  uncertainty k = 0.235199
        25        26        27        52     9      180.000000       -0.179849         2    ;  uncertainty k = 0.440860
        25        26        27        52     9        0.000000        0.882203         3    ;  uncertainty k = 0.149383
        25        26        27        52     9      180.000000       -0.285173         4    ;  uncertainty k = 0.185067
        25        26        27        53     9        0.000000       -0.852861         1    ;  uncertainty k = 0.235199
        25        26        27        53     9      180.000000       -0.179849         2    ;  uncertainty k = 0.440860
        25        26        27        53     9        0.000000        0.882203         3    ;  uncertainty k = 0.149383
        25        26        27        53     9      180.000000       -0.285173         4    ;  uncertainty k = 0.185067
        25        28        31        32     9        0.000000       -2.103207         1    ;  uncertainty k = 0.645315
        25        28        31        32     9      180.000000        0.538217         2    ;  uncertainty k = 0.647124
        25        28        31        32     9        0.000000        0.746804         3    ;  uncertainty k = 0.323280
        25        28        31        32     9      180.000000       -0.042398         4    ;  uncertainty k = 0.164024
        25        28        31        54     9        0.000000        1.729671         1    ;  uncertainty k = 0.676531
        25        28        31        54     9      180.000000       -1.483246         2    ;  uncertainty k = 0.373232
        25        28        31        54     9        0.000000        0.248175         3    ;  uncertainty k = 0.195062
        25        28        31        54     9      180.000000        0.016534         4    ;  uncertainty k = 0.061632
        25        28        31        55     9        0.000000        1.729671         1    ;  uncertainty k = 0.676531
        25        28        31        55     9      180.000000       -1.483246         2    ;  uncertainty k = 0.373232
        25        28        31        55     9        0.000000        0.248175         3    ;  uncertainty k = 0.195062
        25        28        31        55     9      180.000000        0.016534         4    ;  uncertainty k = 0.061632
        26        25        24        48     9        0.000000       -6.211466         1    ;  uncertainty k = 0.401821
        26        25        24        48     9      180.000000        0.273829         2    ;  uncertainty k = 0.303792
        26        25        24        48     9        0.000000        0.752021         3    ;  uncertainty k = 0.192836
        26        25        24        48     9      180.000000       -0.002512         4    ;  uncertainty k = 0.021259
        26        25        24        49     9        0.000000       -6.211466         1    ;  uncertainty k = 0.401821
        26        25        24        49     9      180.000000        0.273829         2    ;  uncertainty k = 0.303792
        26        25        24        49     9        0.000000        0.752021         3    ;  uncertainty k = 0.192836
        26        25        24        49     9      180.000000       -0.002512         4    ;  uncertainty k = 0.021259
        26        25        28        29     9        0.000000        1.270237         1    ;  uncertainty k = 0.500475
        26        25        28        29     9      180.000000        2.505361         2    ;  uncertainty k = 0.401482
        26        25        28        29     9        0.000000        0.779609         3    ;  uncertainty k = 0.159997
        26        25        28        29     9      180.000000       -0.308889         4    ;  uncertainty k = 0.140057
        26        25        28        30     9        0.000000        1.270237         1    ;  uncertainty k = 0.500475
        26        25        28        30     9      180.000000        2.505361         2    ;  uncertainty k = 0.401482
        26        25        28        30     9        0.000000        0.779609         3    ;  uncertainty k = 0.159997
        26        25        28        30     9      180.000000       -0.308889         4    ;  uncertainty k = 0.140057
        26        25        28        31     9        0.000000       -7.549010         1    ;  uncertainty k = 0.541322
        26        25        28        31     9      180.000000       -2.996510         2    ;  uncertainty k = 0.664699
        26        25        28        31     9        0.000000       -0.101282         3    ;  uncertainty k = 0.314563
        26        25        28        31     9      180.000000       -0.343229         4    ;  uncertainty k = 0.158947
        26        27        22        45     9        0.000000       -1.489834         1    ;  uncertainty k = 0.498262
        26        27        22        45     9      180.000000       -0.726861         2    ;  uncertainty k = 0.320028
        26        27        22        45     9        0.000000        0.084383         3    ;  uncertainty k = 0.138187
        26        27        22        45     9      180.000000       -0.160514         4    ;  uncertainty k = 0.093764
        27        22        21        44     9        0.000000        2.841835         1    ;  uncertainty k = 0.368019
        27        22        21        44     9      180.000000       -1.817583         2    ;  uncertainty k = 0.255149
        27        22        21        44     9        0.000000        0.197702         3    ;  uncertainty k = 0.122169
        27        22        21        44     9      180.000000        0.111128         4    ;  uncertainty k = 0.094779
        27        22        23        46     9        0.000000       -1.844686         1    ;  uncertainty k = 0.323911
        27        22        23        46     9      180.000000       -0.032260         2    ;  uncertainty k = 0.103578
        27        22        23        46     9        0.000000        0.269779         3    ;  uncertainty k = 0.112380
        27        22        23        46     9      180.000000       -0.144836         4    ;  uncertainty k = 0.053686
        27        22        23        47     9        0.000000       -1.844686         1    ;  uncertainty k = 0.323911
        27        22        23        47     9      180.000000       -0.032260         2    ;  uncertainty k = 0.103578
        27        22        23        47     9        0.000000        0.269779         3    ;  uncertainty k = 0.112380
        27        22        23        47     9      180.000000       -0.144836         4    ;  uncertainty k = 0.053686
        27        26        25        28     9        0.000000       -7.348500         1    ;  uncertainty k = 0.834720
        27        26        25        28     9      180.000000       -1.724542         2    ;  uncertainty k = 0.551083
        27        26        25        28     9        0.000000       -0.216030         3    ;  uncertainty k = 0.339972
        27        26        25        28     9      180.000000       -0.827606         4    ;  uncertainty k = 0.173862
        28        25        24        48     9        0.000000        0.216597         1    ;  uncertainty k = 0.387098
        28        25        24        48     9      180.000000       -3.233432         2    ;  uncertainty k = 0.278301
        28        25        24        48     9        0.000000       -0.390106         3    ;  uncertainty k = 0.180329
        28        25        24        48     9      180.000000        0.207073         4    ;  uncertainty k = 0.075818
        28        25        24        49     9        0.000000        0.216597         1    ;  uncertainty k = 0.387098
        28        25        24        49     9      180.000000       -3.233432         2    ;  uncertainty k = 0.278301
        28        25        24        49     9        0.000000       -0.390106         3    ;  uncertainty k = 0.180329
        28        25        24        49     9      180.000000        0.207073         4    ;  uncertainty k = 0.075818
        28        25        26        50     9        0.000000        0.216597         1    ;  uncertainty k = 0.387098
        28        25        26        50     9      180.000000       -3.233432         2    ;  uncertainty k = 0.278301
        28        25        26        50     9        0.000000       -0.390106         3    ;  uncertainty k = 0.180329
        28        25        26        50     9      180.000000        0.207073         4    ;  uncertainty k = 0.075818
        28        25        26        51     9        0.000000        0.216597         1    ;  uncertainty k = 0.387098
        28        25        26        51     9      180.000000       -3.233432         2    ;  uncertainty k = 0.278301
        28        25        26        51     9        0.000000       -0.390106         3    ;  uncertainty k = 0.180329
        28        25        26        51     9      180.000000        0.207073         4    ;  uncertainty k = 0.075818
        28        31        32        33     9        0.000000       -0.508671         1    ;  uncertainty k = 0.400327
        28        31        32        33     9      180.000000        0.109861         2    ;  uncertainty k = 0.292575
        28        31        32        33     9        0.000000        0.489267         3    ;  uncertainty k = 0.148326
        28        31        32        33     9      180.000000        0.136143         4    ;  uncertainty k = 0.161357
        28        31        32        37     9        0.000000       -0.508671         1    ;  uncertainty k = 0.400327
        28        31        32        37     9      180.000000        0.109861         2    ;  uncertainty k = 0.292575
        28        31        32        37     9        0.000000        0.489267         3    ;  uncertainty k = 0.148326
        28        31        32        37     9      180.000000        0.136143         4    ;  uncertainty k = 0.161357
        29        28        31        32     9        0.000000       -3.517773         1    ;  uncertainty k = 0.508402
        29        28        31        32     9      180.000000        1.057358         2    ;  uncertainty k = 0.169990
        29        28        31        32     9        0.000000        0.875046         3    ;  uncertainty k = 0.164735
        29        28        31        32     9      180.000000       -0.037433         4    ;  uncertainty k = 0.176839
        29        28        31        54     9        0.000000        0.274046         1    ;  uncertainty k = 0.457905
        29        28        31        54     9      180.000000       -0.270909         2    ;  uncertainty k = 0.108223
        29        28        31        54     9        0.000000        0.500037         3    ;  uncertainty k = 0.075726
        29        28        31        54     9      180.000000        0.120953         4    ;  uncertainty k = 0.061549
        29        28        31        55     9        0.000000        0.274046         1    ;  uncertainty k = 0.457905
        29        28        31        55     9      180.000000       -0.270909         2    ;  uncertainty k = 0.108223
        29        28        31        55     9        0.000000        0.500037         3    ;  uncertainty k = 0.075726
        29        28        31        55     9      180.000000        0.120953         4    ;  uncertainty k = 0.061549
        30        28        31        32     9        0.000000       -3.517773         1    ;  uncertainty k = 0.508402
        30        28        31        32     9      180.000000        1.057358         2    ;  uncertainty k = 0.169990
        30        28        31        32     9        0.000000        0.875046         3    ;  uncertainty k = 0.164735
        30        28        31        32     9      180.000000       -0.037433         4    ;  uncertainty k = 0.176839
        30        28        31        54     9        0.000000        0.274046         1    ;  uncertainty k = 0.457905
        30        28        31        54     9      180.000000       -0.270909         2    ;  uncertainty k = 0.108223
        30        28        31        54     9        0.000000        0.500037         3    ;  uncertainty k = 0.075726
        30        28        31        54     9      180.000000        0.120953         4    ;  uncertainty k = 0.061549
        30        28        31        55     9        0.000000        0.274046         1    ;  uncertainty k = 0.457905
        30        28        31        55     9      180.000000       -0.270909         2    ;  uncertainty k = 0.108223
        30        28        31        55     9        0.000000        0.500037         3    ;  uncertainty k = 0.075726
        30        28        31        55     9      180.000000        0.120953         4    ;  uncertainty k = 0.061549
        31        32        33        34     9        0.000000        0.029691         1    ;  uncertainty k = 0.134748
        31        32        33        34     9      180.000000        9.540094         2    ;  uncertainty k = 0.393169
        31        32        33        34     9        0.000000        1.316637         3    ;  uncertainty k = 0.160709
        31        32        33        34     9      180.000000        1.781504         4    ;  uncertainty k = 0.172287
        31        32        33        56     9        0.000000       -0.192139         1    ;  uncertainty k = 0.488988
        31        32        33        56     9      180.000000        7.818156         2    ;  uncertainty k = 0.131520
        31        32        33        56     9        0.000000        0.488756         3    ;  uncertainty k = 0.323898
        31        32        33        56     9      180.000000        0.963453         4    ;  uncertainty k = 0.223176
        31        32        37        36     9        0.000000        0.029691         1    ;  uncertainty k = 0.134748
        31        32        37        36     9      180.000000        9.540094         2    ;  uncertainty k = 0.393169
        31        32        37        36     9        0.000000        1.316637         3    ;  uncertainty k = 0.160709
        31        32        37        36     9      180.000000        1.781504         4    ;  uncertainty k = 0.172287
        31        32        37        60     9        0.000000       -0.192139         1    ;  uncertainty k = 0.488988
        31        32        37        60     9      180.000000        7.818156         2    ;  uncertainty k = 0.131520
        31        32        37        60     9        0.000000        0.488756         3    ;  uncertainty k = 0.323898
        31        32        37        60     9      180.000000        0.963453         4    ;  uncertainty k = 0.223176
        32        33        34        35     9        0.000000       -0.141405         1    ;  uncertainty k = 0.080074
        32        33        34        35     9      180.000000       14.211439         2    ;  uncertainty k = 0.296513
        32        33        34        35     9        0.000000       -0.909381         3    ;  uncertainty k = 0.407921
        32        33        34        35     9      180.000000        0.696824         4    ;  uncertainty k = 0.203750
        32        33        34        57     9        0.000000        0.040951         1    ;  uncertainty k = 0.256241
        32        33        34        57     9      180.000000        7.906327         2    ;  uncertainty k = 0.275548
        32        33        34        57     9        0.000000        1.455980         3    ;  uncertainty k = 0.278750
        32        33        34        57     9      180.000000        1.767703         4    ;  uncertainty k = 0.078271
        32        37        36        35     9        0.000000       -0.141405         1    ;  uncertainty k = 0.080074
        32        37        36        35     9      180.000000       14.211439         2    ;  uncertainty k = 0.296513
        32        37        36        35     9        0.000000       -0.909381         3    ;  uncertainty k = 0.407921
        32        37        36        35     9      180.000000        0.696824         4    ;  uncertainty k = 0.203750
        32        37        36        59     9        0.000000        0.040951         1    ;  uncertainty k = 0.256241
        32        37        36        59     9      180.000000        7.906327         2    ;  uncertainty k = 0.275548
        32        37        36        59     9        0.000000        1.455980         3    ;  uncertainty k = 0.278750
        32        37        36        59     9      180.000000        1.767703         4    ;  uncertainty k = 0.078271
        33        32        31        54     9        0.000000       -0.670198         1    ;  uncertainty k = 0.310313
        33        32        31        54     9      180.000000        2.335620         2    ;  uncertainty k = 0.290355
        33        32        31        54     9        0.000000        0.573185         3    ;  uncertainty k = 0.091459
        33        32        31        54     9      180.000000        0.141123         4    ;  uncertainty k = 0.051500
        33        32        31        55     9        0.000000       -0.670198         1    ;  uncertainty k = 0.310313
        33        32        31        55     9      180.000000        2.335620         2    ;  uncertainty k = 0.290355
        33        32        31        55     9        0.000000        0.573185         3    ;  uncertainty k = 0.091459
        33        32        31        55     9      180.000000        0.141123         4    ;  uncertainty k = 0.051500
        33        32        37        36     9        0.000000       -0.274200         1    ;  uncertainty k = 0.155012
        33        32        37        36     9      180.000000       12.419941         2    ;  uncertainty k = 0.367621
        33        32        37        36     9        0.000000       -0.613983         3    ;  uncertainty k = 0.363169
        33        32        37        36     9      180.000000        0.748134         4    ;  uncertainty k = 0.335220
        33        32        37        60     9        0.000000        0.235684         1    ;  uncertainty k = 0.179119
        33        32        37        60     9      180.000000        7.335105         2    ;  uncertainty k = 0.512439
        33        32        37        60     9        0.000000        1.444830         3    ;  uncertainty k = 0.318985
        33        32        37        60     9      180.000000        1.632138         4    ;  uncertainty k = 0.184799
        33        34        35        36     9        0.000000       -0.024061         1    ;  uncertainty k = 0.037887
        33        34        35        36     9      180.000000       15.000372         2    ;  uncertainty k = 0.295768
        33        34        35        36     9        0.000000       -1.149710         3    ;  uncertainty k = 0.449579
        33        34        35        36     9      180.000000        0.517636         4    ;  uncertainty k = 0.267684
        33        34        35        58     9        0.000000        0.006545         1    ;  uncertainty k = 0.122113
        33        34        35        58     9      180.000000        7.490839         2    ;  uncertainty k = 0.284308
        33        34        35        58     9        0.000000        1.487446         3    ;  uncertainty k = 0.291683
        33        34        35        58     9      180.000000        1.788809         4    ;  uncertainty k = 0.187633
        34        33        32        37     9        0.000000       -0.274200         1    ;  uncertainty k = 0.155012
        34        33        32        37     9      180.000000       12.419941         2    ;  uncertainty k = 0.367621
        34        33        32        37     9        0.000000       -0.613983         3    ;  uncertainty k = 0.363169
        34        33        32        37     9      180.000000        0.748134         4    ;  uncertainty k = 0.335220
        34        35        36        37     9        0.000000       -0.024061         1    ;  uncertainty k = 0.037887
        34        35        36        37     9      180.000000       15.000372         2    ;  uncertainty k = 0.295768
        34        35        36        37     9        0.000000       -1.149710         3    ;  uncertainty k = 0.449579
        34        35        36        37     9      180.000000        0.517636         4    ;  uncertainty k = 0.267684
        34        35        36        59     9        0.000000        0.055135         1    ;  uncertainty k = 0.036562
        34        35        36        59     9      180.000000        7.569523         2    ;  uncertainty k = 0.317634
        34        35        36        59     9        0.000000        1.452465         3    ;  uncertainty k = 0.319971
        34        35        36        59     9      180.000000        1.800290         4    ;  uncertainty k = 0.152963
        35        34        33        56     9        0.000000        0.056452         1    ;  uncertainty k = 0.065580
        35        34        33        56     9      180.000000        7.913053         2    ;  uncertainty k = 0.295561
        35        34        33        56     9        0.000000        1.417120         3    ;  uncertainty k = 0.293002
        35        34        33        56     9      180.000000        1.854041         4    ;  uncertainty k = 0.169678
        35        36        37        60     9        0.000000        0.056452         1    ;  uncertainty k = 0.065580
        35        36        37        60     9      180.000000        7.913053         2    ;  uncertainty k = 0.295561
        35        36        37        60     9        0.000000        1.417120         3    ;  uncertainty k = 0.293002
        35        36        37        60     9      180.000000        1.854041         4    ;  uncertainty k = 0.169678
        36        35        34        57     9        0.000000        0.055135         1    ;  uncertainty k = 0.036562
        36        35        34        57     9      180.000000        7.569523         2    ;  uncertainty k = 0.317634
        36        35        34        57     9        0.000000        1.452465         3    ;  uncertainty k = 0.319971
        36        35        34        57     9      180.000000        1.800290         4    ;  uncertainty k = 0.152963
        37        32        31        54     9        0.000000       -0.670198         1    ;  uncertainty k = 0.310313
        37        32        31        54     9      180.000000        2.335620         2    ;  uncertainty k = 0.290355
        37        32        31        54     9        0.000000        0.573185         3    ;  uncertainty k = 0.091459
        37        32        31        54     9      180.000000        0.141123         4    ;  uncertainty k = 0.051500
        37        32        31        55     9        0.000000       -0.670198         1    ;  uncertainty k = 0.310313
        37        32        31        55     9      180.000000        2.335620         2    ;  uncertainty k = 0.290355
        37        32        31        55     9        0.000000        0.573185         3    ;  uncertainty k = 0.091459
        37        32        31        55     9      180.000000        0.141123         4    ;  uncertainty k = 0.051500
        37        32        33        56     9        0.000000        0.235684         1    ;  uncertainty k = 0.179119
        37        32        33        56     9      180.000000        7.335105         2    ;  uncertainty k = 0.512439
        37        32        33        56     9        0.000000        1.444830         3    ;  uncertainty k = 0.318985
        37        32        33        56     9      180.000000        1.632138         4    ;  uncertainty k = 0.184799
        37        36        35        58     9        0.000000        0.006545         1    ;  uncertainty k = 0.122113
        37        36        35        58     9      180.000000        7.490839         2    ;  uncertainty k = 0.284308
        37        36        35        58     9        0.000000        1.487446         3    ;  uncertainty k = 0.291683
        37        36        35        58     9      180.000000        1.788809         4    ;  uncertainty k = 0.187633
        39        12        13        40     9        0.000000       -0.030964         1    ;  uncertainty k = 0.241397
        39        12        13        40     9      180.000000        7.640900         2    ;  uncertainty k = 0.355361
        39        12        13        40     9        0.000000       -0.381487         3    ;  uncertainty k = 0.259502
        39        12        13        40     9      180.000000        0.184223         4    ;  uncertainty k = 0.153158
        40        13        14        41     9        0.000000       -0.050526         1    ;  uncertainty k = 0.285711
        40        13        14        41     9      180.000000        7.657891         2    ;  uncertainty k = 0.366062
        40        13        14        41     9        0.000000       -0.453043         3    ;  uncertainty k = 0.297900
        40        13        14        41     9      180.000000        0.118834         4    ;  uncertainty k = 0.128780
        44        21        22        45     9        0.000000        1.900511         1    ;  uncertainty k = 0.549901
        44        21        22        45     9      180.000000       -3.254433         2    ;  uncertainty k = 0.371707
        44        21        22        45     9        0.000000       -0.041544         3    ;  uncertainty k = 0.134753
        44        21        22        45     9      180.000000        0.164363         4    ;  uncertainty k = 0.065312
        45        22        23        46     9        0.000000        1.424511         1    ;  uncertainty k = 0.552611
        45        22        23        46     9      180.000000       -0.379491         2    ;  uncertainty k = 0.197817
        45        22        23        46     9        0.000000        0.015021         3    ;  uncertainty k = 0.104245
        45        22        23        46     9      180.000000        0.051316         4    ;  uncertainty k = 0.025024
        45        22        23        47     9        0.000000        1.424511         1    ;  uncertainty k = 0.552611
        45        22        23        47     9      180.000000       -0.379491         2    ;  uncertainty k = 0.197817
        45        22        23        47     9        0.000000        0.015021         3    ;  uncertainty k = 0.104245
        45        22        23        47     9      180.000000        0.051316         4    ;  uncertainty k = 0.025024
        45        22        27        52     9        0.000000        1.424511         1    ;  uncertainty k = 0.552611
        45        22        27        52     9      180.000000       -0.379491         2    ;  uncertainty k = 0.197817
        45        22        27        52     9        0.000000        0.015021         3    ;  uncertainty k = 0.104245
        45        22        27        52     9      180.000000        0.051316         4    ;  uncertainty k = 0.025024
        45        22        27        53     9        0.000000        1.424511         1    ;  uncertainty k = 0.552611
        45        22        27        53     9      180.000000       -0.379491         2    ;  uncertainty k = 0.197817
        45        22        27        53     9        0.000000        0.015021         3    ;  uncertainty k = 0.104245
        45        22        27        53     9      180.000000        0.051316         4    ;  uncertainty k = 0.025024
        46        23        24        48     9        0.000000       -0.035997         1    ;  uncertainty k = 0.290447
        46        23        24        48     9      180.000000        0.482516         2    ;  uncertainty k = 0.352023
        46        23        24        48     9        0.000000        0.104594         3    ;  uncertainty k = 0.074944
        46        23        24        48     9      180.000000       -0.250465         4    ;  uncertainty k = 0.095361
        46        23        24        49     9        0.000000       -0.035997         1    ;  uncertainty k = 0.290447
        46        23        24        49     9      180.000000        0.482516         2    ;  uncertainty k = 0.352023
        46        23        24        49     9        0.000000        0.104594         3    ;  uncertainty k = 0.074944
        46        23        24        49     9      180.000000       -0.250465         4    ;  uncertainty k = 0.095361
        47        23        24        48     9        0.000000       -0.035997         1    ;  uncertainty k = 0.290447
        47        23        24        48     9      180.000000        0.482516         2    ;  uncertainty k = 0.352023
        47        23        24        48     9        0.000000        0.104594         3    ;  uncertainty k = 0.074944
        47        23        24        48     9      180.000000       -0.250465         4    ;  uncertainty k = 0.095361
        47        23        24        49     9        0.000000       -0.035997         1    ;  uncertainty k = 0.290447
        47        23        24        49     9      180.000000        0.482516         2    ;  uncertainty k = 0.352023
        47        23        24        49     9        0.000000        0.104594         3    ;  uncertainty k = 0.074944
        47        23        24        49     9      180.000000       -0.250465         4    ;  uncertainty k = 0.095361
        50        26        27        52     9        0.000000       -0.035997         1    ;  uncertainty k = 0.290447
        50        26        27        52     9      180.000000        0.482516         2    ;  uncertainty k = 0.352023
        50        26        27        52     9        0.000000        0.104594         3    ;  uncertainty k = 0.074944
        50        26        27        52     9      180.000000       -0.250465         4    ;  uncertainty k = 0.095361
        50        26        27        53     9        0.000000       -0.035997         1    ;  uncertainty k = 0.290447
        50        26        27        53     9      180.000000        0.482516         2    ;  uncertainty k = 0.352023
        50        26        27        53     9        0.000000        0.104594         3    ;  uncertainty k = 0.074944
        50        26        27        53     9      180.000000       -0.250465         4    ;  uncertainty k = 0.095361
        51        26        27        52     9        0.000000       -0.035997         1    ;  uncertainty k = 0.290447
        51        26        27        52     9      180.000000        0.482516         2    ;  uncertainty k = 0.352023
        51        26        27        52     9        0.000000        0.104594         3    ;  uncertainty k = 0.074944
        51        26        27        52     9      180.000000       -0.250465         4    ;  uncertainty k = 0.095361
        51        26        27        53     9        0.000000       -0.035997         1    ;  uncertainty k = 0.290447
        51        26        27        53     9      180.000000        0.482516         2    ;  uncertainty k = 0.352023
        51        26        27        53     9        0.000000        0.104594         3    ;  uncertainty k = 0.074944
        51        26        27        53     9      180.000000       -0.250465         4    ;  uncertainty k = 0.095361
        56        33        34        57     9        0.000000       -0.057002         1    ;  uncertainty k = 0.102498
        56        33        34        57     9      180.000000        7.749801         2    ;  uncertainty k = 0.346074
        56        33        34        57     9        0.000000       -0.473069         3    ;  uncertainty k = 0.287088
        56        33        34        57     9      180.000000        0.087408         4    ;  uncertainty k = 0.115760
        57        34        35        58     9        0.000000       -0.014268         1    ;  uncertainty k = 0.081434
        57        34        35        58     9      180.000000        7.540895         2    ;  uncertainty k = 0.372950
        57        34        35        58     9        0.000000       -0.423023         3    ;  uncertainty k = 0.279630
        57        34        35        58     9      180.000000        0.044035         4    ;  uncertainty k = 0.144091
        58        35        36        59     9        0.000000       -0.014268         1    ;  uncertainty k = 0.081434
        58        35        36        59     9      180.000000        7.540896         2    ;  uncertainty k = 0.372950
        58        35        36        59     9        0.000000       -0.423023         3    ;  uncertainty k = 0.279630
        58        35        36        59     9      180.000000        0.044035         4    ;  uncertainty k = 0.144091
        59        36        37        60     9        0.000000       -0.057002         1    ;  uncertainty k = 0.102498
        59        36        37        60     9      180.000000        7.749801         2    ;  uncertainty k = 0.346074
        59        36        37        60     9        0.000000       -0.473069         3    ;  uncertainty k = 0.287088
        59        36        37        60     9      180.000000        0.087408         4    ;  uncertainty k = 0.115760

[ dihedrals ] ; impropers
;       ai        aj        ak        al funct           phase               k        pn
         2         1         3         6     4      180.000000        2.833395         2    ;  uncertainty k = 1.376267
         2         3         6         1     4      180.000000        2.833395         2    ;  uncertainty k = 1.376267
         2         6         1         3     4      180.000000        2.833395         2    ;  uncertainty k = 1.376267
         3         2         4        16     4      180.000000        5.361893         2    ;  uncertainty k = 0.990709
         3         4        16         2     4      180.000000        5.361893         2    ;  uncertainty k = 0.990709
         3        16         2         4     4      180.000000        5.361893         2    ;  uncertainty k = 0.990709
         4         3         5        15     4      180.000000        2.498686         2    ;  uncertainty k = 0.371762
         4         5        15         3     4      180.000000        2.498686         2    ;  uncertainty k = 0.371762
         4        15         3         5     4      180.000000        2.498686         2    ;  uncertainty k = 0.371762
         5         1         4         9     4      180.000000        5.470434         2    ;  uncertainty k = 0.356711
         5         4         9         1     4      180.000000        5.470434         2    ;  uncertainty k = 0.356711
         5         9         1         4     4      180.000000        5.470434         2    ;  uncertainty k = 0.356711
         6         2         7         8     4      180.000000       66.076957         2    ;  uncertainty k = 0.057409
         6         7         8         2     4      180.000000       66.076957         2    ;  uncertainty k = 0.057409
         6         8         2         7     4      180.000000       66.076957         2    ;  uncertainty k = 0.057409
         9         5        10        14     4      180.000000       14.801118         2    ;  uncertainty k = 0.086155
         9        10        14         5     4      180.000000       14.801118         2    ;  uncertainty k = 0.086155
         9        14         5        10     4      180.000000       14.801118         2    ;  uncertainty k = 0.086155
        10         9        11        38     4      180.000000        2.257831         2    ;  uncertainty k = 0.405434
        10        11        38         9     4      180.000000        2.257831         2    ;  uncertainty k = 0.405434
        10        38         9        11     4      180.000000        2.257831         2    ;  uncertainty k = 0.405434
        11        10        12        21     4      180.000000       20.823615         2    ;  uncertainty k = 0.084663
        11        12        21        10     4      180.000000       20.823615         2    ;  uncertainty k = 0.084663
        11        21        10        12     4      180.000000       20.823615         2    ;  uncertainty k = 0.084663
        12        11        13        39     4      180.000000        2.355810         2    ;  uncertainty k = 0.307570
        12        13        39        11     4      180.000000        2.355810         2    ;  uncertainty k = 0.307570
        12        39        11        13     4      180.000000        2.355810         2    ;  uncertainty k = 0.307570
        13        12        14        40     4      180.000000        4.269650         2    ;  uncertainty k = 0.170671
        13        14        40        12     4      180.000000        4.269650         2    ;  uncertainty k = 0.170671
        13        40        12        14     4      180.000000        4.269650         2    ;  uncertainty k = 0.170671
        14         9        13        41     4      180.000000        3.287673         2    ;  uncertainty k = 0.208425
        14        13        41         9     4      180.000000        3.287673         2    ;  uncertainty k = 0.208425
        14        41         9        13     4      180.000000        3.287673         2    ;  uncertainty k = 0.208425
        18        17        19        20     4      180.000000       68.314311         2    ;  uncertainty k = 0.022612
        18        19        20        17     4      180.000000       68.314311         2    ;  uncertainty k = 0.022612
        18        20        17        19     4      180.000000       68.314311         2    ;  uncertainty k = 0.022612
        32        31        33        37     4      180.000000       12.069193         2    ;  uncertainty k = 0.153646
        32        33        37        31     4      180.000000       12.069193         2    ;  uncertainty k = 0.153646
        32        37        31        33     4      180.000000       12.069193         2    ;  uncertainty k = 0.153646
        33        32        34        56     4      180.000000        3.892302         2    ;  uncertainty k = 0.151209
        33        34        56        32     4      180.000000        3.892302         2    ;  uncertainty k = 0.151209
        33        56        32        34     4      180.000000        3.892302         2    ;  uncertainty k = 0.151209
        34        33        35        57     4      180.000000        4.208112         2    ;  uncertainty k = 0.090757
        34        35        57        33     4      180.000000        4.208112         2    ;  uncertainty k = 0.090757
        34        57        33        35     4      180.000000        4.208112         2    ;  uncertainty k = 0.090757
        35        34        36        58     4      180.000000        4.444632         2    ;  uncertainty k = 0.168114
        35        36        58        34     4      180.000000        4.444632         2    ;  uncertainty k = 0.168114
        35        58        34        36     4      180.000000        4.444632         2    ;  uncertainty k = 0.168114
        36        35        37        59     4      180.000000        4.208112         2    ;  uncertainty k = 0.090757
        36        37        59        35     4      180.000000        4.208112         2    ;  uncertainty k = 0.090757
        36        59        35        37     4      180.000000        4.208112         2    ;  uncertainty k = 0.090757
        37        32        36        60     4      180.000000        3.892302         2    ;  uncertainty k = 0.151209
        37        36        60        32     4      180.000000        3.892302         2    ;  uncertainty k = 0.151209
        37        60        32        36     4      180.000000        3.892302         2    ;  uncertainty k = 0.151209

[ pairs ]
;       ai        aj funct
         1         7     1
         1         8     1
         1        10     1
         1        14     1
         1        15     1
         1        16     1
         2         9     1
         2        15     1
         2        17     1
         3         7     1
         3         8     1
         3         9     1
         3        18     1
         3        42     1
         3        43     1
         4         6     1
         4        10     1
         4        14     1
         4        17     1
         5         6     1
         5        11     1
         5        13     1
         5        16     1
         5        38     1
         5        41     1
         6        16     1
         9        12     1
         9        15     1
         9        21     1
         9        40     1
        10        13     1
        10        22     1
        10        39     1
        10        41     1
        10        44     1
        11        14     1
        11        23     1
        11        27     1
        11        40     1
        11        45     1
        12        22     1
        12        38     1
        12        41     1
        12        44     1
        13        21     1
        14        38     1
        14        39     1
        15        16     1
        16        19     1
        16        20     1
        19        42     1
        19        43     1
        20        42     1
        20        43     1
        21        24     1
        21        26     1
        21        38     1
        21        39     1
        21        46     1
        21        47     1
        21        52     1
        21        53     1
        22        25     1
        22        48     1
        22        49     1
        22        50     1
        22        51     1
        23        26     1
        23        28     1
        23        44     1
        23        52     1
        23        53     1
        24        27     1
        24        29     1
        24        30     1
        24        31     1
        24        45     1
        24        50     1
        24        51     1
        25        32     1
        25        46     1
        25        47     1
        25        52     1
        25        53     1
        25        54     1
        25        55     1
        26        29     1
        26        30     1
        26        31     1
        26        45     1
        26        48     1
        26        49     1
        27        28     1
        27        44     1
        27        46     1
        27        47     1
        28        33     1
        28        37     1
        28        48     1
        28        49     1
        28        50     1
        28        51     1
        29        32     1
        29        54     1
        29        55     1
        30        32     1
        30        54     1
        30        55     1
        31        34     1
        31        36     1
        31        56     1
        31        60     1
        32        35     1
        32        57     1
        32        59     1
        33        36     1
        33        54     1
        33        55     1
        33        58     1
        33        60     1
        34        37     1
        34        59     1
        35        56     1
        35        60     1
        36        57     1
        37        54     1
        37        55     1
        37        56     1
        37        58     1
        39        40     1
        40        41     1
        44        45     1
        45        46     1
        45        47     1
        45        52     1
        45        53     1
        46        48     1
        46        49     1
        47        48     1
        47        49     1
        50        52     1
        50        53     1
        51        52     1
        51        53     1
        56        57     1
        57        58     1
        58        59     1
        59        60     1
