; ITP file created by ByteFF-joint-25, 2026-02-17 09:27:32.201469

[ atomtypes ]
;name           bonded.type        at.num        mass        charge   ptype           sigma         epsilon
 s0bf                                  16      0.0000       0.00000       A     3.53165e-01     1.18204e+00    ;  uncertainty sigma = 0.000053, epsilon = 0.003055
 c1bf                                   6      0.0000       0.00000       A     3.31495e-01     4.13373e-01    ;  uncertainty sigma = 0.000032, epsilon = 0.002340
 c2bf                                   6      0.0000       0.00000       A     3.31500e-01     4.12069e-01    ;  uncertainty sigma = 0.000033, epsilon = 0.001338
 c3bf                                   6      0.0000       0.00000       A     3.31511e-01     4.13455e-01    ;  uncertainty sigma = 0.000012, epsilon = 0.000975
 c4bf                                   6      0.0000       0.00000       A     3.31514e-01     4.13061e-01    ;  uncertainty sigma = 0.000022, epsilon = 0.000877
 c5bf                                   6      0.0000       0.00000       A     3.31529e-01     4.13194e-01    ;  uncertainty sigma = 0.000055, epsilon = 0.002345
 o6bf                                   8      0.0000       0.00000       A     3.04804e-01     6.11836e-01    ;  uncertainty sigma = 0.000044, epsilon = 0.001672
 o7bf                                   8      0.0000       0.00000       A     3.04804e-01     6.11836e-01    ;  uncertainty sigma = 0.000044, epsilon = 0.001672
 c8bf                                   6      0.0000       0.00000       A     3.31502e-01     4.12993e-01    ;  uncertainty sigma = 0.000011, epsilon = 0.000429
 c9bf                                   6      0.0000       0.00000       A     3.31524e-01     4.13376e-01    ;  uncertainty sigma = 0.000005, epsilon = 0.000868
 c10bf                                  6      0.0000       0.00000       A     3.31507e-01     4.13226e-01    ;  uncertainty sigma = 0.000013, epsilon = 0.000870
 c11bf                                  6      0.0000       0.00000       A     3.31521e-01     4.13203e-01    ;  uncertainty sigma = 0.000002, epsilon = 0.000548
 c12bf                                  6      0.0000       0.00000       A     3.31522e-01     4.13513e-01    ;  uncertainty sigma = 0.000003, epsilon = 0.000666
 c13bf                                  6      0.0000       0.00000       A     3.31520e-01     4.13276e-01    ;  uncertainty sigma = 0.000003, epsilon = 0.000632
 br14bf                                35      0.0000       0.00000       A     3.61258e-01     1.64394e+00    ;  uncertainty sigma = 0.000027, epsilon = 0.006365
 o15bf                                  8      0.0000       0.00000       A     3.15802e-01     3.03913e-01    ;  uncertainty sigma = 0.000078, epsilon = 0.010291
 c16bf                                  6      0.0000       0.00000       A     3.39717e-01     4.50736e-01    ;  uncertainty sigma = 0.000028, epsilon = 0.002811
 c17bf                                  6      0.0000       0.00000       A     3.31523e-01     4.12941e-01    ;  uncertainty sigma = 0.000026, epsilon = 0.002863
 o18bf                                  8      0.0000       0.00000       A     3.04805e-01     6.12312e-01    ;  uncertainty sigma = 0.000022, epsilon = 0.002455
 o19bf                                  8      0.0000       0.00000       A     3.04805e-01     6.12312e-01    ;  uncertainty sigma = 0.000022, epsilon = 0.002455
 n20bf                                  7      0.0000       0.00000       A     3.27934e-01     6.44759e-01    ;  uncertainty sigma = 0.000034, epsilon = 0.001898
 c21bf                                  6      0.0000       0.00000       A     3.39773e-01     4.51572e-01    ;  uncertainty sigma = 0.000011, epsilon = 0.001156
 c22bf                                  6      0.0000       0.00000       A     3.39798e-01     4.50968e-01    ;  uncertainty sigma = 0.000007, epsilon = 0.000673
 c23bf                                  6      0.0000       0.00000       A     3.39788e-01     4.50655e-01    ;  uncertainty sigma = 0.000015, epsilon = 0.001174
 c24bf                                  6      0.0000       0.00000       A     3.39799e-01     4.50924e-01    ;  uncertainty sigma = 0.000012, epsilon = 0.000864
 c25bf                                  6      0.0000       0.00000       A     3.39788e-01     4.50655e-01    ;  uncertainty sigma = 0.000015, epsilon = 0.001174
 c26bf                                  6      0.0000       0.00000       A     3.39798e-01     4.50968e-01    ;  uncertainty sigma = 0.000007, epsilon = 0.000673
 h27bf                                  1      0.0000       0.00000       A     2.62548e-01     6.70805e-02    ;  uncertainty sigma = 0.000012, epsilon = 0.000580
 h28bf                                  1      0.0000       0.00000       A     2.62556e-01     6.70450e-02    ;  uncertainty sigma = 0.000012, epsilon = 0.000463
 h29bf                                  1      0.0000       0.00000       A     2.62563e-01     6.69897e-02    ;  uncertainty sigma = 0.000012, epsilon = 0.000446
 h30bf                                  1      0.0000       0.00000       A     2.62561e-01     6.70429e-02    ;  uncertainty sigma = 0.000012, epsilon = 0.000452
 h31bf                                  1      0.0000       0.00000       A     2.42291e-01     8.67021e-02    ;  uncertainty sigma = 0.000194, epsilon = 0.000950
 h32bf                                  1      0.0000       0.00000       A     2.42291e-01     8.67021e-02    ;  uncertainty sigma = 0.000194, epsilon = 0.000950
 h33bf                                  1      0.0000       0.00000       A     1.10678e-01     4.13568e-02    ;  uncertainty sigma = 0.000090, epsilon = 0.000744
 h34bf                                  1      0.0000       0.00000       A     2.42182e-01     8.70955e-02    ;  uncertainty sigma = 0.000056, epsilon = 0.001206
 h35bf                                  1      0.0000       0.00000       A     2.60025e-01     8.68046e-02    ;  uncertainty sigma = 0.000022, epsilon = 0.000561
 h36bf                                  1      0.0000       0.00000       A     2.60025e-01     8.68046e-02    ;  uncertainty sigma = 0.000022, epsilon = 0.000561
 h37bf                                  1      0.0000       0.00000       A     2.60025e-01     8.68046e-02    ;  uncertainty sigma = 0.000022, epsilon = 0.000561
 h38bf                                  1      0.0000       0.00000       A     2.60025e-01     8.68046e-02    ;  uncertainty sigma = 0.000022, epsilon = 0.000561
 c39bf                                  6      0.0000       0.00000       A     3.39769e-01     4.51056e-01    ;  uncertainty sigma = 0.000004, epsilon = 0.000758
 h40bf                                  1      0.0000       0.00000       A     2.60025e-01     8.67352e-02    ;  uncertainty sigma = 0.000010, epsilon = 0.000349
 h41bf                                  1      0.0000       0.00000       A     2.60025e-01     8.67352e-02    ;  uncertainty sigma = 0.000010, epsilon = 0.000349
 h42bf                                  1      0.0000       0.00000       A     2.60025e-01     8.67352e-02    ;  uncertainty sigma = 0.000010, epsilon = 0.000349
 c43bf                                  6      0.0000       0.00000       A     3.39769e-01     4.51056e-01    ;  uncertainty sigma = 0.000004, epsilon = 0.000758
 h44bf                                  1      0.0000       0.00000       A     2.60025e-01     8.67352e-02    ;  uncertainty sigma = 0.000010, epsilon = 0.000349
 h45bf                                  1      0.0000       0.00000       A     2.60025e-01     8.67352e-02    ;  uncertainty sigma = 0.000010, epsilon = 0.000349
 h46bf                                  1      0.0000       0.00000       A     2.60025e-01     8.67352e-02    ;  uncertainty sigma = 0.000010, epsilon = 0.000349
 c47bf                                  6      0.0000       0.00000       A     3.39769e-01     4.51056e-01    ;  uncertainty sigma = 0.000004, epsilon = 0.000758
 h48bf                                  1      0.0000       0.00000       A     2.60025e-01     8.67352e-02    ;  uncertainty sigma = 0.000010, epsilon = 0.000349
 h49bf                                  1      0.0000       0.00000       A     2.60025e-01     8.67352e-02    ;  uncertainty sigma = 0.000010, epsilon = 0.000349
 h50bf                                  1      0.0000       0.00000       A     2.60025e-01     8.67352e-02    ;  uncertainty sigma = 0.000010, epsilon = 0.000349
 c51bf                                  6      0.0000       0.00000       A     3.39769e-01     4.51056e-01    ;  uncertainty sigma = 0.000004, epsilon = 0.000758
 h52bf                                  1      0.0000       0.00000       A     2.60025e-01     8.67352e-02    ;  uncertainty sigma = 0.000010, epsilon = 0.000349
 h53bf                                  1      0.0000       0.00000       A     2.60025e-01     8.67352e-02    ;  uncertainty sigma = 0.000010, epsilon = 0.000349
 h54bf                                  1      0.0000       0.00000       A     2.60025e-01     8.67352e-02    ;  uncertainty sigma = 0.000010, epsilon = 0.000349
 h55bf                                  1      0.0000       0.00000       A     2.60009e-01     8.67879e-02    ;  uncertainty sigma = 0.000034, epsilon = 0.000683
 h56bf                                  1      0.0000       0.00000       A     2.60009e-01     8.67881e-02    ;  uncertainty sigma = 0.000034, epsilon = 0.000683

[ moleculetype ]
;name             nrexcl
 MOL                   3

[ atoms ]
;       nr            type      resi   res      atom      cgnr      charge          mass ; qtot
         1            s0bf         1   UNL        s0         1    -0.06026       32.0670 ; qtot   -0.060
         2            c1bf         1   UNL        c1         2    -0.15250       12.0110 ; qtot   -0.213
         3            c2bf         1   UNL        c2         3     0.12085       12.0110 ; qtot   -0.092
         4            c3bf         1   UNL        c3         4    -0.04845       12.0110 ; qtot   -0.140
         5            c4bf         1   UNL        c4         5    -0.04862       12.0110 ; qtot   -0.189
         6            c5bf         1   UNL        c5         6     0.93104       12.0110 ; qtot    0.742
         7            o6bf         1   UNL        o6         7    -0.81786       15.9990 ; qtot   -0.076
         8            o7bf         1   UNL        o7         8    -0.81786       15.9990 ; qtot   -0.894
         9            c8bf         1   UNL        c8         9     0.02218       12.0110 ; qtot   -0.871
        10            c9bf         1   UNL        c9        10    -0.18104       12.0110 ; qtot   -1.053
        11           c10bf         1   UNL       c10        11     0.16159       12.0110 ; qtot   -0.891
        12           c11bf         1   UNL       c11        12    -0.19079       12.0110 ; qtot   -1.082
        13           c12bf         1   UNL       c12        13    -0.09078       12.0110 ; qtot   -1.173
        14           c13bf         1   UNL       c13        14    -0.13415       12.0110 ; qtot   -1.307
        15          br14bf         1   UNL      br14        15    -0.09860       79.9040 ; qtot   -1.405
        16           o15bf         1   UNL       o15        16    -0.32674       15.9990 ; qtot   -1.732
        17           c16bf         1   UNL       c16        17    -0.04389       12.0110 ; qtot   -1.776
        18           c17bf         1   UNL       c17        18     0.91650       12.0110 ; qtot   -0.859
        19           o18bf         1   UNL       o18        19    -0.83281       15.9990 ; qtot   -1.692
        20           o19bf         1   UNL       o19        20    -0.83281       15.9990 ; qtot   -2.525
        21           n20bf         1   UNL       n20        21    -0.74973       14.0070 ; qtot   -3.275
        22           c21bf         1   UNL       c21        22     0.21081       12.0110 ; qtot   -3.064
        23           c22bf         1   UNL       c22        23    -0.08498       12.0110 ; qtot   -3.149
        24           c23bf         1   UNL       c23        24    -0.04097       12.0110 ; qtot   -3.190
        25           c24bf         1   UNL       c24        25    -0.06832       12.0110 ; qtot   -3.258
        26           c25bf         1   UNL       c25        26    -0.04097       12.0110 ; qtot   -3.299
        27           c26bf         1   UNL       c26        27    -0.08498       12.0110 ; qtot   -3.384
        28           h27bf         1   UNL       h27        28     0.13981        1.0080 ; qtot   -3.244
        29           h28bf         1   UNL       h28        29     0.13179        1.0080 ; qtot   -3.113
        30           h29bf         1   UNL       h29        30     0.13626        1.0080 ; qtot   -2.976
        31           h30bf         1   UNL       h30        31     0.14276        1.0080 ; qtot   -2.834
        32           h31bf         1   UNL       h31        32     0.02291        1.0080 ; qtot   -2.811
        33           h32bf         1   UNL       h32        33     0.02291        1.0080 ; qtot   -2.788
        34           h33bf         1   UNL       h33        34     0.40097        1.0080 ; qtot   -2.387
        35           h34bf         1   UNL       h34        35     0.05454        1.0080 ; qtot   -2.332
        36           h35bf         1   UNL       h35        36     0.04712        1.0080 ; qtot   -2.285
        37           h36bf         1   UNL       h36        37     0.04712        1.0080 ; qtot   -2.238
        38           h37bf         1   UNL       h37        38     0.04712        1.0080 ; qtot   -2.191
        39           h38bf         1   UNL       h38        39     0.04712        1.0080 ; qtot   -2.144
        40           c39bf         1   UNL       c39        40    -0.08870       12.0110 ; qtot   -2.232
        41           h40bf         1   UNL       h40        41     0.03496        1.0080 ; qtot   -2.197
        42           h41bf         1   UNL       h41        42     0.03496        1.0080 ; qtot   -2.162
        43           h42bf         1   UNL       h42        43     0.03496        1.0080 ; qtot   -2.128
        44           c43bf         1   UNL       c43        44    -0.08870       12.0110 ; qtot   -2.216
        45           h44bf         1   UNL       h44        45     0.03496        1.0080 ; qtot   -2.181
        46           h45bf         1   UNL       h45        46     0.03496        1.0080 ; qtot   -2.146
        47           h46bf         1   UNL       h46        47     0.03496        1.0080 ; qtot   -2.111
        48           c47bf         1   UNL       c47        48    -0.08870       12.0110 ; qtot   -2.200
        49           h48bf         1   UNL       h48        49     0.03496        1.0080 ; qtot   -2.165
        50           h49bf         1   UNL       h49        50     0.03496        1.0080 ; qtot   -2.130
        51           h50bf         1   UNL       h50        51     0.03496        1.0080 ; qtot   -2.095
        52           c51bf         1   UNL       c51        52    -0.08870       12.0110 ; qtot   -2.184
        53           h52bf         1   UNL       h52        53     0.03496        1.0080 ; qtot   -2.149
        54           h53bf         1   UNL       h53        54     0.03496        1.0080 ; qtot   -2.114
        55           h54bf         1   UNL       h54        55     0.03496        1.0080 ; qtot   -2.079
        56           h55bf         1   UNL       h55        56     0.03948        1.0080 ; qtot   -2.040
        57           h56bf         1   UNL       h56        57     0.03951        1.0080 ; qtot   -2.000

[ bonds ]
;       ai        aj funct               r               k
         1         2     1        0.174192   168649.560181    ;  uncertainty r = 0.000346, k = 32.148596
         1         5     1        0.174357   166232.447241    ;  uncertainty r = 0.000237, k = 14.888510
         2         3     1        0.138080   385642.911377    ;  uncertainty r = 0.000134, k = 36.968685
         2         6     1        0.154055   191773.233960    ;  uncertainty r = 0.000283, k = 45.899503
         3         4     1        0.143810   249799.356152    ;  uncertainty r = 0.000373, k = 34.755195
         3        16     1        0.136007   307552.652637    ;  uncertainty r = 0.000403, k = 36.149075
         4         5     1        0.137757   380537.379248    ;  uncertainty r = 0.000227, k = 7.612841
         4        15     1        0.190420   156686.726831    ;  uncertainty r = 0.000144, k = 29.636935
         5         9     1        0.146498   276255.265186    ;  uncertainty r = 0.000143, k = 7.998639
         6         7     1        0.126149   550576.911523    ;  uncertainty r = 0.000229, k = 9.262788
         6         8     1        0.126149   550576.911523    ;  uncertainty r = 0.000229, k = 9.262788
         9        10     1        0.139866   346656.581201    ;  uncertainty r = 0.000090, k = 3.370148
         9        14     1        0.140211   349325.336816    ;  uncertainty r = 0.000029, k = 3.652698
        10        11     1        0.140727   361666.272607    ;  uncertainty r = 0.000046, k = 6.105763
        10        28     1        0.108901   336801.478711    ;  uncertainty r = 0.000022, k = 2.489614
        11        12     1        0.140941   361928.206738    ;  uncertainty r = 0.000067, k = 7.751592
        11        21     1        0.139615   340281.446143    ;  uncertainty r = 0.000099, k = 9.831282
        12        13     1        0.139380   371821.742578    ;  uncertainty r = 0.000036, k = 2.429869
        12        29     1        0.108873   337023.140820    ;  uncertainty r = 0.000023, k = 0.936943
        13        14     1        0.139370   367208.565918    ;  uncertainty r = 0.000033, k = 1.516097
        13        30     1        0.108779   332374.620801    ;  uncertainty r = 0.000017, k = 1.550752
        14        31     1        0.108759   334843.242090    ;  uncertainty r = 0.000027, k = 0.771472
        16        17     1        0.144489   220596.573486    ;  uncertainty r = 0.000632, k = 19.356591
        17        18     1        0.155273   162501.513867    ;  uncertainty r = 0.000271, k = 66.063610
        17        32     1        0.109682   316919.485596    ;  uncertainty r = 0.000081, k = 8.518153
        17        33     1        0.109682   316919.485596    ;  uncertainty r = 0.000081, k = 8.518153
        18        19     1        0.126286   541570.585938    ;  uncertainty r = 0.000058, k = 12.189171
        18        20     1        0.126286   541570.585938    ;  uncertainty r = 0.000058, k = 12.189171
        21        22     1        0.146193   234564.018848    ;  uncertainty r = 0.000096, k = 7.323386
        21        34     1        0.101377   415874.328809    ;  uncertainty r = 0.000036, k = 2.387930
        22        23     1        0.153124   202326.431641    ;  uncertainty r = 0.000096, k = 5.686871
        22        27     1        0.153124   202326.431641    ;  uncertainty r = 0.000096, k = 5.686871
        22        35     1        0.109642   301670.971143    ;  uncertainty r = 0.000054, k = 4.258905
        23        24     1        0.153242   196400.009131    ;  uncertainty r = 0.000171, k = 3.490850
        23        36     1        0.109818   307368.172559    ;  uncertainty r = 0.000048, k = 2.261932
        23        37     1        0.109818   307368.172559    ;  uncertainty r = 0.000048, k = 2.261932
        24        25     1        0.153285   194982.290967    ;  uncertainty r = 0.000196, k = 6.682863
        24        48     1        0.153353   199636.620679    ;  uncertainty r = 0.000049, k = 4.209314
        24        52     1        0.153353   199636.620679    ;  uncertainty r = 0.000049, k = 4.209314
        25        26     1        0.153285   194982.290967    ;  uncertainty r = 0.000196, k = 6.682863
        25        56     1        0.109930   305566.861475    ;  uncertainty r = 0.000048, k = 1.650221
        25        57     1        0.109930   305566.835938    ;  uncertainty r = 0.000048, k = 1.650214
        26        27     1        0.153242   196400.009131    ;  uncertainty r = 0.000171, k = 3.490850
        26        40     1        0.153353   199636.620679    ;  uncertainty r = 0.000049, k = 4.209314
        26        44     1        0.153353   199636.620679    ;  uncertainty r = 0.000049, k = 4.209314
        27        38     1        0.109818   307368.172559    ;  uncertainty r = 0.000048, k = 2.261932
        27        39     1        0.109818   307368.172559    ;  uncertainty r = 0.000048, k = 2.261932
        40        41     1        0.109693   309222.856201    ;  uncertainty r = 0.000021, k = 1.708849
        40        42     1        0.109693   309222.856201    ;  uncertainty r = 0.000021, k = 1.708849
        40        43     1        0.109693   309222.856201    ;  uncertainty r = 0.000021, k = 1.708849
        44        45     1        0.109693   309222.856201    ;  uncertainty r = 0.000021, k = 1.708849
        44        46     1        0.109693   309222.856201    ;  uncertainty r = 0.000021, k = 1.708849
        44        47     1        0.109693   309222.856201    ;  uncertainty r = 0.000021, k = 1.708849
        48        49     1        0.109693   309222.856201    ;  uncertainty r = 0.000021, k = 1.708849
        48        50     1        0.109693   309222.856201    ;  uncertainty r = 0.000021, k = 1.708849
        48        51     1        0.109693   309222.856201    ;  uncertainty r = 0.000021, k = 1.708849
        52        53     1        0.109693   309222.856201    ;  uncertainty r = 0.000021, k = 1.708875
        52        54     1        0.109693   309222.856201    ;  uncertainty r = 0.000021, k = 1.708860
        52        55     1        0.109693   309222.856201    ;  uncertainty r = 0.000021, k = 1.708875

[ angles ]
;       ai        aj        ak funct           theta             cth
         1         2         3     1      112.357254      490.287825    ;  uncertainty theta = 0.005257, k = 0.446159
         1         2         6     1      115.451401      321.272126    ;  uncertainty theta = 0.011344, k = 0.278095
         1         5         4     1      111.659386      449.584992    ;  uncertainty theta = 0.002310, k = 0.394971
         1         5         9     1      118.728165      342.867040    ;  uncertainty theta = 0.007322, k = 0.153391
         2         1         5     1       93.409683     1113.970975    ;  uncertainty theta = 0.008532, k = 0.189168
         2         3         4     1      115.069199      491.410436    ;  uncertainty theta = 0.004813, k = 0.280924
         2         3        16     1      123.043716      386.336563    ;  uncertainty theta = 0.006879, k = 0.395881
         2         6         7     1      114.979454      369.254791    ;  uncertainty theta = 0.012630, k = 0.171059
         2         6         8     1      114.979454      369.254791    ;  uncertainty theta = 0.012630, k = 0.171059
         3         2         6     1      128.246002      305.353665    ;  uncertainty theta = 0.014744, k = 0.309527
         3         4         5     1      117.601578      512.725910    ;  uncertainty theta = 0.003379, k = 0.473085
         3         4        15     1      119.051048      364.447781    ;  uncertainty theta = 0.003204, k = 0.273279
         3        16        17     1      112.137527      461.556502    ;  uncertainty theta = 0.007449, k = 0.230739
         4         3        16     1      118.536453      394.142587    ;  uncertainty theta = 0.008837, k = 0.130964
         4         5         9     1      126.491371      327.557288    ;  uncertainty theta = 0.004316, k = 0.181971
         5         4        15     1      120.673264      351.209758    ;  uncertainty theta = 0.006817, k = 0.079938
         5         9        10     1      120.397461      415.443409    ;  uncertainty theta = 0.002814, k = 0.087126
         5         9        14     1      121.217979      420.375742    ;  uncertainty theta = 0.001875, k = 0.061522
         7         6         8     1      131.649750      807.008217    ;  uncertainty theta = 0.009047, k = 0.187853
         9        10        11     1      120.428894      536.832239    ;  uncertainty theta = 0.003964, k = 0.078433
         9        10        28     1      119.446228      281.459645    ;  uncertainty theta = 0.002184, k = 0.055595
         9        14        13     1      119.273636      529.780262    ;  uncertainty theta = 0.001628, k = 0.054049
         9        14        31     1      119.473221      279.687114    ;  uncertainty theta = 0.002433, k = 0.056230
        10         9        14     1      121.486282      396.733614    ;  uncertainty theta = 0.005023, k = 0.115979
        10        11        12     1      118.820084      368.448584    ;  uncertainty theta = 0.006898, k = 0.170009
        10        11        21     1      123.167809      559.437688    ;  uncertainty theta = 0.004372, k = 0.245661
        11        10        28     1      119.650734      276.539889    ;  uncertainty theta = 0.001696, k = 0.041192
        11        12        13     1      118.451317      533.334932    ;  uncertainty theta = 0.003729, k = 0.122588
        11        12        29     1      119.619423      267.231708    ;  uncertainty theta = 0.002416, k = 0.066386
        11        21        22     1      115.009048      428.614684    ;  uncertainty theta = 0.005377, k = 0.192376
        11        21        34     1      110.715965      369.688922    ;  uncertainty theta = 0.003905, k = 0.055599
        12        11        21     1      123.697670      590.204159    ;  uncertainty theta = 0.004276, k = 0.168483
        12        13        14     1      121.365150      506.111639    ;  uncertainty theta = 0.002455, k = 0.077037
        12        13        30     1      120.189308      280.032408    ;  uncertainty theta = 0.001024, k = 0.065623
        13        12        29     1      121.003220      294.864680    ;  uncertainty theta = 0.002261, k = 0.074534
        13        14        31     1      120.754356      296.535541    ;  uncertainty theta = 0.001263, k = 0.063263
        14        13        30     1      120.097679      281.198464    ;  uncertainty theta = 0.001024, k = 0.024519
        16        17        18     1      108.358414      484.414258    ;  uncertainty theta = 0.009599, k = 0.239378
        16        17        32     1      106.609215      413.715920    ;  uncertainty theta = 0.002333, k = 0.101205
        16        17        33     1      106.609215      413.715920    ;  uncertainty theta = 0.002333, k = 0.101205
        17        18        19     1      116.281067      425.507680    ;  uncertainty theta = 0.009799, k = 0.299635
        17        18        20     1      116.281067      425.507680    ;  uncertainty theta = 0.009799, k = 0.299635
        18        17        32     1      110.053444      352.214644    ;  uncertainty theta = 0.003968, k = 0.110269
        18        17        33     1      110.053444      352.214644    ;  uncertainty theta = 0.003968, k = 0.110269
        19        18        20     1      131.546265      818.159315    ;  uncertainty theta = 0.002374, k = 0.066126
        21        22        23     1      111.228287      619.864937    ;  uncertainty theta = 0.002376, k = 0.169166
        21        22        27     1      111.228287      619.864937    ;  uncertainty theta = 0.002376, k = 0.169166
        21        22        35     1      104.807800      435.750614    ;  uncertainty theta = 0.002798, k = 0.084815
        22        21        34     1      110.033546      363.033568    ;  uncertainty theta = 0.004338, k = 0.083328
        22        23        24     1      110.507828      531.936137    ;  uncertainty theta = 0.003911, k = 0.214315
        22        23        36     1      107.482666      393.060867    ;  uncertainty theta = 0.001067, k = 0.029055
        22        23        37     1      107.482666      393.060867    ;  uncertainty theta = 0.001067, k = 0.029055
        22        27        26     1      110.507828      531.936137    ;  uncertainty theta = 0.003911, k = 0.214315
        22        27        38     1      107.482666      393.060867    ;  uncertainty theta = 0.001067, k = 0.029055
        22        27        39     1      107.482666      393.060867    ;  uncertainty theta = 0.001067, k = 0.029055
        23        22        27     1      108.875717      592.587155    ;  uncertainty theta = 0.001859, k = 0.103441
        23        22        35     1      107.674927      405.260072    ;  uncertainty theta = 0.002288, k = 0.090959
        23        24        25     1      108.357224      553.950721    ;  uncertainty theta = 0.004276, k = 0.130783
        23        24        48     1      108.439316      561.879611    ;  uncertainty theta = 0.002085, k = 0.043008
        23        24        52     1      108.439316      561.879611    ;  uncertainty theta = 0.002085, k = 0.043008
        24        23        36     1      107.857216      382.053192    ;  uncertainty theta = 0.001520, k = 0.029235
        24        23        37     1      107.857216      382.053192    ;  uncertainty theta = 0.001520, k = 0.029235
        24        25        26     1      111.942833      527.472314    ;  uncertainty theta = 0.004577, k = 0.271503
        24        25        56     1      107.364952      387.257431    ;  uncertainty theta = 0.001966, k = 0.065493
        24        25        57     1      107.364952      387.257431    ;  uncertainty theta = 0.001966, k = 0.065493
        24        48        49     1      108.122704      381.041412    ;  uncertainty theta = 0.001582, k = 0.034161
        24        48        50     1      108.122704      381.041412    ;  uncertainty theta = 0.001582, k = 0.034161
        24        48        51     1      108.122704      381.041412    ;  uncertainty theta = 0.001582, k = 0.034161
        24        52        53     1      108.122704      381.041412    ;  uncertainty theta = 0.001582, k = 0.034161
        24        52        54     1      108.122704      381.041412    ;  uncertainty theta = 0.001582, k = 0.034161
        24        52        55     1      108.122704      381.041412    ;  uncertainty theta = 0.001582, k = 0.034161
        25        24        48     1      108.498924      550.160567    ;  uncertainty theta = 0.002100, k = 0.068557
        25        24        52     1      108.498924      550.160567    ;  uncertainty theta = 0.002100, k = 0.068557
        25        26        27     1      108.357224      553.950721    ;  uncertainty theta = 0.004276, k = 0.130783
        25        26        40     1      108.498924      550.160567    ;  uncertainty theta = 0.002100, k = 0.068557
        25        26        44     1      108.498924      550.160567    ;  uncertainty theta = 0.002100, k = 0.068557
        26        25        56     1      107.364952      387.257431    ;  uncertainty theta = 0.001966, k = 0.065493
        26        25        57     1      107.364952      387.257431    ;  uncertainty theta = 0.001966, k = 0.065493
        26        27        38     1      107.857216      382.053192    ;  uncertainty theta = 0.001520, k = 0.029235
        26        27        39     1      107.857216      382.053192    ;  uncertainty theta = 0.001520, k = 0.029235
        26        40        41     1      108.122704      381.041412    ;  uncertainty theta = 0.001582, k = 0.034161
        26        40        42     1      108.122704      381.041412    ;  uncertainty theta = 0.001582, k = 0.034161
        26        40        43     1      108.122704      381.041412    ;  uncertainty theta = 0.001582, k = 0.034161
        26        44        45     1      108.122704      381.041412    ;  uncertainty theta = 0.001582, k = 0.034161
        26        44        46     1      108.122704      381.041412    ;  uncertainty theta = 0.001582, k = 0.034161
        26        44        47     1      108.122704      381.041412    ;  uncertainty theta = 0.001582, k = 0.034161
        27        22        35     1      107.674927      405.260072    ;  uncertainty theta = 0.002288, k = 0.090959
        27        26        40     1      108.439316      561.879611    ;  uncertainty theta = 0.002085, k = 0.043008
        27        26        44     1      108.439316      561.879611    ;  uncertainty theta = 0.002085, k = 0.043008
        32        17        33     1      108.449631      321.244163    ;  uncertainty theta = 0.009962, k = 0.176306
        36        23        37     1      105.533707      323.319883    ;  uncertainty theta = 0.001660, k = 0.028071
        38        27        39     1      105.533707      323.319883    ;  uncertainty theta = 0.001660, k = 0.028071
        40        26        44     1      108.389206      578.064967    ;  uncertainty theta = 0.002287, k = 0.109504
        41        40        42     1      105.554123      318.221655    ;  uncertainty theta = 0.000936, k = 0.016680
        41        40        43     1      105.554123      318.221655    ;  uncertainty theta = 0.000936, k = 0.016680
        42        40        43     1      105.554123      318.221655    ;  uncertainty theta = 0.000936, k = 0.016680
        45        44        46     1      105.554138      318.221687    ;  uncertainty theta = 0.000936, k = 0.016680
        45        44        47     1      105.554138      318.221687    ;  uncertainty theta = 0.000936, k = 0.016680
        46        44        47     1      105.554138      318.221687    ;  uncertainty theta = 0.000936, k = 0.016680
        48        24        52     1      108.389206      578.065031    ;  uncertainty theta = 0.002287, k = 0.109504
        49        48        50     1      105.554138      318.221687    ;  uncertainty theta = 0.000936, k = 0.016680
        49        48        51     1      105.554138      318.221687    ;  uncertainty theta = 0.000936, k = 0.016680
        50        48        51     1      105.554138      318.221687    ;  uncertainty theta = 0.000936, k = 0.016680
        53        52        54     1      105.554138      318.221687    ;  uncertainty theta = 0.000936, k = 0.016680
        53        52        55     1      105.554138      318.221655    ;  uncertainty theta = 0.000936, k = 0.016681
        54        52        55     1      105.554138      318.221655    ;  uncertainty theta = 0.000936, k = 0.016681
        56        25        57     1      105.496750      326.952026    ;  uncertainty theta = 0.001950, k = 0.061824

[ dihedrals ] ; propers for gromacs 4.5 or higher, use funct 9
;       ai        aj        ak        al funct           phase               k        pn
         1         2         3         4     9        0.000000       -0.320833         1    ;  uncertainty k = 0.754080
         1         2         3         4     9      180.000000       17.555282         2    ;  uncertainty k = 0.424189
         1         2         3         4     9        0.000000       -2.376894         3    ;  uncertainty k = 1.115238
         1         2         3         4     9      180.000000        0.923152         4    ;  uncertainty k = 0.610957
         1         2         3        16     9        0.000000        0.376558         1    ;  uncertainty k = 1.230098
         1         2         3        16     9      180.000000       18.623043         2    ;  uncertainty k = 0.210713
         1         2         3        16     9        0.000000        1.608484         3    ;  uncertainty k = 0.452084
         1         2         3        16     9      180.000000        0.624278         4    ;  uncertainty k = 0.345564
         1         2         6         7     9        0.000000        0.648298         1    ;  uncertainty k = 2.496588
         1         2         6         7     9      180.000000        4.832235         2    ;  uncertainty k = 0.504618
         1         2         6         7     9        0.000000        0.188147         3    ;  uncertainty k = 0.527138
         1         2         6         7     9      180.000000        0.229089         4    ;  uncertainty k = 0.149777
         1         2         6         8     9        0.000000        0.648298         1    ;  uncertainty k = 2.496588
         1         2         6         8     9      180.000000        4.832235         2    ;  uncertainty k = 0.504618
         1         2         6         8     9        0.000000        0.188147         3    ;  uncertainty k = 0.527138
         1         2         6         8     9      180.000000        0.229089         4    ;  uncertainty k = 0.149777
         1         5         4         3     9        0.000000       -0.230943         1    ;  uncertainty k = 0.350057
         1         5         4         3     9      180.000000       15.958089         2    ;  uncertainty k = 0.404103
         1         5         4         3     9        0.000000       -2.380903         3    ;  uncertainty k = 0.809268
         1         5         4         3     9      180.000000        0.865666         4    ;  uncertainty k = 0.750586
         1         5         4        15     9        0.000000        0.242023         1    ;  uncertainty k = 0.389261
         1         5         4        15     9      180.000000       12.724293         2    ;  uncertainty k = 0.534639
         1         5         4        15     9        0.000000        2.310394         3    ;  uncertainty k = 0.489088
         1         5         4        15     9      180.000000        0.570757         4    ;  uncertainty k = 0.408314
         1         5         9        10     9        0.000000       -0.656981         1    ;  uncertainty k = 0.571836
         1         5         9        10     9      180.000000        3.252194         2    ;  uncertainty k = 0.077129
         1         5         9        10     9        0.000000        0.284571         3    ;  uncertainty k = 0.258066
         1         5         9        10     9      180.000000        0.122527         4    ;  uncertainty k = 0.130736
         1         5         9        14     9        0.000000       -0.233259         1    ;  uncertainty k = 0.548333
         1         5         9        14     9      180.000000        3.321067         2    ;  uncertainty k = 0.213032
         1         5         9        14     9        0.000000        0.471770         3    ;  uncertainty k = 0.250673
         1         5         9        14     9      180.000000        0.112740         4    ;  uncertainty k = 0.126557
         2         1         5         4     9        0.000000       -0.381502         1    ;  uncertainty k = 1.018320
         2         1         5         4     9      180.000000       14.624384         2    ;  uncertainty k = 0.929119
         2         1         5         4     9        0.000000       -6.005800         3    ;  uncertainty k = 1.036762
         2         1         5         4     9      180.000000        1.151585         4    ;  uncertainty k = 0.363309
         2         1         5         9     9        0.000000        0.589347         1    ;  uncertainty k = 1.308291
         2         1         5         9     9      180.000000       11.699598         2    ;  uncertainty k = 0.623079
         2         1         5         9     9        0.000000        0.979108         3    ;  uncertainty k = 1.167760
         2         1         5         9     9      180.000000       -0.045828         4    ;  uncertainty k = 0.492309
         2         3         4         5     9        0.000000       -0.163892         1    ;  uncertainty k = 0.802841
         2         3         4         5     9      180.000000        9.355372         2    ;  uncertainty k = 0.794784
         2         3         4         5     9        0.000000       -2.165171         3    ;  uncertainty k = 0.822975
         2         3         4         5     9      180.000000        0.987821         4    ;  uncertainty k = 0.358170
         2         3         4        15     9        0.000000        0.463445         1    ;  uncertainty k = 0.544884
         2         3         4        15     9      180.000000        7.807701         2    ;  uncertainty k = 0.817270
         2         3         4        15     9        0.000000        1.640989         3    ;  uncertainty k = 0.318182
         2         3         4        15     9      180.000000        0.389068         4    ;  uncertainty k = 0.234157
         2         3        16        17     9        0.000000        0.562638         1    ;  uncertainty k = 2.473037
         2         3        16        17     9      180.000000        4.453660         2    ;  uncertainty k = 1.236403
         2         3        16        17     9        0.000000       -0.243071         3    ;  uncertainty k = 0.584348
         2         3        16        17     9      180.000000        0.011309         4    ;  uncertainty k = 0.249195
         3         2         1         5     9        0.000000       -1.343735         1    ;  uncertainty k = 1.825069
         3         2         1         5     9      180.000000       12.410483         2    ;  uncertainty k = 0.765515
         3         2         1         5     9        0.000000       -3.924755         3    ;  uncertainty k = 1.286096
         3         2         1         5     9      180.000000        1.226932         4    ;  uncertainty k = 0.620813
         3         2         6         7     9        0.000000       -0.600971         1    ;  uncertainty k = 1.233380
         3         2         6         7     9      180.000000        2.750847         2    ;  uncertainty k = 0.470266
         3         2         6         7     9        0.000000        0.420307         3    ;  uncertainty k = 0.314900
         3         2         6         7     9      180.000000        0.072508         4    ;  uncertainty k = 0.103468
         3         2         6         8     9        0.000000       -0.600971         1    ;  uncertainty k = 1.233380
         3         2         6         8     9      180.000000        2.750847         2    ;  uncertainty k = 0.470266
         3         2         6         8     9        0.000000        0.420307         3    ;  uncertainty k = 0.314900
         3         2         6         8     9      180.000000        0.072508         4    ;  uncertainty k = 0.103468
         3         4         5         9     9        0.000000        0.194284         1    ;  uncertainty k = 0.219592
         3         4         5         9     9      180.000000       11.409582         2    ;  uncertainty k = 0.271107
         3         4         5         9     9        0.000000        1.980401         3    ;  uncertainty k = 0.456250
         3         4         5         9     9      180.000000        0.657823         4    ;  uncertainty k = 0.315054
         3        16        17        18     9        0.000000       -2.546996         1    ;  uncertainty k = 2.263476
         3        16        17        18     9      180.000000       -2.071281         2    ;  uncertainty k = 0.852216
         3        16        17        18     9        0.000000        0.377848         3    ;  uncertainty k = 0.447363
         3        16        17        18     9      180.000000        0.728091         4    ;  uncertainty k = 0.372243
         3        16        17        32     9        0.000000        1.943735         1    ;  uncertainty k = 0.725643
         3        16        17        32     9      180.000000       -1.013528         2    ;  uncertainty k = 0.770891
         3        16        17        32     9        0.000000        0.504468         3    ;  uncertainty k = 0.367188
         3        16        17        32     9      180.000000        0.022954         4    ;  uncertainty k = 0.163828
         3        16        17        33     9        0.000000        1.943735         1    ;  uncertainty k = 0.725643
         3        16        17        33     9      180.000000       -1.013528         2    ;  uncertainty k = 0.770891
         3        16        17        33     9        0.000000        0.504468         3    ;  uncertainty k = 0.367188
         3        16        17        33     9      180.000000        0.022954         4    ;  uncertainty k = 0.163828
         4         3         2         6     9        0.000000        0.750539         1    ;  uncertainty k = 1.420042
         4         3         2         6     9      180.000000        9.225337         2    ;  uncertainty k = 0.449657
         4         3         2         6     9        0.000000        2.146628         3    ;  uncertainty k = 0.096833
         4         3         2         6     9      180.000000        0.908103         4    ;  uncertainty k = 0.276689
         4         3        16        17     9        0.000000        4.003546         1    ;  uncertainty k = 2.209639
         4         3        16        17     9      180.000000        4.149396         2    ;  uncertainty k = 0.785914
         4         3        16        17     9        0.000000        0.594406         3    ;  uncertainty k = 0.772201
         4         3        16        17     9      180.000000       -0.129795         4    ;  uncertainty k = 0.090251
         4         5         9        10     9        0.000000        0.353515         1    ;  uncertainty k = 0.518464
         4         5         9        10     9      180.000000        2.904106         2    ;  uncertainty k = 0.313612
         4         5         9        10     9        0.000000        0.455749         3    ;  uncertainty k = 0.523304
         4         5         9        10     9      180.000000       -0.006953         4    ;  uncertainty k = 0.142758
         4         5         9        14     9        0.000000        0.468422         1    ;  uncertainty k = 0.543316
         4         5         9        14     9      180.000000        3.088237         2    ;  uncertainty k = 0.260629
         4         5         9        14     9        0.000000        0.475580         3    ;  uncertainty k = 0.388282
         4         5         9        14     9      180.000000       -0.025865         4    ;  uncertainty k = 0.122964
         5         1         2         6     9        0.000000        0.451497         1    ;  uncertainty k = 2.202869
         5         1         2         6     9      180.000000        8.209202         2    ;  uncertainty k = 0.569487
         5         1         2         6     9        0.000000        1.043882         3    ;  uncertainty k = 0.663821
         5         1         2         6     9      180.000000        0.550351         4    ;  uncertainty k = 0.309694
         5         4         3        16     9        0.000000        0.887263         1    ;  uncertainty k = 1.387606
         5         4         3        16     9      180.000000       11.850633         2    ;  uncertainty k = 0.768527
         5         4         3        16     9        0.000000        1.717065         3    ;  uncertainty k = 0.314044
         5         4         3        16     9      180.000000        0.438991         4    ;  uncertainty k = 0.459203
         5         9        10        11     9        0.000000        0.215494         1    ;  uncertainty k = 0.383663
         5         9        10        11     9      180.000000        8.822034         2    ;  uncertainty k = 0.578324
         5         9        10        11     9        0.000000        1.259536         3    ;  uncertainty k = 0.294337
         5         9        10        11     9      180.000000        1.579315         4    ;  uncertainty k = 0.186089
         5         9        10        28     9        0.000000       -0.118096         1    ;  uncertainty k = 0.464671
         5         9        10        28     9      180.000000        7.094356         2    ;  uncertainty k = 0.451824
         5         9        10        28     9        0.000000        0.693463         3    ;  uncertainty k = 0.250327
         5         9        10        28     9      180.000000        1.251162         4    ;  uncertainty k = 0.217118
         5         9        14        13     9        0.000000       -0.012159         1    ;  uncertainty k = 0.343542
         5         9        14        13     9      180.000000        9.008833         2    ;  uncertainty k = 0.493794
         5         9        14        13     9        0.000000        1.121536         3    ;  uncertainty k = 0.283096
         5         9        14        13     9      180.000000        1.726057         4    ;  uncertainty k = 0.162672
         5         9        14        31     9        0.000000       -0.167143         1    ;  uncertainty k = 0.574521
         5         9        14        31     9      180.000000        6.858649         2    ;  uncertainty k = 0.387138
         5         9        14        31     9        0.000000        0.754216         3    ;  uncertainty k = 0.222931
         5         9        14        31     9      180.000000        1.253932         4    ;  uncertainty k = 0.164620
         6         2         3        16     9        0.000000       -0.665249         1    ;  uncertainty k = 0.977507
         6         2         3        16     9      180.000000       11.691680         2    ;  uncertainty k = 0.581130
         6         2         3        16     9        0.000000        1.652052         3    ;  uncertainty k = 0.309495
         6         2         3        16     9      180.000000        0.410579         4    ;  uncertainty k = 0.549466
         9         5         4        15     9        0.000000        0.037386         1    ;  uncertainty k = 0.686408
         9         5         4        15     9      180.000000        8.650582         2    ;  uncertainty k = 0.563137
         9         5         4        15     9        0.000000        1.546341         3    ;  uncertainty k = 0.089957
         9         5         4        15     9      180.000000        0.838665         4    ;  uncertainty k = 0.167551
         9        10        11        12     9        0.000000       -0.074148         1    ;  uncertainty k = 0.332965
         9        10        11        12     9      180.000000        7.483719         2    ;  uncertainty k = 0.623420
         9        10        11        12     9        0.000000        0.428210         3    ;  uncertainty k = 0.279487
         9        10        11        12     9      180.000000        1.427985         4    ;  uncertainty k = 0.272185
         9        10        11        21     9        0.000000        0.198787         1    ;  uncertainty k = 0.768348
         9        10        11        21     9      180.000000        8.443007         2    ;  uncertainty k = 0.219758
         9        10        11        21     9        0.000000        0.953339         3    ;  uncertainty k = 0.181237
         9        10        11        21     9      180.000000        1.633836         4    ;  uncertainty k = 0.154905
         9        14        13        12     9        0.000000       -0.059272         1    ;  uncertainty k = 0.367616
         9        14        13        12     9      180.000000       14.573975         2    ;  uncertainty k = 0.295850
         9        14        13        12     9        0.000000       -1.019944         3    ;  uncertainty k = 0.445748
         9        14        13        12     9      180.000000        0.617677         4    ;  uncertainty k = 0.302018
         9        14        13        30     9        0.000000        0.069339         1    ;  uncertainty k = 0.069200
         9        14        13        30     9      180.000000        7.749906         2    ;  uncertainty k = 0.302242
         9        14        13        30     9        0.000000        1.324182         3    ;  uncertainty k = 0.264322
         9        14        13        30     9      180.000000        1.821714         4    ;  uncertainty k = 0.104858
        10         9        14        13     9        0.000000       -0.203690         1    ;  uncertainty k = 0.123253
        10         9        14        13     9      180.000000       11.480953         2    ;  uncertainty k = 0.260324
        10         9        14        13     9        0.000000       -0.404305         3    ;  uncertainty k = 0.248781
        10         9        14        13     9      180.000000        0.965820         4    ;  uncertainty k = 0.267591
        10         9        14        31     9        0.000000        0.150213         1    ;  uncertainty k = 0.316032
        10         9        14        31     9      180.000000        6.874749         2    ;  uncertainty k = 0.612333
        10         9        14        31     9        0.000000        1.482867         3    ;  uncertainty k = 0.213165
        10         9        14        31     9      180.000000        1.679697         4    ;  uncertainty k = 0.258977
        10        11        12        13     9        0.000000       -0.073712         1    ;  uncertainty k = 0.159132
        10        11        12        13     9      180.000000        7.945433         2    ;  uncertainty k = 0.728072
        10        11        12        13     9        0.000000        0.237869         3    ;  uncertainty k = 0.361995
        10        11        12        13     9      180.000000        1.328537         4    ;  uncertainty k = 0.358964
        10        11        12        29     9        0.000000        0.176090         1    ;  uncertainty k = 0.574540
        10        11        12        29     9      180.000000        5.845761         2    ;  uncertainty k = 0.726173
        10        11        12        29     9        0.000000        1.234507         3    ;  uncertainty k = 0.225381
        10        11        12        29     9      180.000000        1.458598         4    ;  uncertainty k = 0.177455
        10        11        21        22     9        0.000000        3.515334         1    ;  uncertainty k = 1.002502
        10        11        21        22     9      180.000000        6.915784         2    ;  uncertainty k = 0.173976
        10        11        21        22     9        0.000000        0.661961         3    ;  uncertainty k = 0.231346
        10        11        21        22     9      180.000000       -0.044676         4    ;  uncertainty k = 0.110723
        10        11        21        34     9        0.000000        4.482687         1    ;  uncertainty k = 0.529050
        10        11        21        34     9      180.000000        6.383244         2    ;  uncertainty k = 0.393911
        10        11        21        34     9        0.000000        0.758376         3    ;  uncertainty k = 0.283168
        10        11        21        34     9      180.000000       -0.346506         4    ;  uncertainty k = 0.045429
        11        10         9        14     9        0.000000       -0.102423         1    ;  uncertainty k = 0.211277
        11        10         9        14     9      180.000000       11.067681         2    ;  uncertainty k = 0.309326
        11        10         9        14     9        0.000000       -0.235296         3    ;  uncertainty k = 0.258684
        11        10         9        14     9      180.000000        0.977510         4    ;  uncertainty k = 0.143871
        11        12        13        14     9        0.000000       -0.191175         1    ;  uncertainty k = 0.296372
        11        12        13        14     9      180.000000       14.192922         2    ;  uncertainty k = 0.193875
        11        12        13        14     9        0.000000       -0.988808         3    ;  uncertainty k = 0.358747
        11        12        13        14     9      180.000000        0.689347         4    ;  uncertainty k = 0.215409
        11        12        13        30     9        0.000000        0.008745         1    ;  uncertainty k = 0.271105
        11        12        13        30     9      180.000000        7.906785         2    ;  uncertainty k = 0.355014
        11        12        13        30     9        0.000000        1.181555         3    ;  uncertainty k = 0.304014
        11        12        13        30     9      180.000000        1.549599         4    ;  uncertainty k = 0.193568
        11        21        22        23     9        0.000000       -0.120904         1    ;  uncertainty k = 0.709844
        11        21        22        23     9      180.000000       -0.092689         2    ;  uncertainty k = 0.185534
        11        21        22        23     9        0.000000        0.884037         3    ;  uncertainty k = 0.084795
        11        21        22        23     9      180.000000        0.320342         4    ;  uncertainty k = 0.096189
        11        21        22        27     9        0.000000       -0.120904         1    ;  uncertainty k = 0.709844
        11        21        22        27     9      180.000000       -0.092689         2    ;  uncertainty k = 0.185534
        11        21        22        27     9        0.000000        0.884037         3    ;  uncertainty k = 0.084795
        11        21        22        27     9      180.000000        0.320342         4    ;  uncertainty k = 0.096189
        11        21        22        35     9        0.000000       -1.599720         1    ;  uncertainty k = 0.458874
        11        21        22        35     9      180.000000       -1.192500         2    ;  uncertainty k = 0.403350
        11        21        22        35     9        0.000000        0.840353         3    ;  uncertainty k = 0.169196
        11        21        22        35     9      180.000000        0.305226         4    ;  uncertainty k = 0.078807
        12        11        10        28     9        0.000000        0.231149         1    ;  uncertainty k = 0.394154
        12        11        10        28     9      180.000000        5.904814         2    ;  uncertainty k = 0.574407
        12        11        10        28     9        0.000000        1.304281         3    ;  uncertainty k = 0.238156
        12        11        10        28     9      180.000000        1.559688         4    ;  uncertainty k = 0.176136
        12        11        21        22     9        0.000000        3.618496         1    ;  uncertainty k = 0.841209
        12        11        21        22     9      180.000000        6.769005         2    ;  uncertainty k = 0.212754
        12        11        21        22     9        0.000000        0.679563         3    ;  uncertainty k = 0.155929
        12        11        21        22     9      180.000000       -0.020771         4    ;  uncertainty k = 0.114311
        12        11        21        34     9        0.000000        4.502513         1    ;  uncertainty k = 0.398572
        12        11        21        34     9      180.000000        6.214549         2    ;  uncertainty k = 0.258080
        12        11        21        34     9        0.000000        0.834605         3    ;  uncertainty k = 0.184149
        12        11        21        34     9      180.000000       -0.343742         4    ;  uncertainty k = 0.049033
        12        13        14        31     9        0.000000        0.088368         1    ;  uncertainty k = 0.180682
        12        13        14        31     9      180.000000        7.766930         2    ;  uncertainty k = 0.210467
        12        13        14        31     9        0.000000        1.340742         3    ;  uncertainty k = 0.259609
        12        13        14        31     9      180.000000        1.860457         4    ;  uncertainty k = 0.145823
        13        12        11        21     9        0.000000        0.118225         1    ;  uncertainty k = 0.538316
        13        12        11        21     9      180.000000        8.475580         2    ;  uncertainty k = 0.275036
        13        12        11        21     9        0.000000        1.025381         3    ;  uncertainty k = 0.246262
        13        12        11        21     9      180.000000        1.590235         4    ;  uncertainty k = 0.099889
        14         9        10        28     9        0.000000        0.230556         1    ;  uncertainty k = 0.246255
        14         9        10        28     9      180.000000        7.165952         2    ;  uncertainty k = 0.381940
        14         9        10        28     9        0.000000        1.531849         3    ;  uncertainty k = 0.214497
        14         9        10        28     9      180.000000        1.622865         4    ;  uncertainty k = 0.218540
        14        13        12        29     9        0.000000        0.141650         1    ;  uncertainty k = 0.102849
        14        13        12        29     9      180.000000        8.103568         2    ;  uncertainty k = 0.348066
        14        13        12        29     9        0.000000        1.502037         3    ;  uncertainty k = 0.296762
        14        13        12        29     9      180.000000        1.786260         4    ;  uncertainty k = 0.120930
        15         4         3        16     9        0.000000       -0.300934         1    ;  uncertainty k = 0.650861
        15         4         3        16     9      180.000000        9.165092         2    ;  uncertainty k = 0.275746
        15         4         3        16     9        0.000000        1.456381         3    ;  uncertainty k = 0.310393
        15         4         3        16     9      180.000000        0.631618         4    ;  uncertainty k = 0.388932
        16        17        18        19     9        0.000000        1.079222         1    ;  uncertainty k = 0.841475
        16        17        18        19     9      180.000000        5.864588         2    ;  uncertainty k = 0.515928
        16        17        18        19     9        0.000000        1.140649         3    ;  uncertainty k = 0.463168
        16        17        18        19     9      180.000000        0.279519         4    ;  uncertainty k = 0.238932
        16        17        18        20     9        0.000000        1.079222         1    ;  uncertainty k = 0.841475
        16        17        18        20     9      180.000000        5.864588         2    ;  uncertainty k = 0.515928
        16        17        18        20     9        0.000000        1.140649         3    ;  uncertainty k = 0.463168
        16        17        18        20     9      180.000000        0.279519         4    ;  uncertainty k = 0.238932
        19        18        17        32     9        0.000000       -2.498422         1    ;  uncertainty k = 1.124580
        19        18        17        32     9      180.000000        1.806048         2    ;  uncertainty k = 0.648461
        19        18        17        32     9        0.000000        0.840718         3    ;  uncertainty k = 0.199496
        19        18        17        32     9      180.000000        0.238884         4    ;  uncertainty k = 0.091169
        19        18        17        33     9        0.000000       -2.498422         1    ;  uncertainty k = 1.124580
        19        18        17        33     9      180.000000        1.806048         2    ;  uncertainty k = 0.648461
        19        18        17        33     9        0.000000        0.840718         3    ;  uncertainty k = 0.199496
        19        18        17        33     9      180.000000        0.238884         4    ;  uncertainty k = 0.091169
        20        18        17        32     9        0.000000       -2.498422         1    ;  uncertainty k = 1.124580
        20        18        17        32     9      180.000000        1.806048         2    ;  uncertainty k = 0.648461
        20        18        17        32     9        0.000000        0.840718         3    ;  uncertainty k = 0.199496
        20        18        17        32     9      180.000000        0.238884         4    ;  uncertainty k = 0.091169
        20        18        17        33     9        0.000000       -2.498422         1    ;  uncertainty k = 1.124580
        20        18        17        33     9      180.000000        1.806048         2    ;  uncertainty k = 0.648461
        20        18        17        33     9        0.000000        0.840718         3    ;  uncertainty k = 0.199496
        20        18        17        33     9      180.000000        0.238884         4    ;  uncertainty k = 0.091169
        21        11        10        28     9        0.000000       -0.369134         1    ;  uncertainty k = 0.186930
        21        11        10        28     9      180.000000        7.354739         2    ;  uncertainty k = 0.490051
        21        11        10        28     9        0.000000        0.906059         3    ;  uncertainty k = 0.197217
        21        11        10        28     9      180.000000        1.099601         4    ;  uncertainty k = 0.210423
        21        11        12        29     9        0.000000       -0.233535         1    ;  uncertainty k = 0.306473
        21        11        12        29     9      180.000000        7.280425         2    ;  uncertainty k = 0.373474
        21        11        12        29     9        0.000000        0.953454         3    ;  uncertainty k = 0.274976
        21        11        12        29     9      180.000000        1.058261         4    ;  uncertainty k = 0.192397
        21        22        23        24     9        0.000000       -3.279427         1    ;  uncertainty k = 0.965506
        21        22        23        24     9      180.000000       -0.246173         2    ;  uncertainty k = 0.506759
        21        22        23        24     9        0.000000        1.371357         3    ;  uncertainty k = 0.253783
        21        22        23        24     9      180.000000       -0.104624         4    ;  uncertainty k = 0.191630
        21        22        23        36     9        0.000000       -0.497761         1    ;  uncertainty k = 0.134090
        21        22        23        36     9      180.000000       -0.310732         2    ;  uncertainty k = 0.232371
        21        22        23        36     9        0.000000        1.070612         3    ;  uncertainty k = 0.260387
        21        22        23        36     9      180.000000       -0.129826         4    ;  uncertainty k = 0.041450
        21        22        23        37     9        0.000000       -0.497761         1    ;  uncertainty k = 0.134090
        21        22        23        37     9      180.000000       -0.310732         2    ;  uncertainty k = 0.232371
        21        22        23        37     9        0.000000        1.070612         3    ;  uncertainty k = 0.260387
        21        22        23        37     9      180.000000       -0.129826         4    ;  uncertainty k = 0.041450
        21        22        27        26     9        0.000000       -3.279427         1    ;  uncertainty k = 0.965506
        21        22        27        26     9      180.000000       -0.246173         2    ;  uncertainty k = 0.506759
        21        22        27        26     9        0.000000        1.371357         3    ;  uncertainty k = 0.253783
        21        22        27        26     9      180.000000       -0.104624         4    ;  uncertainty k = 0.191630
        21        22        27        38     9        0.000000       -0.497761         1    ;  uncertainty k = 0.134090
        21        22        27        38     9      180.000000       -0.310732         2    ;  uncertainty k = 0.232371
        21        22        27        38     9        0.000000        1.070612         3    ;  uncertainty k = 0.260387
        21        22        27        38     9      180.000000       -0.129826         4    ;  uncertainty k = 0.041450
        21        22        27        39     9        0.000000       -0.497761         1    ;  uncertainty k = 0.134090
        21        22        27        39     9      180.000000       -0.310732         2    ;  uncertainty k = 0.232371
        21        22        27        39     9        0.000000        1.070612         3    ;  uncertainty k = 0.260387
        21        22        27        39     9      180.000000       -0.129826         4    ;  uncertainty k = 0.041450
        22        23        24        25     9        0.000000       -0.693518         1    ;  uncertainty k = 2.730011
        22        23        24        25     9      180.000000       -0.575677         2    ;  uncertainty k = 0.606559
        22        23        24        25     9        0.000000        0.400015         3    ;  uncertainty k = 0.483708
        22        23        24        25     9      180.000000       -0.918921         4    ;  uncertainty k = 0.174217
        22        23        24        48     9        0.000000       -3.630632         1    ;  uncertainty k = 0.789919
        22        23        24        48     9      180.000000        0.808509         2    ;  uncertainty k = 0.461866
        22        23        24        48     9        0.000000        0.426380         3    ;  uncertainty k = 0.174619
        22        23        24        48     9      180.000000       -0.075807         4    ;  uncertainty k = 0.091807
        22        23        24        52     9        0.000000       -3.630632         1    ;  uncertainty k = 0.789919
        22        23        24        52     9      180.000000        0.808509         2    ;  uncertainty k = 0.461866
        22        23        24        52     9        0.000000        0.426380         3    ;  uncertainty k = 0.174619
        22        23        24        52     9      180.000000       -0.075807         4    ;  uncertainty k = 0.091807
        22        27        26        25     9        0.000000       -0.693518         1    ;  uncertainty k = 2.730011
        22        27        26        25     9      180.000000       -0.575677         2    ;  uncertainty k = 0.606559
        22        27        26        25     9        0.000000        0.400015         3    ;  uncertainty k = 0.483708
        22        27        26        25     9      180.000000       -0.918921         4    ;  uncertainty k = 0.174217
        22        27        26        40     9        0.000000       -3.630632         1    ;  uncertainty k = 0.789919
        22        27        26        40     9      180.000000        0.808509         2    ;  uncertainty k = 0.461866
        22        27        26        40     9        0.000000        0.426380         3    ;  uncertainty k = 0.174619
        22        27        26        40     9      180.000000       -0.075807         4    ;  uncertainty k = 0.091807
        22        27        26        44     9        0.000000       -3.630632         1    ;  uncertainty k = 0.789919
        22        27        26        44     9      180.000000        0.808509         2    ;  uncertainty k = 0.461866
        22        27        26        44     9        0.000000        0.426380         3    ;  uncertainty k = 0.174619
        22        27        26        44     9      180.000000       -0.075807         4    ;  uncertainty k = 0.091807
        23        22        21        34     9        0.000000        3.420334         1    ;  uncertainty k = 0.284395
        23        22        21        34     9      180.000000       -1.629918         2    ;  uncertainty k = 0.471672
        23        22        21        34     9        0.000000        0.296347         3    ;  uncertainty k = 0.133711
        23        22        21        34     9      180.000000        0.144198         4    ;  uncertainty k = 0.100162
        23        22        27        26     9        0.000000       -1.917168         1    ;  uncertainty k = 1.863847
        23        22        27        26     9      180.000000        0.384757         2    ;  uncertainty k = 0.481504
        23        22        27        26     9        0.000000        0.659584         3    ;  uncertainty k = 0.192075
        23        22        27        26     9      180.000000       -1.165978         4    ;  uncertainty k = 0.064093
        23        22        27        38     9        0.000000       -1.591387         1    ;  uncertainty k = 0.317862
        23        22        27        38     9      180.000000       -0.129734         2    ;  uncertainty k = 0.160809
        23        22        27        38     9        0.000000        0.082234         3    ;  uncertainty k = 0.101746
        23        22        27        38     9      180.000000       -0.082186         4    ;  uncertainty k = 0.052125
        23        22        27        39     9        0.000000       -1.591387         1    ;  uncertainty k = 0.317862
        23        22        27        39     9      180.000000       -0.129734         2    ;  uncertainty k = 0.160809
        23        22        27        39     9        0.000000        0.082234         3    ;  uncertainty k = 0.101746
        23        22        27        39     9      180.000000       -0.082186         4    ;  uncertainty k = 0.052125
        23        24        25        26     9        0.000000        4.752860         1    ;  uncertainty k = 2.617396
        23        24        25        26     9      180.000000       -1.110333         2    ;  uncertainty k = 0.668046
        23        24        25        26     9        0.000000       -0.050018         3    ;  uncertainty k = 0.557107
        23        24        25        26     9      180.000000       -0.877852         4    ;  uncertainty k = 0.266153
        23        24        25        56     9        0.000000       -1.111533         1    ;  uncertainty k = 0.479985
        23        24        25        56     9      180.000000       -0.467404         2    ;  uncertainty k = 0.154681
        23        24        25        56     9        0.000000       -0.153623         3    ;  uncertainty k = 0.084457
        23        24        25        56     9      180.000000       -0.095212         4    ;  uncertainty k = 0.052352
        23        24        25        57     9        0.000000       -1.111533         1    ;  uncertainty k = 0.479985
        23        24        25        57     9      180.000000       -0.467404         2    ;  uncertainty k = 0.154681
        23        24        25        57     9        0.000000       -0.153623         3    ;  uncertainty k = 0.084457
        23        24        25        57     9      180.000000       -0.095212         4    ;  uncertainty k = 0.052352
        23        24        48        49     9        0.000000       -0.576873         1    ;  uncertainty k = 0.361370
        23        24        48        49     9      180.000000       -0.787810         2    ;  uncertainty k = 0.236017
        23        24        48        49     9        0.000000        0.626393         3    ;  uncertainty k = 0.065722
        23        24        48        49     9      180.000000       -0.165677         4    ;  uncertainty k = 0.051985
        23        24        48        50     9        0.000000       -0.576873         1    ;  uncertainty k = 0.361370
        23        24        48        50     9      180.000000       -0.787810         2    ;  uncertainty k = 0.236017
        23        24        48        50     9        0.000000        0.626393         3    ;  uncertainty k = 0.065722
        23        24        48        50     9      180.000000       -0.165677         4    ;  uncertainty k = 0.051985
        23        24        48        51     9        0.000000       -0.576873         1    ;  uncertainty k = 0.361370
        23        24        48        51     9      180.000000       -0.787810         2    ;  uncertainty k = 0.236017
        23        24        48        51     9        0.000000        0.626393         3    ;  uncertainty k = 0.065722
        23        24        48        51     9      180.000000       -0.165677         4    ;  uncertainty k = 0.051985
        23        24        52        53     9        0.000000       -0.576873         1    ;  uncertainty k = 0.361370
        23        24        52        53     9      180.000000       -0.787810         2    ;  uncertainty k = 0.236017
        23        24        52        53     9        0.000000        0.626393         3    ;  uncertainty k = 0.065722
        23        24        52        53     9      180.000000       -0.165677         4    ;  uncertainty k = 0.051985
        23        24        52        54     9        0.000000       -0.576873         1    ;  uncertainty k = 0.361370
        23        24        52        54     9      180.000000       -0.787810         2    ;  uncertainty k = 0.236017
        23        24        52        54     9        0.000000        0.626393         3    ;  uncertainty k = 0.065722
        23        24        52        54     9      180.000000       -0.165677         4    ;  uncertainty k = 0.051985
        23        24        52        55     9        0.000000       -0.576873         1    ;  uncertainty k = 0.361370
        23        24        52        55     9      180.000000       -0.787810         2    ;  uncertainty k = 0.236017
        23        24        52        55     9        0.000000        0.626393         3    ;  uncertainty k = 0.065722
        23        24        52        55     9      180.000000       -0.165677         4    ;  uncertainty k = 0.051985
        24        23        22        27     9        0.000000       -1.917168         1    ;  uncertainty k = 1.863847
        24        23        22        27     9      180.000000        0.384757         2    ;  uncertainty k = 0.481504
        24        23        22        27     9        0.000000        0.659584         3    ;  uncertainty k = 0.192075
        24        23        22        27     9      180.000000       -1.165978         4    ;  uncertainty k = 0.064093
        24        23        22        35     9        0.000000        0.064012         1    ;  uncertainty k = 0.672287
        24        23        22        35     9      180.000000       -0.892587         2    ;  uncertainty k = 0.298490
        24        23        22        35     9        0.000000       -0.102908         3    ;  uncertainty k = 0.077901
        24        23        22        35     9      180.000000       -0.100598         4    ;  uncertainty k = 0.125035
        24        25        26        27     9        0.000000        4.752860         1    ;  uncertainty k = 2.617396
        24        25        26        27     9      180.000000       -1.110333         2    ;  uncertainty k = 0.668046
        24        25        26        27     9        0.000000       -0.050018         3    ;  uncertainty k = 0.557107
        24        25        26        27     9      180.000000       -0.877852         4    ;  uncertainty k = 0.266153
        24        25        26        40     9        0.000000       -2.957611         1    ;  uncertainty k = 0.569898
        24        25        26        40     9      180.000000        0.698540         2    ;  uncertainty k = 0.432419
        24        25        26        40     9        0.000000        0.487746         3    ;  uncertainty k = 0.144214
        24        25        26        40     9      180.000000       -0.048375         4    ;  uncertainty k = 0.084005
        24        25        26        44     9        0.000000       -2.957611         1    ;  uncertainty k = 0.569898
        24        25        26        44     9      180.000000        0.698540         2    ;  uncertainty k = 0.432419
        24        25        26        44     9        0.000000        0.487746         3    ;  uncertainty k = 0.144214
        24        25        26        44     9      180.000000       -0.048375         4    ;  uncertainty k = 0.084005
        25        24        23        36     9        0.000000       -1.064719         1    ;  uncertainty k = 0.435621
        25        24        23        36     9      180.000000       -0.468461         2    ;  uncertainty k = 0.284710
        25        24        23        36     9        0.000000       -0.123208         3    ;  uncertainty k = 0.099680
        25        24        23        36     9      180.000000       -0.078291         4    ;  uncertainty k = 0.058455
        25        24        23        37     9        0.000000       -1.064719         1    ;  uncertainty k = 0.435621
        25        24        23        37     9      180.000000       -0.468461         2    ;  uncertainty k = 0.284710
        25        24        23        37     9        0.000000       -0.123208         3    ;  uncertainty k = 0.099680
        25        24        23        37     9      180.000000       -0.078291         4    ;  uncertainty k = 0.058455
        25        24        48        49     9        0.000000       -0.560646         1    ;  uncertainty k = 0.352966
        25        24        48        49     9      180.000000       -0.771000         2    ;  uncertainty k = 0.276730
        25        24        48        49     9        0.000000        0.603989         3    ;  uncertainty k = 0.044091
        25        24        48        49     9      180.000000       -0.184517         4    ;  uncertainty k = 0.065415
        25        24        48        50     9        0.000000       -0.560646         1    ;  uncertainty k = 0.352966
        25        24        48        50     9      180.000000       -0.771000         2    ;  uncertainty k = 0.276730
        25        24        48        50     9        0.000000        0.603989         3    ;  uncertainty k = 0.044091
        25        24        48        50     9      180.000000       -0.184517         4    ;  uncertainty k = 0.065415
        25        24        48        51     9        0.000000       -0.560646         1    ;  uncertainty k = 0.352966
        25        24        48        51     9      180.000000       -0.771000         2    ;  uncertainty k = 0.276730
        25        24        48        51     9        0.000000        0.603989         3    ;  uncertainty k = 0.044091
        25        24        48        51     9      180.000000       -0.184517         4    ;  uncertainty k = 0.065415
        25        24        52        53     9        0.000000       -0.560646         1    ;  uncertainty k = 0.352966
        25        24        52        53     9      180.000000       -0.771000         2    ;  uncertainty k = 0.276730
        25        24        52        53     9        0.000000        0.603989         3    ;  uncertainty k = 0.044091
        25        24        52        53     9      180.000000       -0.184517         4    ;  uncertainty k = 0.065415
        25        24        52        54     9        0.000000       -0.560646         1    ;  uncertainty k = 0.352966
        25        24        52        54     9      180.000000       -0.771000         2    ;  uncertainty k = 0.276730
        25        24        52        54     9        0.000000        0.603989         3    ;  uncertainty k = 0.044091
        25        24        52        54     9      180.000000       -0.184517         4    ;  uncertainty k = 0.065415
        25        24        52        55     9        0.000000       -0.560646         1    ;  uncertainty k = 0.352966
        25        24        52        55     9      180.000000       -0.771000         2    ;  uncertainty k = 0.276730
        25        24        52        55     9        0.000000        0.603989         3    ;  uncertainty k = 0.044091
        25        24        52        55     9      180.000000       -0.184517         4    ;  uncertainty k = 0.065415
        25        26        27        38     9        0.000000       -1.064719         1    ;  uncertainty k = 0.435621
        25        26        27        38     9      180.000000       -0.468461         2    ;  uncertainty k = 0.284710
        25        26        27        38     9        0.000000       -0.123208         3    ;  uncertainty k = 0.099680
        25        26        27        38     9      180.000000       -0.078291         4    ;  uncertainty k = 0.058455
        25        26        27        39     9        0.000000       -1.064719         1    ;  uncertainty k = 0.435621
        25        26        27        39     9      180.000000       -0.468461         2    ;  uncertainty k = 0.284710
        25        26        27        39     9        0.000000       -0.123208         3    ;  uncertainty k = 0.099680
        25        26        27        39     9      180.000000       -0.078291         4    ;  uncertainty k = 0.058455
        25        26        40        41     9        0.000000       -0.560646         1    ;  uncertainty k = 0.352966
        25        26        40        41     9      180.000000       -0.771000         2    ;  uncertainty k = 0.276730
        25        26        40        41     9        0.000000        0.603989         3    ;  uncertainty k = 0.044091
        25        26        40        41     9      180.000000       -0.184517         4    ;  uncertainty k = 0.065415
        25        26        40        42     9        0.000000       -0.560646         1    ;  uncertainty k = 0.352966
        25        26        40        42     9      180.000000       -0.771000         2    ;  uncertainty k = 0.276730
        25        26        40        42     9        0.000000        0.603989         3    ;  uncertainty k = 0.044091
        25        26        40        42     9      180.000000       -0.184517         4    ;  uncertainty k = 0.065415
        25        26        40        43     9        0.000000       -0.560646         1    ;  uncertainty k = 0.352966
        25        26        40        43     9      180.000000       -0.771000         2    ;  uncertainty k = 0.276730
        25        26        40        43     9        0.000000        0.603989         3    ;  uncertainty k = 0.044091
        25        26        40        43     9      180.000000       -0.184517         4    ;  uncertainty k = 0.065415
        25        26        44        45     9        0.000000       -0.560646         1    ;  uncertainty k = 0.352966
        25        26        44        45     9      180.000000       -0.771000         2    ;  uncertainty k = 0.276730
        25        26        44        45     9        0.000000        0.603989         3    ;  uncertainty k = 0.044091
        25        26        44        45     9      180.000000       -0.184517         4    ;  uncertainty k = 0.065415
        25        26        44        46     9        0.000000       -0.560646         1    ;  uncertainty k = 0.352966
        25        26        44        46     9      180.000000       -0.771000         2    ;  uncertainty k = 0.276730
        25        26        44        46     9        0.000000        0.603989         3    ;  uncertainty k = 0.044091
        25        26        44        46     9      180.000000       -0.184517         4    ;  uncertainty k = 0.065415
        25        26        44        47     9        0.000000       -0.560646         1    ;  uncertainty k = 0.352966
        25        26        44        47     9      180.000000       -0.771000         2    ;  uncertainty k = 0.276730
        25        26        44        47     9        0.000000        0.603989         3    ;  uncertainty k = 0.044091
        25        26        44        47     9      180.000000       -0.184517         4    ;  uncertainty k = 0.065415
        26        25        24        48     9        0.000000       -2.957611         1    ;  uncertainty k = 0.569898
        26        25        24        48     9      180.000000        0.698540         2    ;  uncertainty k = 0.432419
        26        25        24        48     9        0.000000        0.487746         3    ;  uncertainty k = 0.144214
        26        25        24        48     9      180.000000       -0.048375         4    ;  uncertainty k = 0.084005
        26        25        24        52     9        0.000000       -2.957611         1    ;  uncertainty k = 0.569898
        26        25        24        52     9      180.000000        0.698540         2    ;  uncertainty k = 0.432419
        26        25        24        52     9        0.000000        0.487746         3    ;  uncertainty k = 0.144214
        26        25        24        52     9      180.000000       -0.048375         4    ;  uncertainty k = 0.084005
        26        27        22        35     9        0.000000        0.064012         1    ;  uncertainty k = 0.672287
        26        27        22        35     9      180.000000       -0.892587         2    ;  uncertainty k = 0.298490
        26        27        22        35     9        0.000000       -0.102908         3    ;  uncertainty k = 0.077901
        26        27        22        35     9      180.000000       -0.100598         4    ;  uncertainty k = 0.125035
        27        22        21        34     9        0.000000        3.420334         1    ;  uncertainty k = 0.284395
        27        22        21        34     9      180.000000       -1.629918         2    ;  uncertainty k = 0.471672
        27        22        21        34     9        0.000000        0.296347         3    ;  uncertainty k = 0.133711
        27        22        21        34     9      180.000000        0.144198         4    ;  uncertainty k = 0.100162
        27        22        23        36     9        0.000000       -1.591387         1    ;  uncertainty k = 0.317862
        27        22        23        36     9      180.000000       -0.129734         2    ;  uncertainty k = 0.160809
        27        22        23        36     9        0.000000        0.082234         3    ;  uncertainty k = 0.101746
        27        22        23        36     9      180.000000       -0.082186         4    ;  uncertainty k = 0.052125
        27        22        23        37     9        0.000000       -1.591387         1    ;  uncertainty k = 0.317862
        27        22        23        37     9      180.000000       -0.129734         2    ;  uncertainty k = 0.160809
        27        22        23        37     9        0.000000        0.082234         3    ;  uncertainty k = 0.101746
        27        22        23        37     9      180.000000       -0.082186         4    ;  uncertainty k = 0.052125
        27        26        25        56     9        0.000000       -1.111533         1    ;  uncertainty k = 0.479985
        27        26        25        56     9      180.000000       -0.467404         2    ;  uncertainty k = 0.154681
        27        26        25        56     9        0.000000       -0.153623         3    ;  uncertainty k = 0.084457
        27        26        25        56     9      180.000000       -0.095212         4    ;  uncertainty k = 0.052352
        27        26        25        57     9        0.000000       -1.111533         1    ;  uncertainty k = 0.479985
        27        26        25        57     9      180.000000       -0.467404         2    ;  uncertainty k = 0.154681
        27        26        25        57     9        0.000000       -0.153623         3    ;  uncertainty k = 0.084457
        27        26        25        57     9      180.000000       -0.095212         4    ;  uncertainty k = 0.052352
        27        26        40        41     9        0.000000       -0.576873         1    ;  uncertainty k = 0.361370
        27        26        40        41     9      180.000000       -0.787810         2    ;  uncertainty k = 0.236017
        27        26        40        41     9        0.000000        0.626393         3    ;  uncertainty k = 0.065722
        27        26        40        41     9      180.000000       -0.165677         4    ;  uncertainty k = 0.051985
        27        26        40        42     9        0.000000       -0.576873         1    ;  uncertainty k = 0.361370
        27        26        40        42     9      180.000000       -0.787810         2    ;  uncertainty k = 0.236017
        27        26        40        42     9        0.000000        0.626393         3    ;  uncertainty k = 0.065722
        27        26        40        42     9      180.000000       -0.165677         4    ;  uncertainty k = 0.051985
        27        26        40        43     9        0.000000       -0.576873         1    ;  uncertainty k = 0.361370
        27        26        40        43     9      180.000000       -0.787810         2    ;  uncertainty k = 0.236017
        27        26        40        43     9        0.000000        0.626393         3    ;  uncertainty k = 0.065722
        27        26        40        43     9      180.000000       -0.165677         4    ;  uncertainty k = 0.051985
        27        26        44        45     9        0.000000       -0.576873         1    ;  uncertainty k = 0.361370
        27        26        44        45     9      180.000000       -0.787810         2    ;  uncertainty k = 0.236017
        27        26        44        45     9        0.000000        0.626393         3    ;  uncertainty k = 0.065722
        27        26        44        45     9      180.000000       -0.165677         4    ;  uncertainty k = 0.051985
        27        26        44        46     9        0.000000       -0.576873         1    ;  uncertainty k = 0.361370
        27        26        44        46     9      180.000000       -0.787810         2    ;  uncertainty k = 0.236017
        27        26        44        46     9        0.000000        0.626393         3    ;  uncertainty k = 0.065722
        27        26        44        46     9      180.000000       -0.165677         4    ;  uncertainty k = 0.051985
        27        26        44        47     9        0.000000       -0.576873         1    ;  uncertainty k = 0.361370
        27        26        44        47     9      180.000000       -0.787810         2    ;  uncertainty k = 0.236017
        27        26        44        47     9        0.000000        0.626393         3    ;  uncertainty k = 0.065722
        27        26        44        47     9      180.000000       -0.165677         4    ;  uncertainty k = 0.051985
        29        12        13        30     9        0.000000       -0.030964         1    ;  uncertainty k = 0.241397
        29        12        13        30     9      180.000000        7.640900         2    ;  uncertainty k = 0.355361
        29        12        13        30     9        0.000000       -0.381487         3    ;  uncertainty k = 0.259502
        29        12        13        30     9      180.000000        0.184223         4    ;  uncertainty k = 0.153158
        30        13        14        31     9        0.000000       -0.050526         1    ;  uncertainty k = 0.285711
        30        13        14        31     9      180.000000        7.657891         2    ;  uncertainty k = 0.366062
        30        13        14        31     9        0.000000       -0.453043         3    ;  uncertainty k = 0.297900
        30        13        14        31     9      180.000000        0.118834         4    ;  uncertainty k = 0.128780
        34        21        22        35     9        0.000000        2.127858         1    ;  uncertainty k = 0.505358
        34        21        22        35     9      180.000000       -3.240389         2    ;  uncertainty k = 0.479990
        34        21        22        35     9        0.000000       -0.026374         3    ;  uncertainty k = 0.145465
        34        21        22        35     9      180.000000        0.152645         4    ;  uncertainty k = 0.065109
        35        22        23        36     9        0.000000        1.411644         1    ;  uncertainty k = 0.435646
        35        22        23        36     9      180.000000       -0.420845         2    ;  uncertainty k = 0.236459
        35        22        23        36     9        0.000000       -0.016428         3    ;  uncertainty k = 0.182066
        35        22        23        36     9      180.000000        0.031494         4    ;  uncertainty k = 0.043598
        35        22        23        37     9        0.000000        1.411644         1    ;  uncertainty k = 0.435646
        35        22        23        37     9      180.000000       -0.420845         2    ;  uncertainty k = 0.236459
        35        22        23        37     9        0.000000       -0.016428         3    ;  uncertainty k = 0.182066
        35        22        23        37     9      180.000000        0.031494         4    ;  uncertainty k = 0.043598
        35        22        27        38     9        0.000000        1.411644         1    ;  uncertainty k = 0.435646
        35        22        27        38     9      180.000000       -0.420845         2    ;  uncertainty k = 0.236459
        35        22        27        38     9        0.000000       -0.016428         3    ;  uncertainty k = 0.182066
        35        22        27        38     9      180.000000        0.031494         4    ;  uncertainty k = 0.043598
        35        22        27        39     9        0.000000        1.411644         1    ;  uncertainty k = 0.435646
        35        22        27        39     9      180.000000       -0.420845         2    ;  uncertainty k = 0.236459
        35        22        27        39     9        0.000000       -0.016428         3    ;  uncertainty k = 0.182066
        35        22        27        39     9      180.000000        0.031494         4    ;  uncertainty k = 0.043598
        36        23        24        48     9        0.000000       -0.156430         1    ;  uncertainty k = 0.241676
        36        23        24        48     9      180.000000       -0.205857         2    ;  uncertainty k = 0.324466
        36        23        24        48     9        0.000000        0.326062         3    ;  uncertainty k = 0.115830
        36        23        24        48     9      180.000000       -0.090636         4    ;  uncertainty k = 0.055024
        36        23        24        52     9        0.000000       -0.156430         1    ;  uncertainty k = 0.241676
        36        23        24        52     9      180.000000       -0.205857         2    ;  uncertainty k = 0.324466
        36        23        24        52     9        0.000000        0.326062         3    ;  uncertainty k = 0.115830
        36        23        24        52     9      180.000000       -0.090636         4    ;  uncertainty k = 0.055024
        37        23        24        48     9        0.000000       -0.156430         1    ;  uncertainty k = 0.241676
        37        23        24        48     9      180.000000       -0.205857         2    ;  uncertainty k = 0.324466
        37        23        24        48     9        0.000000        0.326062         3    ;  uncertainty k = 0.115830
        37        23        24        48     9      180.000000       -0.090636         4    ;  uncertainty k = 0.055024
        37        23        24        52     9        0.000000       -0.156430         1    ;  uncertainty k = 0.241676
        37        23        24        52     9      180.000000       -0.205857         2    ;  uncertainty k = 0.324466
        37        23        24        52     9        0.000000        0.326062         3    ;  uncertainty k = 0.115830
        37        23        24        52     9      180.000000       -0.090636         4    ;  uncertainty k = 0.055024
        38        27        26        40     9        0.000000       -0.156430         1    ;  uncertainty k = 0.241676
        38        27        26        40     9      180.000000       -0.205857         2    ;  uncertainty k = 0.324466
        38        27        26        40     9        0.000000        0.326062         3    ;  uncertainty k = 0.115830
        38        27        26        40     9      180.000000       -0.090636         4    ;  uncertainty k = 0.055024
        38        27        26        44     9        0.000000       -0.156430         1    ;  uncertainty k = 0.241676
        38        27        26        44     9      180.000000       -0.205857         2    ;  uncertainty k = 0.324466
        38        27        26        44     9        0.000000        0.326062         3    ;  uncertainty k = 0.115830
        38        27        26        44     9      180.000000       -0.090636         4    ;  uncertainty k = 0.055024
        39        27        26        40     9        0.000000       -0.156430         1    ;  uncertainty k = 0.241676
        39        27        26        40     9      180.000000       -0.205857         2    ;  uncertainty k = 0.324466
        39        27        26        40     9        0.000000        0.326062         3    ;  uncertainty k = 0.115830
        39        27        26        40     9      180.000000       -0.090636         4    ;  uncertainty k = 0.055024
        39        27        26        44     9        0.000000       -0.156430         1    ;  uncertainty k = 0.241676
        39        27        26        44     9      180.000000       -0.205857         2    ;  uncertainty k = 0.324466
        39        27        26        44     9        0.000000        0.326062         3    ;  uncertainty k = 0.115830
        39        27        26        44     9      180.000000       -0.090636         4    ;  uncertainty k = 0.055024
        40        26        25        56     9        0.000000       -0.089985         1    ;  uncertainty k = 0.205789
        40        26        25        56     9      180.000000       -0.189608         2    ;  uncertainty k = 0.317122
        40        26        25        56     9        0.000000        0.291251         3    ;  uncertainty k = 0.134772
        40        26        25        56     9      180.000000       -0.101829         4    ;  uncertainty k = 0.064308
        40        26        25        57     9        0.000000       -0.089985         1    ;  uncertainty k = 0.205789
        40        26        25        57     9      180.000000       -0.189608         2    ;  uncertainty k = 0.317122
        40        26        25        57     9        0.000000        0.291251         3    ;  uncertainty k = 0.134772
        40        26        25        57     9      180.000000       -0.101829         4    ;  uncertainty k = 0.064308
        40        26        44        45     9        0.000000       -1.091403         1    ;  uncertainty k = 0.314023
        40        26        44        45     9      180.000000       -0.166111         2    ;  uncertainty k = 0.187698
        40        26        44        45     9        0.000000        0.787800         3    ;  uncertainty k = 0.067666
        40        26        44        45     9      180.000000       -0.135108         4    ;  uncertainty k = 0.057049
        40        26        44        46     9        0.000000       -1.091403         1    ;  uncertainty k = 0.314023
        40        26        44        46     9      180.000000       -0.166111         2    ;  uncertainty k = 0.187698
        40        26        44        46     9        0.000000        0.787800         3    ;  uncertainty k = 0.067666
        40        26        44        46     9      180.000000       -0.135108         4    ;  uncertainty k = 0.057049
        40        26        44        47     9        0.000000       -1.091403         1    ;  uncertainty k = 0.314023
        40        26        44        47     9      180.000000       -0.166111         2    ;  uncertainty k = 0.187698
        40        26        44        47     9        0.000000        0.787800         3    ;  uncertainty k = 0.067666
        40        26        44        47     9      180.000000       -0.135108         4    ;  uncertainty k = 0.057049
        41        40        26        44     9        0.000000       -1.091403         1    ;  uncertainty k = 0.314023
        41        40        26        44     9      180.000000       -0.166111         2    ;  uncertainty k = 0.187698
        41        40        26        44     9        0.000000        0.787800         3    ;  uncertainty k = 0.067666
        41        40        26        44     9      180.000000       -0.135108         4    ;  uncertainty k = 0.057049
        42        40        26        44     9        0.000000       -1.091403         1    ;  uncertainty k = 0.314023
        42        40        26        44     9      180.000000       -0.166111         2    ;  uncertainty k = 0.187698
        42        40        26        44     9        0.000000        0.787800         3    ;  uncertainty k = 0.067666
        42        40        26        44     9      180.000000       -0.135108         4    ;  uncertainty k = 0.057049
        43        40        26        44     9        0.000000       -1.091403         1    ;  uncertainty k = 0.314023
        43        40        26        44     9      180.000000       -0.166111         2    ;  uncertainty k = 0.187698
        43        40        26        44     9        0.000000        0.787800         3    ;  uncertainty k = 0.067666
        43        40        26        44     9      180.000000       -0.135108         4    ;  uncertainty k = 0.057049
        44        26        25        56     9        0.000000       -0.089985         1    ;  uncertainty k = 0.205789
        44        26        25        56     9      180.000000       -0.189608         2    ;  uncertainty k = 0.317122
        44        26        25        56     9        0.000000        0.291251         3    ;  uncertainty k = 0.134772
        44        26        25        56     9      180.000000       -0.101829         4    ;  uncertainty k = 0.064308
        44        26        25        57     9        0.000000       -0.089985         1    ;  uncertainty k = 0.205789
        44        26        25        57     9      180.000000       -0.189608         2    ;  uncertainty k = 0.317122
        44        26        25        57     9        0.000000        0.291251         3    ;  uncertainty k = 0.134772
        44        26        25        57     9      180.000000       -0.101829         4    ;  uncertainty k = 0.064308
        48        24        25        56     9        0.000000       -0.089985         1    ;  uncertainty k = 0.205789
        48        24        25        56     9      180.000000       -0.189608         2    ;  uncertainty k = 0.317122
        48        24        25        56     9        0.000000        0.291251         3    ;  uncertainty k = 0.134772
        48        24        25        56     9      180.000000       -0.101829         4    ;  uncertainty k = 0.064308
        48        24        25        57     9        0.000000       -0.089985         1    ;  uncertainty k = 0.205789
        48        24        25        57     9      180.000000       -0.189608         2    ;  uncertainty k = 0.317122
        48        24        25        57     9        0.000000        0.291251         3    ;  uncertainty k = 0.134772
        48        24        25        57     9      180.000000       -0.101829         4    ;  uncertainty k = 0.064308
        48        24        52        53     9        0.000000       -1.091403         1    ;  uncertainty k = 0.314023
        48        24        52        53     9      180.000000       -0.166111         2    ;  uncertainty k = 0.187698
        48        24        52        53     9        0.000000        0.787800         3    ;  uncertainty k = 0.067666
        48        24        52        53     9      180.000000       -0.135108         4    ;  uncertainty k = 0.057049
        48        24        52        54     9        0.000000       -1.091403         1    ;  uncertainty k = 0.314023
        48        24        52        54     9      180.000000       -0.166111         2    ;  uncertainty k = 0.187698
        48        24        52        54     9        0.000000        0.787800         3    ;  uncertainty k = 0.067666
        48        24        52        54     9      180.000000       -0.135108         4    ;  uncertainty k = 0.057049
        48        24        52        55     9        0.000000       -1.091403         1    ;  uncertainty k = 0.314023
        48        24        52        55     9      180.000000       -0.166111         2    ;  uncertainty k = 0.187698
        48        24        52        55     9        0.000000        0.787800         3    ;  uncertainty k = 0.067666
        48        24        52        55     9      180.000000       -0.135108         4    ;  uncertainty k = 0.057049
        49        48        24        52     9        0.000000       -1.091403         1    ;  uncertainty k = 0.314023
        49        48        24        52     9      180.000000       -0.166111         2    ;  uncertainty k = 0.187698
        49        48        24        52     9        0.000000        0.787800         3    ;  uncertainty k = 0.067666
        49        48        24        52     9      180.000000       -0.135108         4    ;  uncertainty k = 0.057049
        50        48        24        52     9        0.000000       -1.091403         1    ;  uncertainty k = 0.314023
        50        48        24        52     9      180.000000       -0.166111         2    ;  uncertainty k = 0.187698
        50        48        24        52     9        0.000000        0.787800         3    ;  uncertainty k = 0.067666
        50        48        24        52     9      180.000000       -0.135108         4    ;  uncertainty k = 0.057049
        51        48        24        52     9        0.000000       -1.091403         1    ;  uncertainty k = 0.314023
        51        48        24        52     9      180.000000       -0.166111         2    ;  uncertainty k = 0.187698
        51        48        24        52     9        0.000000        0.787800         3    ;  uncertainty k = 0.067666
        51        48        24        52     9      180.000000       -0.135108         4    ;  uncertainty k = 0.057049
        52        24        25        56     9        0.000000       -0.089985         1    ;  uncertainty k = 0.205789
        52        24        25        56     9      180.000000       -0.189608         2    ;  uncertainty k = 0.317122
        52        24        25        56     9        0.000000        0.291251         3    ;  uncertainty k = 0.134772
        52        24        25        56     9      180.000000       -0.101829         4    ;  uncertainty k = 0.064308
        52        24        25        57     9        0.000000       -0.089985         1    ;  uncertainty k = 0.205789
        52        24        25        57     9      180.000000       -0.189608         2    ;  uncertainty k = 0.317122
        52        24        25        57     9        0.000000        0.291251         3    ;  uncertainty k = 0.134772
        52        24        25        57     9      180.000000       -0.101829         4    ;  uncertainty k = 0.064308

[ dihedrals ] ; impropers
;       ai        aj        ak        al funct           phase               k        pn
         2         1         3         6     4      180.000000        2.833395         2    ;  uncertainty k = 1.376267
         2         3         6         1     4      180.000000        2.833395         2    ;  uncertainty k = 1.376267
         2         6         1         3     4      180.000000        2.833395         2    ;  uncertainty k = 1.376267
         3         2         4        16     4      180.000000        5.361893         2    ;  uncertainty k = 0.990709
         3         4        16         2     4      180.000000        5.361893         2    ;  uncertainty k = 0.990709
         3        16         2         4     4      180.000000        5.361893         2    ;  uncertainty k = 0.990709
         4         3         5        15     4      180.000000        2.498686         2    ;  uncertainty k = 0.371762
         4         5        15         3     4      180.000000        2.498686         2    ;  uncertainty k = 0.371762
         4        15         3         5     4      180.000000        2.498686         2    ;  uncertainty k = 0.371762
         5         1         4         9     4      180.000000        5.470434         2    ;  uncertainty k = 0.356711
         5         4         9         1     4      180.000000        5.470434         2    ;  uncertainty k = 0.356711
         5         9         1         4     4      180.000000        5.470434         2    ;  uncertainty k = 0.356711
         6         2         7         8     4      180.000000       66.076957         2    ;  uncertainty k = 0.057409
         6         7         8         2     4      180.000000       66.076957         2    ;  uncertainty k = 0.057409
         6         8         2         7     4      180.000000       66.076957         2    ;  uncertainty k = 0.057409
         9         5        10        14     4      180.000000       14.801118         2    ;  uncertainty k = 0.086155
         9        10        14         5     4      180.000000       14.801118         2    ;  uncertainty k = 0.086155
         9        14         5        10     4      180.000000       14.801118         2    ;  uncertainty k = 0.086155
        10         9        11        28     4      180.000000        2.257831         2    ;  uncertainty k = 0.405434
        10        11        28         9     4      180.000000        2.257831         2    ;  uncertainty k = 0.405434
        10        28         9        11     4      180.000000        2.257831         2    ;  uncertainty k = 0.405434
        11        10        12        21     4      180.000000       20.786875         2    ;  uncertainty k = 0.089975
        11        12        21        10     4      180.000000       20.786875         2    ;  uncertainty k = 0.089975
        11        21        10        12     4      180.000000       20.786875         2    ;  uncertainty k = 0.089975
        12        11        13        29     4      180.000000        2.355810         2    ;  uncertainty k = 0.307570
        12        13        29        11     4      180.000000        2.355810         2    ;  uncertainty k = 0.307570
        12        29        11        13     4      180.000000        2.355810         2    ;  uncertainty k = 0.307570
        13        12        14        30     4      180.000000        4.269650         2    ;  uncertainty k = 0.170671
        13        14        30        12     4      180.000000        4.269650         2    ;  uncertainty k = 0.170671
        13        30        12        14     4      180.000000        4.269650         2    ;  uncertainty k = 0.170671
        14         9        13        31     4      180.000000        3.287673         2    ;  uncertainty k = 0.208425
        14        13        31         9     4      180.000000        3.287673         2    ;  uncertainty k = 0.208425
        14        31         9        13     4      180.000000        3.287673         2    ;  uncertainty k = 0.208425
        18        17        19        20     4      180.000000       68.314311         2    ;  uncertainty k = 0.022612
        18        19        20        17     4      180.000000       68.314311         2    ;  uncertainty k = 0.022612
        18        20        17        19     4      180.000000       68.314311         2    ;  uncertainty k = 0.022612

[ pairs ]
;       ai        aj funct
         1         7     1
         1         8     1
         1        10     1
         1        14     1
         1        15     1
         1        16     1
         2         9     1
         2        15     1
         2        17     1
         3         7     1
         3         8     1
         3         9     1
         3        18     1
         3        32     1
         3        33     1
         4         6     1
         4        10     1
         4        14     1
         4        17     1
         5         6     1
         5        11     1
         5        13     1
         5        16     1
         5        28     1
         5        31     1
         6        16     1
         9        12     1
         9        15     1
         9        21     1
         9        30     1
        10        13     1
        10        22     1
        10        29     1
        10        31     1
        10        34     1
        11        14     1
        11        23     1
        11        27     1
        11        30     1
        11        35     1
        12        22     1
        12        28     1
        12        31     1
        12        34     1
        13        21     1
        14        28     1
        14        29     1
        15        16     1
        16        19     1
        16        20     1
        19        32     1
        19        33     1
        20        32     1
        20        33     1
        21        24     1
        21        26     1
        21        28     1
        21        29     1
        21        36     1
        21        37     1
        21        38     1
        21        39     1
        22        25     1
        22        40     1
        22        44     1
        22        48     1
        22        52     1
        23        26     1
        23        34     1
        23        38     1
        23        39     1
        23        49     1
        23        50     1
        23        51     1
        23        53     1
        23        54     1
        23        55     1
        23        56     1
        23        57     1
        24        27     1
        24        35     1
        24        40     1
        24        44     1
        25        36     1
        25        37     1
        25        38     1
        25        39     1
        25        41     1
        25        42     1
        25        43     1
        25        45     1
        25        46     1
        25        47     1
        25        49     1
        25        50     1
        25        51     1
        25        53     1
        25        54     1
        25        55     1
        26        35     1
        26        48     1
        26        52     1
        27        34     1
        27        36     1
        27        37     1
        27        41     1
        27        42     1
        27        43     1
        27        45     1
        27        46     1
        27        47     1
        27        56     1
        27        57     1
        29        30     1
        30        31     1
        34        35     1
        35        36     1
        35        37     1
        35        38     1
        35        39     1
        36        48     1
        36        52     1
        37        48     1
        37        52     1
        38        40     1
        38        44     1
        39        40     1
        39        44     1
        40        45     1
        40        46     1
        40        47     1
        40        56     1
        40        57     1
        41        44     1
        42        44     1
        43        44     1
        44        56     1
        44        57     1
        48        53     1
        48        54     1
        48        55     1
        48        56     1
        48        57     1
        49        52     1
        50        52     1
        51        52     1
        52        56     1
        52        57     1
