; ITP file created by ByteFF-joint-25, 2026-02-17 09:29:22.297104

[ atomtypes ]
;name           bonded.type        at.num        mass        charge   ptype           sigma         epsilon
 s0bf                                  16      0.0000       0.00000       A     3.53165e-01     1.18204e+00    ;  uncertainty sigma = 0.000053, epsilon = 0.003055
 c1bf                                   6      0.0000       0.00000       A     3.31495e-01     4.13373e-01    ;  uncertainty sigma = 0.000032, epsilon = 0.002340
 c2bf                                   6      0.0000       0.00000       A     3.31500e-01     4.12069e-01    ;  uncertainty sigma = 0.000033, epsilon = 0.001338
 c3bf                                   6      0.0000       0.00000       A     3.31511e-01     4.13455e-01    ;  uncertainty sigma = 0.000012, epsilon = 0.000975
 c4bf                                   6      0.0000       0.00000       A     3.31514e-01     4.13061e-01    ;  uncertainty sigma = 0.000022, epsilon = 0.000877
 c5bf                                   6      0.0000       0.00000       A     3.31529e-01     4.13194e-01    ;  uncertainty sigma = 0.000055, epsilon = 0.002345
 o6bf                                   8      0.0000       0.00000       A     3.04804e-01     6.11836e-01    ;  uncertainty sigma = 0.000044, epsilon = 0.001672
 o7bf                                   8      0.0000       0.00000       A     3.04804e-01     6.11836e-01    ;  uncertainty sigma = 0.000044, epsilon = 0.001672
 c8bf                                   6      0.0000       0.00000       A     3.31502e-01     4.13044e-01    ;  uncertainty sigma = 0.000011, epsilon = 0.000542
 c9bf                                   6      0.0000       0.00000       A     3.31536e-01     4.13267e-01    ;  uncertainty sigma = 0.000003, epsilon = 0.000782
 c10bf                                  6      0.0000       0.00000       A     3.31553e-01     4.13067e-01    ;  uncertainty sigma = 0.000018, epsilon = 0.000800
 c11bf                                  6      0.0000       0.00000       A     3.31529e-01     4.13419e-01    ;  uncertainty sigma = 0.000006, epsilon = 0.000568
 c12bf                                  6      0.0000       0.00000       A     3.31525e-01     4.13527e-01    ;  uncertainty sigma = 0.000003, epsilon = 0.000754
 c13bf                                  6      0.0000       0.00000       A     3.31520e-01     4.13276e-01    ;  uncertainty sigma = 0.000003, epsilon = 0.000632
 br14bf                                35      0.0000       0.00000       A     3.61258e-01     1.64394e+00    ;  uncertainty sigma = 0.000027, epsilon = 0.006365
 o15bf                                  8      0.0000       0.00000       A     3.15802e-01     3.03913e-01    ;  uncertainty sigma = 0.000078, epsilon = 0.010291
 c16bf                                  6      0.0000       0.00000       A     3.39717e-01     4.50736e-01    ;  uncertainty sigma = 0.000028, epsilon = 0.002811
 c17bf                                  6      0.0000       0.00000       A     3.31523e-01     4.12941e-01    ;  uncertainty sigma = 0.000026, epsilon = 0.002863
 o18bf                                  8      0.0000       0.00000       A     3.04805e-01     6.12312e-01    ;  uncertainty sigma = 0.000022, epsilon = 0.002455
 o19bf                                  8      0.0000       0.00000       A     3.04805e-01     6.12312e-01    ;  uncertainty sigma = 0.000022, epsilon = 0.002455
 n20bf                                  7      0.0000       0.00000       A     3.36832e-01     4.68690e-01    ;  uncertainty sigma = 0.000031, epsilon = 0.002682
 h21bf                                  1      0.0000       0.00000       A     2.62543e-01     6.69881e-02    ;  uncertainty sigma = 0.000021, epsilon = 0.000426
 h22bf                                  1      0.0000       0.00000       A     2.62544e-01     6.70283e-02    ;  uncertainty sigma = 0.000015, epsilon = 0.000407
 h23bf                                  1      0.0000       0.00000       A     2.62563e-01     6.69897e-02    ;  uncertainty sigma = 0.000012, epsilon = 0.000446
 h24bf                                  1      0.0000       0.00000       A     2.62561e-01     6.70428e-02    ;  uncertainty sigma = 0.000012, epsilon = 0.000452
 h25bf                                  1      0.0000       0.00000       A     2.42291e-01     8.67021e-02    ;  uncertainty sigma = 0.000194, epsilon = 0.000950
 h26bf                                  1      0.0000       0.00000       A     2.42291e-01     8.67021e-02    ;  uncertainty sigma = 0.000194, epsilon = 0.000950
 h27bf                                  1      0.0000       0.00000       A     1.10707e-01     4.12909e-02    ;  uncertainty sigma = 0.000048, epsilon = 0.000456
 h28bf                                  1      0.0000       0.00000       A     1.10707e-01     4.12908e-02    ;  uncertainty sigma = 0.000048, epsilon = 0.000456

[ moleculetype ]
;name             nrexcl
 MOL                   3

[ atoms ]
;       nr            type      resi   res      atom      cgnr      charge          mass ; qtot
         1            s0bf         1   UNL        s0         1    -0.06026       32.0670 ; qtot   -0.060
         2            c1bf         1   UNL        c1         2    -0.15250       12.0110 ; qtot   -0.213
         3            c2bf         1   UNL        c2         3     0.12085       12.0110 ; qtot   -0.092
         4            c3bf         1   UNL        c3         4    -0.04845       12.0110 ; qtot   -0.140
         5            c4bf         1   UNL        c4         5    -0.04817       12.0110 ; qtot   -0.189
         6            c5bf         1   UNL        c5         6     0.93104       12.0110 ; qtot    0.743
         7            o6bf         1   UNL        o6         7    -0.81786       15.9990 ; qtot   -0.075
         8            o7bf         1   UNL        o7         8    -0.81786       15.9990 ; qtot   -0.893
         9            c8bf         1   UNL        c8         9     0.02073       12.0110 ; qtot   -0.872
        10            c9bf         1   UNL        c9        10    -0.17651       12.0110 ; qtot   -1.049
        11           c10bf         1   UNL       c10        11     0.13680       12.0110 ; qtot   -0.912
        12           c11bf         1   UNL       c11        12    -0.18114       12.0110 ; qtot   -1.093
        13           c12bf         1   UNL       c12        13    -0.09267       12.0110 ; qtot   -1.186
        14           c13bf         1   UNL       c13        14    -0.14226       12.0110 ; qtot   -1.328
        15          br14bf         1   UNL      br14        15    -0.09860       79.9040 ; qtot   -1.427
        16           o15bf         1   UNL       o15        16    -0.32674       15.9990 ; qtot   -1.754
        17           c16bf         1   UNL       c16        17    -0.04389       12.0110 ; qtot   -1.797
        18           c17bf         1   UNL       c17        18     0.91650       12.0110 ; qtot   -0.881
        19           o18bf         1   UNL       o18        19    -0.83281       15.9990 ; qtot   -1.714
        20           o19bf         1   UNL       o19        20    -0.83281       15.9990 ; qtot   -2.547
        21           n20bf         1   UNL       n20        21    -0.81426       14.0070 ; qtot   -3.361
        22           h21bf         1   UNL       h21        22     0.13818        1.0080 ; qtot   -3.223
        23           h22bf         1   UNL       h22        23     0.13131        1.0080 ; qtot   -3.091
        24           h23bf         1   UNL       h23        24     0.13413        1.0080 ; qtot   -2.957
        25           h24bf         1   UNL       h24        25     0.14276        1.0080 ; qtot   -2.814
        26           h25bf         1   UNL       h25        26     0.02291        1.0080 ; qtot   -2.792
        27           h26bf         1   UNL       h26        27     0.02291        1.0080 ; qtot   -2.769
        28           h27bf         1   UNL       h27        28     0.38434        1.0080 ; qtot   -2.384
        29           h28bf         1   UNL       h28        29     0.38433        1.0080 ; qtot   -2.000

[ bonds ]
;       ai        aj funct               r               k
         1         2     1        0.174192   168649.560181    ;  uncertainty r = 0.000346, k = 32.148596
         1         5     1        0.174357   166232.434473    ;  uncertainty r = 0.000237, k = 14.888512
         2         3     1        0.138080   385642.911377    ;  uncertainty r = 0.000134, k = 36.968685
         2         6     1        0.154055   191773.233960    ;  uncertainty r = 0.000283, k = 45.899503
         3         4     1        0.143810   249799.356152    ;  uncertainty r = 0.000373, k = 34.755195
         3        16     1        0.136007   307552.652637    ;  uncertainty r = 0.000403, k = 36.149075
         4         5     1        0.137757   380537.404785    ;  uncertainty r = 0.000227, k = 7.612841
         4        15     1        0.190420   156686.714062    ;  uncertainty r = 0.000144, k = 29.636938
         5         9     1        0.146547   276882.482129    ;  uncertainty r = 0.000166, k = 7.136554
         6         7     1        0.126149   550576.911523    ;  uncertainty r = 0.000229, k = 9.262788
         6         8     1        0.126149   550576.911523    ;  uncertainty r = 0.000229, k = 9.262788
         9        10     1        0.140030   351392.667969    ;  uncertainty r = 0.000119, k = 3.252555
         9        14     1        0.140293   349254.573486    ;  uncertainty r = 0.000046, k = 2.933311
        10        11     1        0.140616   378168.888965    ;  uncertainty r = 0.000061, k = 6.068817
        10        22     1        0.108944   336574.760254    ;  uncertainty r = 0.000045, k = 1.342246
        11        12     1        0.140760   376037.970410    ;  uncertainty r = 0.000025, k = 6.834374
        11        21     1        0.140697   366370.080469    ;  uncertainty r = 0.000061, k = 6.681788
        12        13     1        0.139337   374599.081982    ;  uncertainty r = 0.000034, k = 2.742753
        12        23     1        0.108939   337080.190723    ;  uncertainty r = 0.000029, k = 0.626870
        13        14     1        0.139488   366370.540137    ;  uncertainty r = 0.000045, k = 1.257477
        13        24     1        0.108773   332958.705566    ;  uncertainty r = 0.000013, k = 1.480919
        14        25     1        0.108759   334843.267627    ;  uncertainty r = 0.000027, k = 0.771472
        16        17     1        0.144489   220596.573486    ;  uncertainty r = 0.000632, k = 19.356591
        17        18     1        0.155273   162501.513867    ;  uncertainty r = 0.000271, k = 66.063610
        17        26     1        0.109682   316919.460059    ;  uncertainty r = 0.000081, k = 8.518154
        17        27     1        0.109682   316919.460059    ;  uncertainty r = 0.000081, k = 8.518154
        18        19     1        0.126286   541570.585938    ;  uncertainty r = 0.000058, k = 12.189171
        18        20     1        0.126286   541570.585938    ;  uncertainty r = 0.000058, k = 12.189171
        21        28     1        0.101325   424650.411816    ;  uncertainty r = 0.000019, k = 1.052564
        21        29     1        0.101325   424650.411816    ;  uncertainty r = 0.000019, k = 1.052556

[ angles ]
;       ai        aj        ak funct           theta             cth
         1         2         3     1      112.357254      490.287825    ;  uncertainty theta = 0.005257, k = 0.446159
         1         2         6     1      115.451401      321.272126    ;  uncertainty theta = 0.011344, k = 0.278095
         1         5         4     1      111.659386      449.584992    ;  uncertainty theta = 0.002310, k = 0.394971
         1         5         9     1      118.821579      342.881724    ;  uncertainty theta = 0.007812, k = 0.176488
         2         1         5     1       93.409683     1113.970975    ;  uncertainty theta = 0.008532, k = 0.189168
         2         3         4     1      115.069199      491.410436    ;  uncertainty theta = 0.004813, k = 0.280924
         2         3        16     1      123.043716      386.336563    ;  uncertainty theta = 0.006879, k = 0.395881
         2         6         7     1      114.979454      369.254791    ;  uncertainty theta = 0.012630, k = 0.171059
         2         6         8     1      114.979454      369.254791    ;  uncertainty theta = 0.012630, k = 0.171059
         3         2         6     1      128.246002      305.353665    ;  uncertainty theta = 0.014744, k = 0.309527
         3         4         5     1      117.601578      512.725910    ;  uncertainty theta = 0.003379, k = 0.473085
         3         4        15     1      119.051048      364.447781    ;  uncertainty theta = 0.003204, k = 0.273279
         3        16        17     1      112.137527      461.556502    ;  uncertainty theta = 0.007449, k = 0.230739
         4         3        16     1      118.536453      394.142587    ;  uncertainty theta = 0.008837, k = 0.130964
         4         5         9     1      126.653244      328.168870    ;  uncertainty theta = 0.004177, k = 0.176451
         5         4        15     1      120.673264      351.209758    ;  uncertainty theta = 0.006817, k = 0.079938
         5         9        10     1      120.558632      415.464573    ;  uncertainty theta = 0.003156, k = 0.051300
         5         9        14     1      121.123337      421.155390    ;  uncertainty theta = 0.001709, k = 0.063820
         7         6         8     1      131.649750      807.008217    ;  uncertainty theta = 0.009047, k = 0.187853
         9        10        11     1      119.375046      524.908899    ;  uncertainty theta = 0.002584, k = 0.072320
         9        10        22     1      119.748947      278.951965    ;  uncertainty theta = 0.001745, k = 0.066388
         9        14        13     1      119.449059      532.212576    ;  uncertainty theta = 0.002200, k = 0.076990
         9        14        25     1      119.600365      279.323562    ;  uncertainty theta = 0.002541, k = 0.057910
        10         9        14     1      121.185242      406.572679    ;  uncertainty theta = 0.004840, k = 0.115595
        10        11        12     1      117.654968      382.105798    ;  uncertainty theta = 0.004169, k = 0.192157
        10        11        21     1      124.790115      553.137237    ;  uncertainty theta = 0.003088, k = 0.165092
        11        10        22     1      119.867531      285.658169    ;  uncertainty theta = 0.002411, k = 0.139410
        11        12        13     1      117.313278      518.212462    ;  uncertainty theta = 0.002560, k = 0.151355
        11        12        23     1      119.796471      284.312172    ;  uncertainty theta = 0.002313, k = 0.196853
        11        21        28     1      113.197105      358.285676    ;  uncertainty theta = 0.001292, k = 0.115256
        11        21        29     1      113.197105      358.285581    ;  uncertainty theta = 0.001292, k = 0.115256
        12        11        21     1      125.207565      567.754997    ;  uncertainty theta = 0.004164, k = 0.174890
        12        13        14     1      121.021317      510.404076    ;  uncertainty theta = 0.002712, k = 0.028486
        12        13        24     1      120.147964      282.002053    ;  uncertainty theta = 0.001142, k = 0.054691
        13        12        23     1      121.224442      287.328456    ;  uncertainty theta = 0.001690, k = 0.084342
        13        14        25     1      120.876854      297.390109    ;  uncertainty theta = 0.001045, k = 0.057840
        14        13        24     1      120.023949      280.862683    ;  uncertainty theta = 0.001165, k = 0.031442
        16        17        18     1      108.358414      484.414290    ;  uncertainty theta = 0.009599, k = 0.239378
        16        17        26     1      106.609215      413.715920    ;  uncertainty theta = 0.002333, k = 0.101205
        16        17        27     1      106.609215      413.715920    ;  uncertainty theta = 0.002333, k = 0.101205
        17        18        19     1      116.281067      425.507680    ;  uncertainty theta = 0.009799, k = 0.299635
        17        18        20     1      116.281067      425.507680    ;  uncertainty theta = 0.009799, k = 0.299635
        18        17        26     1      110.053444      352.214612    ;  uncertainty theta = 0.003968, k = 0.110269
        18        17        27     1      110.053444      352.214612    ;  uncertainty theta = 0.003968, k = 0.110269
        19        18        20     1      131.546265      818.159315    ;  uncertainty theta = 0.002374, k = 0.066126
        26        17        27     1      108.449623      321.244195    ;  uncertainty theta = 0.009962, k = 0.176306
        28        21        29     1      106.565964      283.739183    ;  uncertainty theta = 0.003541, k = 0.097664

[ dihedrals ] ; propers for gromacs 4.5 or higher, use funct 9
;       ai        aj        ak        al funct           phase               k        pn
         1         2         3         4     9        0.000000       -0.320833         1    ;  uncertainty k = 0.754080
         1         2         3         4     9      180.000000       17.555282         2    ;  uncertainty k = 0.424189
         1         2         3         4     9        0.000000       -2.376894         3    ;  uncertainty k = 1.115238
         1         2         3         4     9      180.000000        0.923152         4    ;  uncertainty k = 0.610957
         1         2         3        16     9        0.000000        0.376558         1    ;  uncertainty k = 1.230098
         1         2         3        16     9      180.000000       18.623043         2    ;  uncertainty k = 0.210713
         1         2         3        16     9        0.000000        1.608484         3    ;  uncertainty k = 0.452084
         1         2         3        16     9      180.000000        0.624278         4    ;  uncertainty k = 0.345564
         1         2         6         7     9        0.000000        0.648298         1    ;  uncertainty k = 2.496588
         1         2         6         7     9      180.000000        4.832235         2    ;  uncertainty k = 0.504618
         1         2         6         7     9        0.000000        0.188147         3    ;  uncertainty k = 0.527138
         1         2         6         7     9      180.000000        0.229089         4    ;  uncertainty k = 0.149777
         1         2         6         8     9        0.000000        0.648298         1    ;  uncertainty k = 2.496588
         1         2         6         8     9      180.000000        4.832235         2    ;  uncertainty k = 0.504618
         1         2         6         8     9        0.000000        0.188147         3    ;  uncertainty k = 0.527138
         1         2         6         8     9      180.000000        0.229089         4    ;  uncertainty k = 0.149777
         1         5         4         3     9        0.000000       -0.230943         1    ;  uncertainty k = 0.350057
         1         5         4         3     9      180.000000       15.958089         2    ;  uncertainty k = 0.404103
         1         5         4         3     9        0.000000       -2.380903         3    ;  uncertainty k = 0.809268
         1         5         4         3     9      180.000000        0.865666         4    ;  uncertainty k = 0.750586
         1         5         4        15     9        0.000000        0.242023         1    ;  uncertainty k = 0.389261
         1         5         4        15     9      180.000000       12.724293         2    ;  uncertainty k = 0.534639
         1         5         4        15     9        0.000000        2.310394         3    ;  uncertainty k = 0.489088
         1         5         4        15     9      180.000000        0.570757         4    ;  uncertainty k = 0.408314
         1         5         9        10     9        0.000000       -0.685100         1    ;  uncertainty k = 0.632602
         1         5         9        10     9      180.000000        3.152617         2    ;  uncertainty k = 0.110922
         1         5         9        10     9        0.000000        0.317493         3    ;  uncertainty k = 0.240831
         1         5         9        10     9      180.000000        0.103864         4    ;  uncertainty k = 0.112760
         1         5         9        14     9        0.000000       -0.225924         1    ;  uncertainty k = 0.539658
         1         5         9        14     9      180.000000        3.274598         2    ;  uncertainty k = 0.296136
         1         5         9        14     9        0.000000        0.468712         3    ;  uncertainty k = 0.252430
         1         5         9        14     9      180.000000        0.090067         4    ;  uncertainty k = 0.113118
         2         1         5         4     9        0.000000       -0.381502         1    ;  uncertainty k = 1.018320
         2         1         5         4     9      180.000000       14.624384         2    ;  uncertainty k = 0.929119
         2         1         5         4     9        0.000000       -6.005800         3    ;  uncertainty k = 1.036762
         2         1         5         4     9      180.000000        1.151585         4    ;  uncertainty k = 0.363309
         2         1         5         9     9        0.000000        0.630538         1    ;  uncertainty k = 1.212413
         2         1         5         9     9      180.000000       11.552683         2    ;  uncertainty k = 0.591980
         2         1         5         9     9        0.000000        0.972486         3    ;  uncertainty k = 1.170908
         2         1         5         9     9      180.000000       -0.031091         4    ;  uncertainty k = 0.484595
         2         3         4         5     9        0.000000       -0.163892         1    ;  uncertainty k = 0.802841
         2         3         4         5     9      180.000000        9.355372         2    ;  uncertainty k = 0.794784
         2         3         4         5     9        0.000000       -2.165171         3    ;  uncertainty k = 0.822975
         2         3         4         5     9      180.000000        0.987821         4    ;  uncertainty k = 0.358170
         2         3         4        15     9        0.000000        0.463445         1    ;  uncertainty k = 0.544884
         2         3         4        15     9      180.000000        7.807701         2    ;  uncertainty k = 0.817270
         2         3         4        15     9        0.000000        1.640989         3    ;  uncertainty k = 0.318182
         2         3         4        15     9      180.000000        0.389068         4    ;  uncertainty k = 0.234157
         2         3        16        17     9        0.000000        0.562638         1    ;  uncertainty k = 2.473037
         2         3        16        17     9      180.000000        4.453660         2    ;  uncertainty k = 1.236403
         2         3        16        17     9        0.000000       -0.243071         3    ;  uncertainty k = 0.584348
         2         3        16        17     9      180.000000        0.011309         4    ;  uncertainty k = 0.249195
         3         2         1         5     9        0.000000       -1.343735         1    ;  uncertainty k = 1.825069
         3         2         1         5     9      180.000000       12.410483         2    ;  uncertainty k = 0.765515
         3         2         1         5     9        0.000000       -3.924755         3    ;  uncertainty k = 1.286096
         3         2         1         5     9      180.000000        1.226932         4    ;  uncertainty k = 0.620813
         3         2         6         7     9        0.000000       -0.600971         1    ;  uncertainty k = 1.233380
         3         2         6         7     9      180.000000        2.750847         2    ;  uncertainty k = 0.470266
         3         2         6         7     9        0.000000        0.420307         3    ;  uncertainty k = 0.314900
         3         2         6         7     9      180.000000        0.072508         4    ;  uncertainty k = 0.103468
         3         2         6         8     9        0.000000       -0.600971         1    ;  uncertainty k = 1.233380
         3         2         6         8     9      180.000000        2.750847         2    ;  uncertainty k = 0.470266
         3         2         6         8     9        0.000000        0.420307         3    ;  uncertainty k = 0.314900
         3         2         6         8     9      180.000000        0.072508         4    ;  uncertainty k = 0.103468
         3         4         5         9     9        0.000000        0.248806         1    ;  uncertainty k = 0.198408
         3         4         5         9     9      180.000000       11.437186         2    ;  uncertainty k = 0.266659
         3         4         5         9     9        0.000000        1.957996         3    ;  uncertainty k = 0.452848
         3         4         5         9     9      180.000000        0.650664         4    ;  uncertainty k = 0.310846
         3        16        17        18     9        0.000000       -2.546996         1    ;  uncertainty k = 2.263476
         3        16        17        18     9      180.000000       -2.071281         2    ;  uncertainty k = 0.852216
         3        16        17        18     9        0.000000        0.377848         3    ;  uncertainty k = 0.447363
         3        16        17        18     9      180.000000        0.728091         4    ;  uncertainty k = 0.372243
         3        16        17        26     9        0.000000        1.943735         1    ;  uncertainty k = 0.725643
         3        16        17        26     9      180.000000       -1.013528         2    ;  uncertainty k = 0.770891
         3        16        17        26     9        0.000000        0.504468         3    ;  uncertainty k = 0.367188
         3        16        17        26     9      180.000000        0.022954         4    ;  uncertainty k = 0.163828
         3        16        17        27     9        0.000000        1.943735         1    ;  uncertainty k = 0.725643
         3        16        17        27     9      180.000000       -1.013528         2    ;  uncertainty k = 0.770891
         3        16        17        27     9        0.000000        0.504468         3    ;  uncertainty k = 0.367188
         3        16        17        27     9      180.000000        0.022954         4    ;  uncertainty k = 0.163828
         4         3         2         6     9        0.000000        0.750539         1    ;  uncertainty k = 1.420042
         4         3         2         6     9      180.000000        9.225337         2    ;  uncertainty k = 0.449657
         4         3         2         6     9        0.000000        2.146628         3    ;  uncertainty k = 0.096833
         4         3         2         6     9      180.000000        0.908103         4    ;  uncertainty k = 0.276689
         4         3        16        17     9        0.000000        4.003546         1    ;  uncertainty k = 2.209639
         4         3        16        17     9      180.000000        4.149396         2    ;  uncertainty k = 0.785914
         4         3        16        17     9        0.000000        0.594406         3    ;  uncertainty k = 0.772201
         4         3        16        17     9      180.000000       -0.129795         4    ;  uncertainty k = 0.090251
         4         5         9        10     9        0.000000        0.413054         1    ;  uncertainty k = 0.516323
         4         5         9        10     9      180.000000        2.895814         2    ;  uncertainty k = 0.274190
         4         5         9        10     9        0.000000        0.486736         3    ;  uncertainty k = 0.556853
         4         5         9        10     9      180.000000       -0.030685         4    ;  uncertainty k = 0.104050
         4         5         9        14     9        0.000000        0.500558         1    ;  uncertainty k = 0.583047
         4         5         9        14     9      180.000000        3.075031         2    ;  uncertainty k = 0.284346
         4         5         9        14     9        0.000000        0.477849         3    ;  uncertainty k = 0.394496
         4         5         9        14     9      180.000000       -0.038529         4    ;  uncertainty k = 0.118363
         5         1         2         6     9        0.000000        0.451497         1    ;  uncertainty k = 2.202869
         5         1         2         6     9      180.000000        8.209202         2    ;  uncertainty k = 0.569487
         5         1         2         6     9        0.000000        1.043882         3    ;  uncertainty k = 0.663821
         5         1         2         6     9      180.000000        0.550351         4    ;  uncertainty k = 0.309694
         5         4         3        16     9        0.000000        0.887263         1    ;  uncertainty k = 1.387606
         5         4         3        16     9      180.000000       11.850633         2    ;  uncertainty k = 0.768527
         5         4         3        16     9        0.000000        1.717065         3    ;  uncertainty k = 0.314044
         5         4         3        16     9      180.000000        0.438991         4    ;  uncertainty k = 0.459203
         5         9        10        11     9        0.000000        0.233374         1    ;  uncertainty k = 0.445912
         5         9        10        11     9      180.000000        8.875437         2    ;  uncertainty k = 0.506053
         5         9        10        11     9        0.000000        1.178950         3    ;  uncertainty k = 0.265551
         5         9        10        11     9      180.000000        1.593540         4    ;  uncertainty k = 0.171221
         5         9        10        22     9        0.000000       -0.089322         1    ;  uncertainty k = 0.424231
         5         9        10        22     9      180.000000        7.018642         2    ;  uncertainty k = 0.490515
         5         9        10        22     9        0.000000        0.691005         3    ;  uncertainty k = 0.253674
         5         9        10        22     9      180.000000        1.205722         4    ;  uncertainty k = 0.214348
         5         9        14        13     9        0.000000        0.007969         1    ;  uncertainty k = 0.350468
         5         9        14        13     9      180.000000        9.039166         2    ;  uncertainty k = 0.513272
         5         9        14        13     9        0.000000        1.134854         3    ;  uncertainty k = 0.269069
         5         9        14        13     9      180.000000        1.723269         4    ;  uncertainty k = 0.177707
         5         9        14        25     9        0.000000       -0.178019         1    ;  uncertainty k = 0.538790
         5         9        14        25     9      180.000000        6.891552         2    ;  uncertainty k = 0.352007
         5         9        14        25     9        0.000000        0.749427         3    ;  uncertainty k = 0.220794
         5         9        14        25     9      180.000000        1.236649         4    ;  uncertainty k = 0.170788
         6         2         3        16     9        0.000000       -0.665249         1    ;  uncertainty k = 0.977507
         6         2         3        16     9      180.000000       11.691680         2    ;  uncertainty k = 0.581130
         6         2         3        16     9        0.000000        1.652052         3    ;  uncertainty k = 0.309495
         6         2         3        16     9      180.000000        0.410579         4    ;  uncertainty k = 0.549466
         9         5         4        15     9        0.000000        0.054211         1    ;  uncertainty k = 0.679521
         9         5         4        15     9      180.000000        8.678800         2    ;  uncertainty k = 0.589201
         9         5         4        15     9        0.000000        1.525319         3    ;  uncertainty k = 0.101009
         9         5         4        15     9      180.000000        0.829966         4    ;  uncertainty k = 0.151451
         9        10        11        12     9        0.000000       -0.016978         1    ;  uncertainty k = 0.089644
         9        10        11        12     9      180.000000        8.164362         2    ;  uncertainty k = 0.564131
         9        10        11        12     9        0.000000        0.219158         3    ;  uncertainty k = 0.358513
         9        10        11        12     9      180.000000        1.313738         4    ;  uncertainty k = 0.292917
         9        10        11        21     9        0.000000        0.191407         1    ;  uncertainty k = 0.456405
         9        10        11        21     9      180.000000        9.342216         2    ;  uncertainty k = 0.528130
         9        10        11        21     9        0.000000        0.972004         3    ;  uncertainty k = 0.232915
         9        10        11        21     9      180.000000        1.533122         4    ;  uncertainty k = 0.227416
         9        14        13        12     9        0.000000        0.003452         1    ;  uncertainty k = 0.253033
         9        14        13        12     9      180.000000       14.459935         2    ;  uncertainty k = 0.265152
         9        14        13        12     9        0.000000       -1.069284         3    ;  uncertainty k = 0.392302
         9        14        13        12     9      180.000000        0.626158         4    ;  uncertainty k = 0.264894
         9        14        13        24     9        0.000000        0.113904         1    ;  uncertainty k = 0.130087
         9        14        13        24     9      180.000000        7.830045         2    ;  uncertainty k = 0.301734
         9        14        13        24     9        0.000000        1.349236         3    ;  uncertainty k = 0.280187
         9        14        13        24     9      180.000000        1.822032         4    ;  uncertainty k = 0.115007
        10         9        14        13     9        0.000000       -0.167438         1    ;  uncertainty k = 0.170144
        10         9        14        13     9      180.000000       11.624482         2    ;  uncertainty k = 0.236480
        10         9        14        13     9        0.000000       -0.445087         3    ;  uncertainty k = 0.249917
        10         9        14        13     9      180.000000        0.941482         4    ;  uncertainty k = 0.266684
        10         9        14        25     9        0.000000        0.129390         1    ;  uncertainty k = 0.231719
        10         9        14        25     9      180.000000        6.873643         2    ;  uncertainty k = 0.653313
        10         9        14        25     9        0.000000        1.465596         3    ;  uncertainty k = 0.207220
        10         9        14        25     9      180.000000        1.662000         4    ;  uncertainty k = 0.293030
        10        11        12        13     9        0.000000       -0.006131         1    ;  uncertainty k = 0.137417
        10        11        12        13     9      180.000000        8.349585         2    ;  uncertainty k = 0.624807
        10        11        12        13     9        0.000000        0.061125         3    ;  uncertainty k = 0.392406
        10        11        12        13     9      180.000000        1.243000         4    ;  uncertainty k = 0.347657
        10        11        12        23     9        0.000000        0.036965         1    ;  uncertainty k = 0.481081
        10        11        12        23     9      180.000000        5.810360         2    ;  uncertainty k = 0.511894
        10        11        12        23     9        0.000000        1.144344         3    ;  uncertainty k = 0.215198
        10        11        12        23     9      180.000000        1.346816         4    ;  uncertainty k = 0.170646
        10        11        21        28     9        0.000000        8.032054         1    ;  uncertainty k = 0.836582
        10        11        21        28     9      180.000000        5.704039         2    ;  uncertainty k = 0.175139
        10        11        21        28     9        0.000000        0.683328         3    ;  uncertainty k = 0.187283
        10        11        21        28     9      180.000000        0.152743         4    ;  uncertainty k = 0.036584
        10        11        21        29     9        0.000000        8.032054         1    ;  uncertainty k = 0.836583
        10        11        21        29     9      180.000000        5.704039         2    ;  uncertainty k = 0.175139
        10        11        21        29     9        0.000000        0.683328         3    ;  uncertainty k = 0.187283
        10        11        21        29     9      180.000000        0.152743         4    ;  uncertainty k = 0.036584
        11        10         9        14     9        0.000000       -0.053533         1    ;  uncertainty k = 0.184613
        11        10         9        14     9      180.000000       11.805810         2    ;  uncertainty k = 0.319193
        11        10         9        14     9        0.000000       -0.329899         3    ;  uncertainty k = 0.150818
        11        10         9        14     9      180.000000        0.942057         4    ;  uncertainty k = 0.100223
        11        12        13        14     9        0.000000       -0.258194         1    ;  uncertainty k = 0.299661
        11        12        13        14     9      180.000000       14.926387         2    ;  uncertainty k = 0.178278
        11        12        13        14     9        0.000000       -1.008674         3    ;  uncertainty k = 0.383378
        11        12        13        14     9      180.000000        0.638530         4    ;  uncertainty k = 0.231307
        11        12        13        24     9        0.000000        0.011610         1    ;  uncertainty k = 0.450126
        11        12        13        24     9      180.000000        8.053231         2    ;  uncertainty k = 0.341298
        11        12        13        24     9        0.000000        1.294194         3    ;  uncertainty k = 0.177633
        11        12        13        24     9      180.000000        1.596160         4    ;  uncertainty k = 0.168877
        12        11        10        22     9        0.000000        0.041172         1    ;  uncertainty k = 0.332175
        12        11        10        22     9      180.000000        5.973724         2    ;  uncertainty k = 0.383439
        12        11        10        22     9        0.000000        1.197654         3    ;  uncertainty k = 0.244746
        12        11        10        22     9      180.000000        1.439718         4    ;  uncertainty k = 0.152513
        12        11        21        28     9        0.000000        8.325546         1    ;  uncertainty k = 0.726381
        12        11        21        28     9      180.000000        5.477256         2    ;  uncertainty k = 0.146301
        12        11        21        28     9        0.000000        0.731109         3    ;  uncertainty k = 0.139562
        12        11        21        28     9      180.000000        0.205701         4    ;  uncertainty k = 0.024211
        12        11        21        29     9        0.000000        8.325546         1    ;  uncertainty k = 0.726380
        12        11        21        29     9      180.000000        5.477255         2    ;  uncertainty k = 0.146300
        12        11        21        29     9        0.000000        0.731109         3    ;  uncertainty k = 0.139562
        12        11        21        29     9      180.000000        0.205701         4    ;  uncertainty k = 0.024211
        12        13        14        25     9        0.000000        0.053493         1    ;  uncertainty k = 0.171860
        12        13        14        25     9      180.000000        7.890991         2    ;  uncertainty k = 0.297488
        12        13        14        25     9        0.000000        1.358234         3    ;  uncertainty k = 0.263809
        12        13        14        25     9      180.000000        1.869252         4    ;  uncertainty k = 0.174420
        13        12        11        21     9        0.000000        0.112994         1    ;  uncertainty k = 0.331572
        13        12        11        21     9      180.000000        9.391669         2    ;  uncertainty k = 0.695056
        13        12        11        21     9        0.000000        1.121772         3    ;  uncertainty k = 0.281344
        13        12        11        21     9      180.000000        1.490988         4    ;  uncertainty k = 0.349243
        14         9        10        22     9        0.000000        0.253700         1    ;  uncertainty k = 0.296507
        14         9        10        22     9      180.000000        7.140186         2    ;  uncertainty k = 0.402158
        14         9        10        22     9        0.000000        1.590260         3    ;  uncertainty k = 0.202056
        14         9        10        22     9      180.000000        1.603415         4    ;  uncertainty k = 0.218504
        14        13        12        23     9        0.000000        0.230284         1    ;  uncertainty k = 0.142504
        14        13        12        23     9      180.000000        8.279934         2    ;  uncertainty k = 0.380810
        14        13        12        23     9        0.000000        1.541319         3    ;  uncertainty k = 0.290570
        14        13        12        23     9      180.000000        1.799929         4    ;  uncertainty k = 0.151407
        15         4         3        16     9        0.000000       -0.300934         1    ;  uncertainty k = 0.650861
        15         4         3        16     9      180.000000        9.165092         2    ;  uncertainty k = 0.275746
        15         4         3        16     9        0.000000        1.456381         3    ;  uncertainty k = 0.310393
        15         4         3        16     9      180.000000        0.631618         4    ;  uncertainty k = 0.388932
        16        17        18        19     9        0.000000        1.079222         1    ;  uncertainty k = 0.841475
        16        17        18        19     9      180.000000        5.864588         2    ;  uncertainty k = 0.515928
        16        17        18        19     9        0.000000        1.140649         3    ;  uncertainty k = 0.463168
        16        17        18        19     9      180.000000        0.279519         4    ;  uncertainty k = 0.238932
        16        17        18        20     9        0.000000        1.079222         1    ;  uncertainty k = 0.841475
        16        17        18        20     9      180.000000        5.864588         2    ;  uncertainty k = 0.515928
        16        17        18        20     9        0.000000        1.140649         3    ;  uncertainty k = 0.463168
        16        17        18        20     9      180.000000        0.279519         4    ;  uncertainty k = 0.238932
        19        18        17        26     9        0.000000       -2.498422         1    ;  uncertainty k = 1.124580
        19        18        17        26     9      180.000000        1.806048         2    ;  uncertainty k = 0.648461
        19        18        17        26     9        0.000000        0.840718         3    ;  uncertainty k = 0.199496
        19        18        17        26     9      180.000000        0.238884         4    ;  uncertainty k = 0.091169
        19        18        17        27     9        0.000000       -2.498422         1    ;  uncertainty k = 1.124580
        19        18        17        27     9      180.000000        1.806048         2    ;  uncertainty k = 0.648461
        19        18        17        27     9        0.000000        0.840718         3    ;  uncertainty k = 0.199496
        19        18        17        27     9      180.000000        0.238884         4    ;  uncertainty k = 0.091169
        20        18        17        26     9        0.000000       -2.498422         1    ;  uncertainty k = 1.124580
        20        18        17        26     9      180.000000        1.806048         2    ;  uncertainty k = 0.648461
        20        18        17        26     9        0.000000        0.840718         3    ;  uncertainty k = 0.199496
        20        18        17        26     9      180.000000        0.238884         4    ;  uncertainty k = 0.091169
        20        18        17        27     9        0.000000       -2.498422         1    ;  uncertainty k = 1.124580
        20        18        17        27     9      180.000000        1.806048         2    ;  uncertainty k = 0.648461
        20        18        17        27     9        0.000000        0.840718         3    ;  uncertainty k = 0.199496
        20        18        17        27     9      180.000000        0.238884         4    ;  uncertainty k = 0.091169
        21        11        10        22     9        0.000000       -0.346561         1    ;  uncertainty k = 0.352950
        21        11        10        22     9      180.000000        7.503847         2    ;  uncertainty k = 0.350733
        21        11        10        22     9        0.000000        0.721572         3    ;  uncertainty k = 0.206117
        21        11        10        22     9      180.000000        1.006913         4    ;  uncertainty k = 0.280155
        21        11        12        23     9        0.000000       -0.306801         1    ;  uncertainty k = 0.373552
        21        11        12        23     9      180.000000        7.440929         2    ;  uncertainty k = 0.240857
        21        11        12        23     9        0.000000        0.782697         3    ;  uncertainty k = 0.263032
        21        11        12        23     9      180.000000        0.957394         4    ;  uncertainty k = 0.323343
        23        12        13        24     9        0.000000        0.014766         1    ;  uncertainty k = 0.379398
        23        12        13        24     9      180.000000        7.615670         2    ;  uncertainty k = 0.344486
        23        12        13        24     9        0.000000       -0.366331         3    ;  uncertainty k = 0.289949
        23        12        13        24     9      180.000000        0.150936         4    ;  uncertainty k = 0.148496
        24        13        14        25     9        0.000000       -0.029681         1    ;  uncertainty k = 0.270050
        24        13        14        25     9      180.000000        7.639796         2    ;  uncertainty k = 0.375830
        24        13        14        25     9        0.000000       -0.432695         3    ;  uncertainty k = 0.304884
        24        13        14        25     9      180.000000        0.116555         4    ;  uncertainty k = 0.122993

[ dihedrals ] ; impropers
;       ai        aj        ak        al funct           phase               k        pn
         2         1         3         6     4      180.000000        2.833395         2    ;  uncertainty k = 1.376267
         2         3         6         1     4      180.000000        2.833395         2    ;  uncertainty k = 1.376267
         2         6         1         3     4      180.000000        2.833395         2    ;  uncertainty k = 1.376267
         3         2         4        16     4      180.000000        5.361893         2    ;  uncertainty k = 0.990709
         3         4        16         2     4      180.000000        5.361893         2    ;  uncertainty k = 0.990709
         3        16         2         4     4      180.000000        5.361893         2    ;  uncertainty k = 0.990709
         4         3         5        15     4      180.000000        2.498686         2    ;  uncertainty k = 0.371762
         4         5        15         3     4      180.000000        2.498686         2    ;  uncertainty k = 0.371762
         4        15         3         5     4      180.000000        2.498686         2    ;  uncertainty k = 0.371762
         5         1         4         9     4      180.000000        5.448475         2    ;  uncertainty k = 0.365933
         5         4         9         1     4      180.000000        5.448475         2    ;  uncertainty k = 0.365933
         5         9         1         4     4      180.000000        5.448475         2    ;  uncertainty k = 0.365933
         6         2         7         8     4      180.000000       66.076957         2    ;  uncertainty k = 0.057409
         6         7         8         2     4      180.000000       66.076957         2    ;  uncertainty k = 0.057409
         6         8         2         7     4      180.000000       66.076957         2    ;  uncertainty k = 0.057409
         9         5        10        14     4      180.000000       14.621271         2    ;  uncertainty k = 0.064617
         9        10        14         5     4      180.000000       14.621271         2    ;  uncertainty k = 0.064617
         9        14         5        10     4      180.000000       14.621271         2    ;  uncertainty k = 0.064617
        10         9        11        22     4      180.000000        2.041999         2    ;  uncertainty k = 0.281995
        10        11        22         9     4      180.000000        2.041999         2    ;  uncertainty k = 0.281995
        10        22         9        11     4      180.000000        2.041999         2    ;  uncertainty k = 0.281995
        11        10        12        21     4      180.000000       19.552517         2    ;  uncertainty k = 0.087401
        11        12        21        10     4      180.000000       19.552517         2    ;  uncertainty k = 0.087401
        11        21        10        12     4      180.000000       19.552517         2    ;  uncertainty k = 0.087401
        12        11        13        23     4      180.000000        2.163696         2    ;  uncertainty k = 0.231293
        12        13        23        11     4      180.000000        2.163696         2    ;  uncertainty k = 0.231293
        12        23        11        13     4      180.000000        2.163696         2    ;  uncertainty k = 0.231293
        13        12        14        24     4      180.000000        4.301954         2    ;  uncertainty k = 0.154248
        13        14        24        12     4      180.000000        4.301954         2    ;  uncertainty k = 0.154248
        13        24        12        14     4      180.000000        4.301954         2    ;  uncertainty k = 0.154248
        14         9        13        25     4      180.000000        2.866630         2    ;  uncertainty k = 0.143171
        14        13        25         9     4      180.000000        2.866630         2    ;  uncertainty k = 0.143171
        14        25         9        13     4      180.000000        2.866630         2    ;  uncertainty k = 0.143171
        18        17        19        20     4      180.000000       68.314311         2    ;  uncertainty k = 0.022612
        18        19        20        17     4      180.000000       68.314311         2    ;  uncertainty k = 0.022612
        18        20        17        19     4      180.000000       68.314311         2    ;  uncertainty k = 0.022612

[ pairs ]
;       ai        aj funct
         1         7     1
         1         8     1
         1        10     1
         1        14     1
         1        15     1
         1        16     1
         2         9     1
         2        15     1
         2        17     1
         3         7     1
         3         8     1
         3         9     1
         3        18     1
         3        26     1
         3        27     1
         4         6     1
         4        10     1
         4        14     1
         4        17     1
         5         6     1
         5        11     1
         5        13     1
         5        16     1
         5        22     1
         5        25     1
         6        16     1
         9        12     1
         9        15     1
         9        21     1
         9        24     1
        10        13     1
        10        23     1
        10        25     1
        10        28     1
        10        29     1
        11        14     1
        11        24     1
        12        22     1
        12        25     1
        12        28     1
        12        29     1
        13        21     1
        14        22     1
        14        23     1
        15        16     1
        16        19     1
        16        20     1
        19        26     1
        19        27     1
        20        26     1
        20        27     1
        21        22     1
        21        23     1
        23        24     1
        24        25     1
