; ITP file created by ByteFF-joint-25, 2026-02-17 09:28:47.797087

[ atomtypes ]
;name           bonded.type        at.num        mass        charge   ptype           sigma         epsilon
 s0bf                                  16      0.0000       0.00000       A     3.53165e-01     1.18204e+00    ;  uncertainty sigma = 0.000053, epsilon = 0.003055
 c1bf                                   6      0.0000       0.00000       A     3.31495e-01     4.13373e-01    ;  uncertainty sigma = 0.000032, epsilon = 0.002340
 c2bf                                   6      0.0000       0.00000       A     3.31500e-01     4.12069e-01    ;  uncertainty sigma = 0.000033, epsilon = 0.001338
 c3bf                                   6      0.0000       0.00000       A     3.31511e-01     4.13455e-01    ;  uncertainty sigma = 0.000012, epsilon = 0.000975
 c4bf                                   6      0.0000       0.00000       A     3.31514e-01     4.13061e-01    ;  uncertainty sigma = 0.000022, epsilon = 0.000877
 c5bf                                   6      0.0000       0.00000       A     3.31529e-01     4.13194e-01    ;  uncertainty sigma = 0.000055, epsilon = 0.002345
 o6bf                                   8      0.0000       0.00000       A     3.04804e-01     6.11836e-01    ;  uncertainty sigma = 0.000044, epsilon = 0.001672
 o7bf                                   8      0.0000       0.00000       A     3.04804e-01     6.11836e-01    ;  uncertainty sigma = 0.000044, epsilon = 0.001672
 c8bf                                   6      0.0000       0.00000       A     3.31501e-01     4.12994e-01    ;  uncertainty sigma = 0.000011, epsilon = 0.000434
 c9bf                                   6      0.0000       0.00000       A     3.31542e-01     4.13478e-01    ;  uncertainty sigma = 0.000008, epsilon = 0.000419
 c10bf                                  6      0.0000       0.00000       A     3.31519e-01     4.13291e-01    ;  uncertainty sigma = 0.000007, epsilon = 0.001080
 c11bf                                  6      0.0000       0.00000       A     3.31530e-01     4.13393e-01    ;  uncertainty sigma = 0.000006, epsilon = 0.000614
 c12bf                                  6      0.0000       0.00000       A     3.31524e-01     4.13504e-01    ;  uncertainty sigma = 0.000003, epsilon = 0.000683
 c13bf                                  6      0.0000       0.00000       A     3.31520e-01     4.13276e-01    ;  uncertainty sigma = 0.000003, epsilon = 0.000632
 br14bf                                35      0.0000       0.00000       A     3.61258e-01     1.64394e+00    ;  uncertainty sigma = 0.000027, epsilon = 0.006365
 o15bf                                  8      0.0000       0.00000       A     3.15802e-01     3.03913e-01    ;  uncertainty sigma = 0.000078, epsilon = 0.010291
 c16bf                                  6      0.0000       0.00000       A     3.39717e-01     4.50736e-01    ;  uncertainty sigma = 0.000028, epsilon = 0.002811
 c17bf                                  6      0.0000       0.00000       A     3.31523e-01     4.12941e-01    ;  uncertainty sigma = 0.000026, epsilon = 0.002863
 o18bf                                  8      0.0000       0.00000       A     3.04805e-01     6.12312e-01    ;  uncertainty sigma = 0.000022, epsilon = 0.002455
 o19bf                                  8      0.0000       0.00000       A     3.04805e-01     6.12312e-01    ;  uncertainty sigma = 0.000022, epsilon = 0.002455
 n20bf                                  7      0.0000       0.00000       A     3.27031e-01     4.90325e-01    ;  uncertainty sigma = 0.000012, epsilon = 0.001850
 h21bf                                  1      0.0000       0.00000       A     2.62548e-01     6.70331e-02    ;  uncertainty sigma = 0.000013, epsilon = 0.000580
 h22bf                                  1      0.0000       0.00000       A     2.62558e-01     6.70546e-02    ;  uncertainty sigma = 0.000013, epsilon = 0.000516
 h23bf                                  1      0.0000       0.00000       A     2.62563e-01     6.69897e-02    ;  uncertainty sigma = 0.000012, epsilon = 0.000446
 h24bf                                  1      0.0000       0.00000       A     2.62561e-01     6.70429e-02    ;  uncertainty sigma = 0.000012, epsilon = 0.000452
 h25bf                                  1      0.0000       0.00000       A     2.42291e-01     8.67021e-02    ;  uncertainty sigma = 0.000194, epsilon = 0.000950
 h26bf                                  1      0.0000       0.00000       A     2.42291e-01     8.67021e-02    ;  uncertainty sigma = 0.000194, epsilon = 0.000950
 h27bf                                  1      0.0000       0.00000       A     1.10697e-01     4.15615e-02    ;  uncertainty sigma = 0.000094, epsilon = 0.000787
 c28bf                                  6      0.0000       0.00000       A     3.31532e-01     4.13285e-01    ;  uncertainty sigma = 0.000006, epsilon = 0.000870
 o29bf                                  8      0.0000       0.00000       A     3.04831e-01     6.12684e-01    ;  uncertainty sigma = 0.000012, epsilon = 0.001335
 c30bf                                  6      0.0000       0.00000       A     3.31519e-01     4.13331e-01    ;  uncertainty sigma = 0.000003, epsilon = 0.000569
 c31bf                                  6      0.0000       0.00000       A     3.31514e-01     4.13415e-01    ;  uncertainty sigma = 0.000001, epsilon = 0.000613
 c32bf                                  6      0.0000       0.00000       A     3.31524e-01     4.13465e-01    ;  uncertainty sigma = 0.000003, epsilon = 0.000552
 c33bf                                  6      0.0000       0.00000       A     3.31488e-01     4.13200e-01    ;  uncertainty sigma = 0.000009, epsilon = 0.000854
 c34bf                                  6      0.0000       0.00000       A     3.31524e-01     4.13465e-01    ;  uncertainty sigma = 0.000003, epsilon = 0.000552
 c35bf                                  6      0.0000       0.00000       A     3.31514e-01     4.13414e-01    ;  uncertainty sigma = 0.000001, epsilon = 0.000614
 h36bf                                  1      0.0000       0.00000       A     2.62552e-01     6.70646e-02    ;  uncertainty sigma = 0.000011, epsilon = 0.000453
 h37bf                                  1      0.0000       0.00000       A     2.62558e-01     6.70324e-02    ;  uncertainty sigma = 0.000010, epsilon = 0.000442
 h38bf                                  1      0.0000       0.00000       A     2.62550e-01     6.70182e-02    ;  uncertainty sigma = 0.000010, epsilon = 0.000665
 h39bf                                  1      0.0000       0.00000       A     2.62550e-01     6.70183e-02    ;  uncertainty sigma = 0.000010, epsilon = 0.000665
 h40bf                                  1      0.0000       0.00000       A     2.62558e-01     6.70322e-02    ;  uncertainty sigma = 0.000010, epsilon = 0.000442

[ moleculetype ]
;name             nrexcl
 MOL                   3

[ atoms ]
;       nr            type      resi   res      atom      cgnr      charge          mass ; qtot
         1            s0bf         1   UNL        s0         1    -0.06026       32.0670 ; qtot   -0.060
         2            c1bf         1   UNL        c1         2    -0.15250       12.0110 ; qtot   -0.213
         3            c2bf         1   UNL        c2         3     0.12085       12.0110 ; qtot   -0.092
         4            c3bf         1   UNL        c3         4    -0.04845       12.0110 ; qtot   -0.140
         5            c4bf         1   UNL        c4         5    -0.04819       12.0110 ; qtot   -0.189
         6            c5bf         1   UNL        c5         6     0.93104       12.0110 ; qtot    0.742
         7            o6bf         1   UNL        o6         7    -0.81786       15.9990 ; qtot   -0.075
         8            o7bf         1   UNL        o7         8    -0.81786       15.9990 ; qtot   -0.893
         9            c8bf         1   UNL        c8         9     0.01851       12.0110 ; qtot   -0.875
        10            c9bf         1   UNL        c9        10    -0.15433       12.0110 ; qtot   -1.029
        11           c10bf         1   UNL       c10        11     0.07651       12.0110 ; qtot   -0.953
        12           c11bf         1   UNL       c11        12    -0.15920       12.0110 ; qtot   -1.112
        13           c12bf         1   UNL       c12        13    -0.09873       12.0110 ; qtot   -1.210
        14           c13bf         1   UNL       c13        14    -0.13744       12.0110 ; qtot   -1.348
        15          br14bf         1   UNL      br14        15    -0.09860       79.9040 ; qtot   -1.447
        16           o15bf         1   UNL       o15        16    -0.32674       15.9990 ; qtot   -1.773
        17           c16bf         1   UNL       c16        17    -0.04389       12.0110 ; qtot   -1.817
        18           c17bf         1   UNL       c17        18     0.91650       12.0110 ; qtot   -0.901
        19           o18bf         1   UNL       o18        19    -0.83281       15.9990 ; qtot   -1.733
        20           o19bf         1   UNL       o19        20    -0.83281       15.9990 ; qtot   -2.566
        21           n20bf         1   UNL       n20        21    -0.47637       14.0070 ; qtot   -3.043
        22           h21bf         1   UNL       h21        22     0.15796        1.0080 ; qtot   -2.885
        23           h22bf         1   UNL       h22        23     0.15321        1.0080 ; qtot   -2.731
        24           h23bf         1   UNL       h23        24     0.13564        1.0080 ; qtot   -2.596
        25           h24bf         1   UNL       h24        25     0.14276        1.0080 ; qtot   -2.453
        26           h25bf         1   UNL       h25        26     0.02291        1.0080 ; qtot   -2.430
        27           h26bf         1   UNL       h26        27     0.02291        1.0080 ; qtot   -2.407
        28           h27bf         1   UNL       h27        28     0.32070        1.0080 ; qtot   -2.087
        29           c28bf         1   UNL       c28        29     0.68654       12.0110 ; qtot   -1.400
        30           o29bf         1   UNL       o29        30    -0.57799       15.9990 ; qtot   -1.978
        31           c30bf         1   UNL       c30        31    -0.10530       12.0110 ; qtot   -2.083
        32           c31bf         1   UNL       c31        32    -0.13755       12.0110 ; qtot   -2.221
        33           c32bf         1   UNL       c32        33    -0.08842       12.0110 ; qtot   -2.309
        34           c33bf         1   UNL       c33        34    -0.15698       12.0110 ; qtot   -2.466
        35           c34bf         1   UNL       c34        35    -0.08842       12.0110 ; qtot   -2.555
        36           c35bf         1   UNL       c35        36    -0.13755       12.0110 ; qtot   -2.692
        37           h36bf         1   UNL       h36        37     0.13198        1.0080 ; qtot   -2.560
        38           h37bf         1   UNL       h37        38     0.13611        1.0080 ; qtot   -2.424
        39           h38bf         1   UNL       h38        39     0.14399        1.0080 ; qtot   -2.280
        40           h39bf         1   UNL       h39        40     0.14399        1.0080 ; qtot   -2.136
        41           h40bf         1   UNL       h40        41     0.13614        1.0080 ; qtot   -2.000

[ bonds ]
;       ai        aj funct               r               k
         1         2     1        0.174192   168649.560181    ;  uncertainty r = 0.000346, k = 32.148596
         1         5     1        0.174357   166232.447241    ;  uncertainty r = 0.000237, k = 14.888510
         2         3     1        0.138080   385642.911377    ;  uncertainty r = 0.000134, k = 36.968685
         2         6     1        0.154055   191773.233960    ;  uncertainty r = 0.000283, k = 45.899503
         3         4     1        0.143810   249799.356152    ;  uncertainty r = 0.000373, k = 34.755195
         3        16     1        0.136007   307552.652637    ;  uncertainty r = 0.000403, k = 36.149075
         4         5     1        0.137757   380537.379248    ;  uncertainty r = 0.000227, k = 7.612841
         4        15     1        0.190420   156686.726831    ;  uncertainty r = 0.000144, k = 29.636935
         5         9     1        0.146512   276484.001074    ;  uncertainty r = 0.000140, k = 8.275699
         6         7     1        0.126149   550576.911523    ;  uncertainty r = 0.000229, k = 9.262788
         6         8     1        0.126149   550576.911523    ;  uncertainty r = 0.000229, k = 9.262788
         9        10     1        0.139893   342970.988965    ;  uncertainty r = 0.000101, k = 1.945312
         9        14     1        0.140217   349501.287500    ;  uncertainty r = 0.000027, k = 3.618530
        10        11     1        0.140006   347057.896875    ;  uncertainty r = 0.000033, k = 3.253714
        10        22     1        0.108728   335782.420361    ;  uncertainty r = 0.000032, k = 2.242001
        11        12     1        0.140260   351823.402393    ;  uncertainty r = 0.000044, k = 2.595617
        11        21     1        0.141079   320538.374902    ;  uncertainty r = 0.000047, k = 2.901028
        12        13     1        0.139371   371252.852393    ;  uncertainty r = 0.000040, k = 3.010542
        12        23     1        0.108659   336278.121191    ;  uncertainty r = 0.000020, k = 2.428437
        13        14     1        0.139378   367329.535205    ;  uncertainty r = 0.000030, k = 1.881443
        13        24     1        0.108779   332372.475684    ;  uncertainty r = 0.000014, k = 1.522704
        14        25     1        0.108759   334843.242090    ;  uncertainty r = 0.000027, k = 0.771472
        16        17     1        0.144489   220596.573486    ;  uncertainty r = 0.000632, k = 19.356591
        17        18     1        0.155273   162501.513867    ;  uncertainty r = 0.000271, k = 66.063610
        17        26     1        0.109682   316919.485596    ;  uncertainty r = 0.000081, k = 8.518153
        17        27     1        0.109682   316919.485596    ;  uncertainty r = 0.000081, k = 8.518153
        18        19     1        0.126286   541570.585938    ;  uncertainty r = 0.000058, k = 12.189171
        18        20     1        0.126286   541570.585938    ;  uncertainty r = 0.000058, k = 12.189171
        21        28     1        0.101464   428357.991504    ;  uncertainty r = 0.000049, k = 2.307875
        21        29     1        0.137896   297730.671777    ;  uncertainty r = 0.000073, k = 11.867995
        29        30     1        0.123309   721090.182715    ;  uncertainty r = 0.000044, k = 4.983675
        29        34     1        0.150017   227819.974707    ;  uncertainty r = 0.000020, k = 4.702497
        31        32     1        0.139652   371365.292285    ;  uncertainty r = 0.000019, k = 1.048019
        31        36     1        0.139652   371365.292285    ;  uncertainty r = 0.000019, k = 1.048010
        31        37     1        0.108851   334582.431592    ;  uncertainty r = 0.000012, k = 0.680624
        32        33     1        0.139437   363746.448926    ;  uncertainty r = 0.000028, k = 1.714778
        32        38     1        0.108841   333491.052148    ;  uncertainty r = 0.000018, k = 0.926347
        33        34     1        0.140109   347476.782080    ;  uncertainty r = 0.000033, k = 2.304894
        33        39     1        0.108758   333407.852246    ;  uncertainty r = 0.000014, k = 1.133854
        34        35     1        0.140109   347476.756543    ;  uncertainty r = 0.000033, k = 2.304886
        35        36     1        0.139437   363746.423389    ;  uncertainty r = 0.000028, k = 1.714755
        35        40     1        0.108758   333407.852246    ;  uncertainty r = 0.000014, k = 1.133856
        36        41     1        0.108841   333491.052148    ;  uncertainty r = 0.000018, k = 0.926342

[ angles ]
;       ai        aj        ak funct           theta             cth
         1         2         3     1      112.357254      490.287825    ;  uncertainty theta = 0.005257, k = 0.446159
         1         2         6     1      115.451401      321.272126    ;  uncertainty theta = 0.011344, k = 0.278095
         1         5         4     1      111.659386      449.584992    ;  uncertainty theta = 0.002310, k = 0.394971
         1         5         9     1      118.743629      342.105332    ;  uncertainty theta = 0.007439, k = 0.158122
         2         1         5     1       93.409683     1113.970975    ;  uncertainty theta = 0.008532, k = 0.189168
         2         3         4     1      115.069199      491.410436    ;  uncertainty theta = 0.004813, k = 0.280924
         2         3        16     1      123.043716      386.336563    ;  uncertainty theta = 0.006879, k = 0.395881
         2         6         7     1      114.979454      369.254791    ;  uncertainty theta = 0.012630, k = 0.171059
         2         6         8     1      114.979454      369.254791    ;  uncertainty theta = 0.012630, k = 0.171059
         3         2         6     1      128.246002      305.353665    ;  uncertainty theta = 0.014744, k = 0.309527
         3         4         5     1      117.601578      512.725910    ;  uncertainty theta = 0.003379, k = 0.473085
         3         4        15     1      119.051048      364.447781    ;  uncertainty theta = 0.003204, k = 0.273279
         3        16        17     1      112.137527      461.556502    ;  uncertainty theta = 0.007449, k = 0.230739
         4         3        16     1      118.536453      394.142587    ;  uncertainty theta = 0.008837, k = 0.130964
         4         5         9     1      126.542969      327.867372    ;  uncertainty theta = 0.004382, k = 0.182532
         5         4        15     1      120.673264      351.209758    ;  uncertainty theta = 0.006817, k = 0.079938
         5         9        10     1      120.226746      417.104502    ;  uncertainty theta = 0.002886, k = 0.135759
         5         9        14     1      121.195702      420.117339    ;  uncertainty theta = 0.001861, k = 0.070317
         7         6         8     1      131.649750      807.008217    ;  uncertainty theta = 0.009047, k = 0.187853
         9        10        11     1      120.469994      511.890527    ;  uncertainty theta = 0.003933, k = 0.102081
         9        10        22     1      120.014816      284.770851    ;  uncertainty theta = 0.001872, k = 0.072534
         9        14        13     1      119.256271      529.901468    ;  uncertainty theta = 0.001553, k = 0.054364
         9        14        25     1      119.517700      279.527092    ;  uncertainty theta = 0.002370, k = 0.060327
        10         9        14     1      120.874596      395.291214    ;  uncertainty theta = 0.004237, k = 0.191441
        10        11        12     1      120.420395      374.551889    ;  uncertainty theta = 0.008417, k = 0.037094
        10        11        21     1      119.462051      521.276437    ;  uncertainty theta = 0.003375, k = 0.092058
        11        10        22     1      118.944786      272.362369    ;  uncertainty theta = 0.001776, k = 0.055146
        11        12        13     1      118.569321      508.528695    ;  uncertainty theta = 0.001692, k = 0.095506
        11        12        23     1      118.877907      267.602986    ;  uncertainty theta = 0.000602, k = 0.053608
        11        21        28     1      113.945068      306.891127    ;  uncertainty theta = 0.003802, k = 0.204166
        11        21        29     1      119.019493      429.176564    ;  uncertainty theta = 0.004937, k = 0.088539
        12        11        21     1      120.113647      521.611228    ;  uncertainty theta = 0.003887, k = 0.062192
        12        13        14     1      120.824440      498.987296    ;  uncertainty theta = 0.002610, k = 0.079527
        12        13        24     1      119.795593      280.500695    ;  uncertainty theta = 0.001043, k = 0.038444
        13        12        23     1      121.100792      319.486795    ;  uncertainty theta = 0.001518, k = 0.082587
        13        14        25     1      120.788986      296.778750    ;  uncertainty theta = 0.001122, k = 0.065456
        14        13        24     1      120.083252      281.235685    ;  uncertainty theta = 0.000949, k = 0.026108
        16        17        18     1      108.358414      484.414258    ;  uncertainty theta = 0.009599, k = 0.239378
        16        17        26     1      106.609215      413.715920    ;  uncertainty theta = 0.002333, k = 0.101205
        16        17        27     1      106.609215      413.715920    ;  uncertainty theta = 0.002333, k = 0.101205
        17        18        19     1      116.281067      425.507680    ;  uncertainty theta = 0.009799, k = 0.299635
        17        18        20     1      116.281067      425.507680    ;  uncertainty theta = 0.009799, k = 0.299635
        18        17        26     1      110.053444      352.214644    ;  uncertainty theta = 0.003968, k = 0.110269
        18        17        27     1      110.053444      352.214644    ;  uncertainty theta = 0.003968, k = 0.110269
        19        18        20     1      131.546265      818.159315    ;  uncertainty theta = 0.002374, k = 0.066126
        21        29        30     1      121.862534      730.626723    ;  uncertainty theta = 0.003510, k = 0.122487
        21        29        34     1      113.885765      460.032734    ;  uncertainty theta = 0.005044, k = 0.197538
        26        17        27     1      108.449631      321.244163    ;  uncertainty theta = 0.009962, k = 0.176306
        28        21        29     1      116.258423      336.191161    ;  uncertainty theta = 0.003541, k = 0.187696
        29        34        33     1      118.918640      323.301656    ;  uncertainty theta = 0.003058, k = 0.221651
        29        34        35     1      118.918640      323.301656    ;  uncertainty theta = 0.003058, k = 0.221651
        30        29        34     1      124.477234      548.486929    ;  uncertainty theta = 0.003874, k = 0.095846
        31        32        33     1      119.871071      518.598009    ;  uncertainty theta = 0.001573, k = 0.032157
        31        32        38     1      120.687317      289.046082    ;  uncertainty theta = 0.001086, k = 0.013911
        31        36        35     1      119.871071      518.597977    ;  uncertainty theta = 0.001573, k = 0.032157
        31        36        41     1      120.687302      289.046082    ;  uncertainty theta = 0.001086, k = 0.013911
        32        31        36     1      118.527451      525.974307    ;  uncertainty theta = 0.001588, k = 0.040882
        32        31        37     1      120.501976      287.909425    ;  uncertainty theta = 0.001845, k = 0.016081
        32        33        34     1      121.452942      516.192732    ;  uncertainty theta = 0.001698, k = 0.062446
        32        33        39     1      120.319923      288.580189    ;  uncertainty theta = 0.002442, k = 0.036093
        33        32        38     1      120.144516      283.251552    ;  uncertainty theta = 0.000768, k = 0.014446
        33        34        35     1      122.132889      462.857969    ;  uncertainty theta = 0.001740, k = 0.101478
        34        33        39     1      118.818802      267.421593    ;  uncertainty theta = 0.002617, k = 0.087487
        34        35        36     1      121.452942      516.192764    ;  uncertainty theta = 0.001698, k = 0.062446
        34        35        40     1      118.818802      267.421593    ;  uncertainty theta = 0.002617, k = 0.087487
        35        36        41     1      120.144531      283.251552    ;  uncertainty theta = 0.000768, k = 0.014446
        36        31        37     1      120.501976      287.909457    ;  uncertainty theta = 0.001845, k = 0.016081
        36        35        40     1      120.319923      288.580189    ;  uncertainty theta = 0.002442, k = 0.036093

[ dihedrals ] ; propers for gromacs 4.5 or higher, use funct 9
;       ai        aj        ak        al funct           phase               k        pn
         1         2         3         4     9        0.000000       -0.320833         1    ;  uncertainty k = 0.754080
         1         2         3         4     9      180.000000       17.555282         2    ;  uncertainty k = 0.424189
         1         2         3         4     9        0.000000       -2.376894         3    ;  uncertainty k = 1.115238
         1         2         3         4     9      180.000000        0.923152         4    ;  uncertainty k = 0.610957
         1         2         3        16     9        0.000000        0.376558         1    ;  uncertainty k = 1.230098
         1         2         3        16     9      180.000000       18.623043         2    ;  uncertainty k = 0.210713
         1         2         3        16     9        0.000000        1.608484         3    ;  uncertainty k = 0.452084
         1         2         3        16     9      180.000000        0.624278         4    ;  uncertainty k = 0.345564
         1         2         6         7     9        0.000000        0.648298         1    ;  uncertainty k = 2.496588
         1         2         6         7     9      180.000000        4.832235         2    ;  uncertainty k = 0.504618
         1         2         6         7     9        0.000000        0.188147         3    ;  uncertainty k = 0.527138
         1         2         6         7     9      180.000000        0.229089         4    ;  uncertainty k = 0.149777
         1         2         6         8     9        0.000000        0.648298         1    ;  uncertainty k = 2.496588
         1         2         6         8     9      180.000000        4.832235         2    ;  uncertainty k = 0.504618
         1         2         6         8     9        0.000000        0.188147         3    ;  uncertainty k = 0.527138
         1         2         6         8     9      180.000000        0.229089         4    ;  uncertainty k = 0.149777
         1         5         4         3     9        0.000000       -0.230943         1    ;  uncertainty k = 0.350057
         1         5         4         3     9      180.000000       15.958089         2    ;  uncertainty k = 0.404103
         1         5         4         3     9        0.000000       -2.380903         3    ;  uncertainty k = 0.809268
         1         5         4         3     9      180.000000        0.865666         4    ;  uncertainty k = 0.750586
         1         5         4        15     9        0.000000        0.242023         1    ;  uncertainty k = 0.389261
         1         5         4        15     9      180.000000       12.724293         2    ;  uncertainty k = 0.534639
         1         5         4        15     9        0.000000        2.310394         3    ;  uncertainty k = 0.489088
         1         5         4        15     9      180.000000        0.570757         4    ;  uncertainty k = 0.408314
         1         5         9        10     9        0.000000       -0.476123         1    ;  uncertainty k = 0.405485
         1         5         9        10     9      180.000000        3.303469         2    ;  uncertainty k = 0.082974
         1         5         9        10     9        0.000000        0.372782         3    ;  uncertainty k = 0.248105
         1         5         9        10     9      180.000000        0.160079         4    ;  uncertainty k = 0.135671
         1         5         9        14     9        0.000000       -0.213944         1    ;  uncertainty k = 0.541414
         1         5         9        14     9      180.000000        3.329723         2    ;  uncertainty k = 0.238002
         1         5         9        14     9        0.000000        0.475158         3    ;  uncertainty k = 0.251909
         1         5         9        14     9      180.000000        0.111308         4    ;  uncertainty k = 0.126160
         2         1         5         4     9        0.000000       -0.381502         1    ;  uncertainty k = 1.018320
         2         1         5         4     9      180.000000       14.624384         2    ;  uncertainty k = 0.929119
         2         1         5         4     9        0.000000       -6.005800         3    ;  uncertainty k = 1.036762
         2         1         5         4     9      180.000000        1.151585         4    ;  uncertainty k = 0.363309
         2         1         5         9     9        0.000000        0.634750         1    ;  uncertainty k = 1.300799
         2         1         5         9     9      180.000000       11.655227         2    ;  uncertainty k = 0.619935
         2         1         5         9     9        0.000000        0.976157         3    ;  uncertainty k = 1.170238
         2         1         5         9     9      180.000000       -0.041024         4    ;  uncertainty k = 0.486609
         2         3         4         5     9        0.000000       -0.163892         1    ;  uncertainty k = 0.802841
         2         3         4         5     9      180.000000        9.355372         2    ;  uncertainty k = 0.794784
         2         3         4         5     9        0.000000       -2.165171         3    ;  uncertainty k = 0.822975
         2         3         4         5     9      180.000000        0.987821         4    ;  uncertainty k = 0.358170
         2         3         4        15     9        0.000000        0.463445         1    ;  uncertainty k = 0.544884
         2         3         4        15     9      180.000000        7.807701         2    ;  uncertainty k = 0.817270
         2         3         4        15     9        0.000000        1.640989         3    ;  uncertainty k = 0.318182
         2         3         4        15     9      180.000000        0.389068         4    ;  uncertainty k = 0.234157
         2         3        16        17     9        0.000000        0.562638         1    ;  uncertainty k = 2.473037
         2         3        16        17     9      180.000000        4.453660         2    ;  uncertainty k = 1.236403
         2         3        16        17     9        0.000000       -0.243071         3    ;  uncertainty k = 0.584348
         2         3        16        17     9      180.000000        0.011309         4    ;  uncertainty k = 0.249195
         3         2         1         5     9        0.000000       -1.343735         1    ;  uncertainty k = 1.825069
         3         2         1         5     9      180.000000       12.410483         2    ;  uncertainty k = 0.765515
         3         2         1         5     9        0.000000       -3.924755         3    ;  uncertainty k = 1.286096
         3         2         1         5     9      180.000000        1.226932         4    ;  uncertainty k = 0.620813
         3         2         6         7     9        0.000000       -0.600971         1    ;  uncertainty k = 1.233380
         3         2         6         7     9      180.000000        2.750847         2    ;  uncertainty k = 0.470266
         3         2         6         7     9        0.000000        0.420307         3    ;  uncertainty k = 0.314900
         3         2         6         7     9      180.000000        0.072508         4    ;  uncertainty k = 0.103468
         3         2         6         8     9        0.000000       -0.600971         1    ;  uncertainty k = 1.233380
         3         2         6         8     9      180.000000        2.750847         2    ;  uncertainty k = 0.470266
         3         2         6         8     9        0.000000        0.420307         3    ;  uncertainty k = 0.314900
         3         2         6         8     9      180.000000        0.072508         4    ;  uncertainty k = 0.103468
         3         4         5         9     9        0.000000        0.206053         1    ;  uncertainty k = 0.214193
         3         4         5         9     9      180.000000       11.437435         2    ;  uncertainty k = 0.269987
         3         4         5         9     9        0.000000        1.975109         3    ;  uncertainty k = 0.453655
         3         4         5         9     9      180.000000        0.656640         4    ;  uncertainty k = 0.316124
         3        16        17        18     9        0.000000       -2.546996         1    ;  uncertainty k = 2.263476
         3        16        17        18     9      180.000000       -2.071281         2    ;  uncertainty k = 0.852216
         3        16        17        18     9        0.000000        0.377848         3    ;  uncertainty k = 0.447363
         3        16        17        18     9      180.000000        0.728091         4    ;  uncertainty k = 0.372243
         3        16        17        26     9        0.000000        1.943735         1    ;  uncertainty k = 0.725643
         3        16        17        26     9      180.000000       -1.013528         2    ;  uncertainty k = 0.770891
         3        16        17        26     9        0.000000        0.504468         3    ;  uncertainty k = 0.367188
         3        16        17        26     9      180.000000        0.022954         4    ;  uncertainty k = 0.163828
         3        16        17        27     9        0.000000        1.943735         1    ;  uncertainty k = 0.725643
         3        16        17        27     9      180.000000       -1.013528         2    ;  uncertainty k = 0.770891
         3        16        17        27     9        0.000000        0.504468         3    ;  uncertainty k = 0.367188
         3        16        17        27     9      180.000000        0.022954         4    ;  uncertainty k = 0.163828
         4         3         2         6     9        0.000000        0.750539         1    ;  uncertainty k = 1.420042
         4         3         2         6     9      180.000000        9.225337         2    ;  uncertainty k = 0.449657
         4         3         2         6     9        0.000000        2.146628         3    ;  uncertainty k = 0.096833
         4         3         2         6     9      180.000000        0.908103         4    ;  uncertainty k = 0.276689
         4         3        16        17     9        0.000000        4.003546         1    ;  uncertainty k = 2.209639
         4         3        16        17     9      180.000000        4.149396         2    ;  uncertainty k = 0.785914
         4         3        16        17     9        0.000000        0.594406         3    ;  uncertainty k = 0.772201
         4         3        16        17     9      180.000000       -0.129795         4    ;  uncertainty k = 0.090251
         4         5         9        10     9        0.000000        0.504985         1    ;  uncertainty k = 0.308863
         4         5         9        10     9      180.000000        3.049793         2    ;  uncertainty k = 0.232973
         4         5         9        10     9        0.000000        0.484308         3    ;  uncertainty k = 0.503995
         4         5         9        10     9      180.000000        0.011306         4    ;  uncertainty k = 0.115800
         4         5         9        14     9        0.000000        0.472376         1    ;  uncertainty k = 0.563434
         4         5         9        14     9      180.000000        3.094093         2    ;  uncertainty k = 0.272670
         4         5         9        14     9        0.000000        0.477061         3    ;  uncertainty k = 0.386712
         4         5         9        14     9      180.000000       -0.024678         4    ;  uncertainty k = 0.124685
         5         1         2         6     9        0.000000        0.451497         1    ;  uncertainty k = 2.202869
         5         1         2         6     9      180.000000        8.209202         2    ;  uncertainty k = 0.569487
         5         1         2         6     9        0.000000        1.043882         3    ;  uncertainty k = 0.663821
         5         1         2         6     9      180.000000        0.550351         4    ;  uncertainty k = 0.309694
         5         4         3        16     9        0.000000        0.887263         1    ;  uncertainty k = 1.387606
         5         4         3        16     9      180.000000       11.850633         2    ;  uncertainty k = 0.768527
         5         4         3        16     9        0.000000        1.717065         3    ;  uncertainty k = 0.314044
         5         4         3        16     9      180.000000        0.438991         4    ;  uncertainty k = 0.459203
         5         9        10        11     9        0.000000        0.123402         1    ;  uncertainty k = 0.241615
         5         9        10        11     9      180.000000        8.385110         2    ;  uncertainty k = 0.730931
         5         9        10        11     9        0.000000        1.342001         3    ;  uncertainty k = 0.383840
         5         9        10        11     9      180.000000        1.705898         4    ;  uncertainty k = 0.155545
         5         9        10        22     9        0.000000       -0.168839         1    ;  uncertainty k = 0.444141
         5         9        10        22     9      180.000000        7.083396         2    ;  uncertainty k = 0.391971
         5         9        10        22     9        0.000000        0.737955         3    ;  uncertainty k = 0.244237
         5         9        10        22     9      180.000000        1.253823         4    ;  uncertainty k = 0.198185
         5         9        14        13     9        0.000000        0.000208         1    ;  uncertainty k = 0.352601
         5         9        14        13     9      180.000000        8.999778         2    ;  uncertainty k = 0.483884
         5         9        14        13     9        0.000000        1.126075         3    ;  uncertainty k = 0.284053
         5         9        14        13     9      180.000000        1.726652         4    ;  uncertainty k = 0.166110
         5         9        14        25     9        0.000000       -0.167551         1    ;  uncertainty k = 0.572212
         5         9        14        25     9      180.000000        6.857422         2    ;  uncertainty k = 0.373088
         5         9        14        25     9        0.000000        0.757356         3    ;  uncertainty k = 0.226238
         5         9        14        25     9      180.000000        1.251405         4    ;  uncertainty k = 0.166929
         6         2         3        16     9        0.000000       -0.665249         1    ;  uncertainty k = 0.977507
         6         2         3        16     9      180.000000       11.691680         2    ;  uncertainty k = 0.581130
         6         2         3        16     9        0.000000        1.652052         3    ;  uncertainty k = 0.309495
         6         2         3        16     9      180.000000        0.410579         4    ;  uncertainty k = 0.549466
         9         5         4        15     9        0.000000        0.039778         1    ;  uncertainty k = 0.682298
         9         5         4        15     9      180.000000        8.647905         2    ;  uncertainty k = 0.565831
         9         5         4        15     9        0.000000        1.537070         3    ;  uncertainty k = 0.088387
         9         5         4        15     9      180.000000        0.835150         4    ;  uncertainty k = 0.165388
         9        10        11        12     9        0.000000       -0.117128         1    ;  uncertainty k = 0.300628
         9        10        11        12     9      180.000000        9.676228         2    ;  uncertainty k = 0.390630
         9        10        11        12     9        0.000000        0.123628         3    ;  uncertainty k = 0.199943
         9        10        11        12     9      180.000000        1.167455         4    ;  uncertainty k = 0.319469
         9        10        11        21     9        0.000000       -0.049727         1    ;  uncertainty k = 0.295905
         9        10        11        21     9      180.000000       10.702202         2    ;  uncertainty k = 0.471071
         9        10        11        21     9        0.000000        1.230189         3    ;  uncertainty k = 0.433071
         9        10        11        21     9      180.000000        1.603731         4    ;  uncertainty k = 0.290488
         9        14        13        12     9        0.000000       -0.115589         1    ;  uncertainty k = 0.175157
         9        14        13        12     9      180.000000       14.817528         2    ;  uncertainty k = 0.427920
         9        14        13        12     9        0.000000       -1.030270         3    ;  uncertainty k = 0.286660
         9        14        13        12     9      180.000000        0.564598         4    ;  uncertainty k = 0.296286
         9        14        13        24     9        0.000000        0.072135         1    ;  uncertainty k = 0.069467
         9        14        13        24     9      180.000000        7.747807         2    ;  uncertainty k = 0.303594
         9        14        13        24     9        0.000000        1.328020         3    ;  uncertainty k = 0.275578
         9        14        13        24     9      180.000000        1.821017         4    ;  uncertainty k = 0.104489
        10         9        14        13     9        0.000000       -0.295610         1    ;  uncertainty k = 0.115610
        10         9        14        13     9      180.000000       11.666199         2    ;  uncertainty k = 0.344737
        10         9        14        13     9        0.000000       -0.498489         3    ;  uncertainty k = 0.111894
        10         9        14        13     9      180.000000        0.906133         4    ;  uncertainty k = 0.233938
        10         9        14        25     9        0.000000        0.057092         1    ;  uncertainty k = 0.295211
        10         9        14        25     9      180.000000        7.053800         2    ;  uncertainty k = 0.619941
        10         9        14        25     9        0.000000        1.430870         3    ;  uncertainty k = 0.215811
        10         9        14        25     9      180.000000        1.635206         4    ;  uncertainty k = 0.288305
        10        11        12        13     9        0.000000       -0.176972         1    ;  uncertainty k = 0.181257
        10        11        12        13     9      180.000000        9.867336         2    ;  uncertainty k = 0.337890
        10        11        12        13     9        0.000000       -0.037819         3    ;  uncertainty k = 0.109174
        10        11        12        13     9      180.000000        1.199209         4    ;  uncertainty k = 0.210787
        10        11        12        23     9        0.000000        0.115690         1    ;  uncertainty k = 0.346977
        10        11        12        23     9      180.000000        6.910881         2    ;  uncertainty k = 0.452755
        10        11        12        23     9        0.000000        1.269098         3    ;  uncertainty k = 0.347901
        10        11        12        23     9      180.000000        1.513065         4    ;  uncertainty k = 0.151970
        10        11        21        28     9        0.000000        0.793457         1    ;  uncertainty k = 0.801797
        10        11        21        28     9      180.000000        3.888692         2    ;  uncertainty k = 0.447238
        10        11        21        28     9        0.000000        0.664587         3    ;  uncertainty k = 0.227991
        10        11        21        28     9      180.000000        0.332844         4    ;  uncertainty k = 0.066989
        10        11        21        29     9        0.000000        0.339272         1    ;  uncertainty k = 0.418864
        10        11        21        29     9      180.000000        4.259011         2    ;  uncertainty k = 0.155186
        10        11        21        29     9        0.000000        0.921303         3    ;  uncertainty k = 0.107922
        10        11        21        29     9      180.000000        0.261027         4    ;  uncertainty k = 0.114939
        11        10         9        14     9        0.000000       -0.104485         1    ;  uncertainty k = 0.177692
        11        10         9        14     9      180.000000       10.895593         2    ;  uncertainty k = 0.253320
        11        10         9        14     9        0.000000       -0.093896         3    ;  uncertainty k = 0.175177
        11        10         9        14     9      180.000000        1.052658         4    ;  uncertainty k = 0.203232
        11        12        13        14     9        0.000000       -0.205669         1    ;  uncertainty k = 0.261873
        11        12        13        14     9      180.000000       14.241904         2    ;  uncertainty k = 0.144305
        11        12        13        14     9        0.000000       -0.853191         3    ;  uncertainty k = 0.445485
        11        12        13        14     9      180.000000        0.740319         4    ;  uncertainty k = 0.263047
        11        12        13        24     9        0.000000       -0.011861         1    ;  uncertainty k = 0.252017
        11        12        13        24     9      180.000000        8.118064         2    ;  uncertainty k = 0.450792
        11        12        13        24     9        0.000000        1.267632         3    ;  uncertainty k = 0.274157
        11        12        13        24     9      180.000000        1.675982         4    ;  uncertainty k = 0.087553
        11        21        29        30     9        0.000000        1.472020         1    ;  uncertainty k = 1.287688
        11        21        29        30     9      180.000000       10.838721         2    ;  uncertainty k = 0.175273
        11        21        29        30     9        0.000000        0.977475         3    ;  uncertainty k = 0.171250
        11        21        29        30     9      180.000000       -0.190715         4    ;  uncertainty k = 0.184712
        11        21        29        34     9        0.000000        4.918301         1    ;  uncertainty k = 1.267633
        11        21        29        34     9      180.000000       11.049365         2    ;  uncertainty k = 0.133640
        11        21        29        34     9        0.000000        1.889859         3    ;  uncertainty k = 0.178594
        11        21        29        34     9      180.000000       -1.297043         4    ;  uncertainty k = 0.390540
        12        11        10        22     9        0.000000        0.198819         1    ;  uncertainty k = 0.294889
        12        11        10        22     9      180.000000        7.072336         2    ;  uncertainty k = 0.442508
        12        11        10        22     9        0.000000        1.301288         3    ;  uncertainty k = 0.283292
        12        11        10        22     9      180.000000        1.587948         4    ;  uncertainty k = 0.193192
        12        11        21        28     9        0.000000        0.137998         1    ;  uncertainty k = 0.962315
        12        11        21        28     9      180.000000        3.846220         2    ;  uncertainty k = 0.241968
        12        11        21        28     9        0.000000        0.620294         3    ;  uncertainty k = 0.127015
        12        11        21        28     9      180.000000        0.373879         4    ;  uncertainty k = 0.063040
        12        11        21        29     9        0.000000        0.730734         1    ;  uncertainty k = 0.577723
        12        11        21        29     9      180.000000        4.154337         2    ;  uncertainty k = 0.278897
        12        11        21        29     9        0.000000        0.950143         3    ;  uncertainty k = 0.203821
        12        11        21        29     9      180.000000        0.247983         4    ;  uncertainty k = 0.130825
        12        13        14        25     9        0.000000        0.104450         1    ;  uncertainty k = 0.256354
        12        13        14        25     9      180.000000        7.837605         2    ;  uncertainty k = 0.255517
        12        13        14        25     9        0.000000        1.399196         3    ;  uncertainty k = 0.237896
        12        13        14        25     9      180.000000        1.844897         4    ;  uncertainty k = 0.129391
        13        12        11        21     9        0.000000       -0.063070         1    ;  uncertainty k = 0.229673
        13        12        11        21     9      180.000000       10.412725         2    ;  uncertainty k = 0.638631
        13        12        11        21     9        0.000000        1.107731         3    ;  uncertainty k = 0.447428
        13        12        11        21     9      180.000000        1.699593         4    ;  uncertainty k = 0.317363
        14         9        10        22     9        0.000000        0.220675         1    ;  uncertainty k = 0.219986
        14         9        10        22     9      180.000000        7.091525         2    ;  uncertainty k = 0.528784
        14         9        10        22     9        0.000000        1.572709         3    ;  uncertainty k = 0.133820
        14         9        10        22     9      180.000000        1.701165         4    ;  uncertainty k = 0.230649
        14        13        12        23     9        0.000000        0.083570         1    ;  uncertainty k = 0.053615
        14        13        12        23     9      180.000000        7.991051         2    ;  uncertainty k = 0.341327
        14        13        12        23     9        0.000000        1.511942         3    ;  uncertainty k = 0.236022
        14        13        12        23     9      180.000000        1.859051         4    ;  uncertainty k = 0.165509
        15         4         3        16     9        0.000000       -0.300934         1    ;  uncertainty k = 0.650861
        15         4         3        16     9      180.000000        9.165092         2    ;  uncertainty k = 0.275746
        15         4         3        16     9        0.000000        1.456381         3    ;  uncertainty k = 0.310393
        15         4         3        16     9      180.000000        0.631618         4    ;  uncertainty k = 0.388932
        16        17        18        19     9        0.000000        1.079222         1    ;  uncertainty k = 0.841475
        16        17        18        19     9      180.000000        5.864588         2    ;  uncertainty k = 0.515928
        16        17        18        19     9        0.000000        1.140649         3    ;  uncertainty k = 0.463168
        16        17        18        19     9      180.000000        0.279519         4    ;  uncertainty k = 0.238932
        16        17        18        20     9        0.000000        1.079222         1    ;  uncertainty k = 0.841475
        16        17        18        20     9      180.000000        5.864588         2    ;  uncertainty k = 0.515928
        16        17        18        20     9        0.000000        1.140649         3    ;  uncertainty k = 0.463168
        16        17        18        20     9      180.000000        0.279519         4    ;  uncertainty k = 0.238932
        19        18        17        26     9        0.000000       -2.498422         1    ;  uncertainty k = 1.124580
        19        18        17        26     9      180.000000        1.806048         2    ;  uncertainty k = 0.648461
        19        18        17        26     9        0.000000        0.840718         3    ;  uncertainty k = 0.199496
        19        18        17        26     9      180.000000        0.238884         4    ;  uncertainty k = 0.091169
        19        18        17        27     9        0.000000       -2.498422         1    ;  uncertainty k = 1.124580
        19        18        17        27     9      180.000000        1.806048         2    ;  uncertainty k = 0.648461
        19        18        17        27     9        0.000000        0.840718         3    ;  uncertainty k = 0.199496
        19        18        17        27     9      180.000000        0.238884         4    ;  uncertainty k = 0.091169
        20        18        17        26     9        0.000000       -2.498422         1    ;  uncertainty k = 1.124580
        20        18        17        26     9      180.000000        1.806048         2    ;  uncertainty k = 0.648461
        20        18        17        26     9        0.000000        0.840718         3    ;  uncertainty k = 0.199496
        20        18        17        26     9      180.000000        0.238884         4    ;  uncertainty k = 0.091169
        20        18        17        27     9        0.000000       -2.498422         1    ;  uncertainty k = 1.124580
        20        18        17        27     9      180.000000        1.806048         2    ;  uncertainty k = 0.648461
        20        18        17        27     9        0.000000        0.840718         3    ;  uncertainty k = 0.199496
        20        18        17        27     9      180.000000        0.238884         4    ;  uncertainty k = 0.091169
        21        11        10        22     9        0.000000       -0.198739         1    ;  uncertainty k = 0.282289
        21        11        10        22     9      180.000000        8.332010         2    ;  uncertainty k = 0.391095
        21        11        10        22     9        0.000000        0.804830         3    ;  uncertainty k = 0.244571
        21        11        10        22     9      180.000000        1.273113         4    ;  uncertainty k = 0.208268
        21        11        12        23     9        0.000000       -0.277927         1    ;  uncertainty k = 0.267267
        21        11        12        23     9      180.000000        8.195282         2    ;  uncertainty k = 0.390664
        21        11        12        23     9        0.000000        0.821698         3    ;  uncertainty k = 0.288589
        21        11        12        23     9      180.000000        1.198482         4    ;  uncertainty k = 0.195755
        21        29        34        33     9        0.000000        0.388138         1    ;  uncertainty k = 0.422587
        21        29        34        33     9      180.000000        3.144157         2    ;  uncertainty k = 0.149227
        21        29        34        33     9        0.000000        0.116910         3    ;  uncertainty k = 0.234142
        21        29        34        33     9      180.000000       -0.128417         4    ;  uncertainty k = 0.104617
        21        29        34        35     9        0.000000        0.388137         1    ;  uncertainty k = 0.422588
        21        29        34        35     9      180.000000        3.144158         2    ;  uncertainty k = 0.149227
        21        29        34        35     9        0.000000        0.116910         3    ;  uncertainty k = 0.234142
        21        29        34        35     9      180.000000       -0.128418         4    ;  uncertainty k = 0.104617
        23        12        13        24     9        0.000000       -0.162900         1    ;  uncertainty k = 0.449366
        23        12        13        24     9      180.000000        7.968713         2    ;  uncertainty k = 0.380110
        23        12        13        24     9        0.000000       -0.436006         3    ;  uncertainty k = 0.330628
        23        12        13        24     9      180.000000        0.196314         4    ;  uncertainty k = 0.160408
        24        13        14        25     9        0.000000       -0.046742         1    ;  uncertainty k = 0.293740
        24        13        14        25     9      180.000000        7.666904         2    ;  uncertainty k = 0.370555
        24        13        14        25     9        0.000000       -0.445849         3    ;  uncertainty k = 0.296099
        24        13        14        25     9      180.000000        0.120483         4    ;  uncertainty k = 0.125144
        28        21        29        30     9        0.000000        2.394147         1    ;  uncertainty k = 0.862878
        28        21        29        30     9      180.000000       13.336702         2    ;  uncertainty k = 0.274036
        28        21        29        30     9        0.000000        1.834946         3    ;  uncertainty k = 0.333920
        28        21        29        30     9      180.000000       -0.413456         4    ;  uncertainty k = 0.134017
        28        21        29        34     9        0.000000       -1.369651         1    ;  uncertainty k = 0.565705
        28        21        29        34     9      180.000000        6.106622         2    ;  uncertainty k = 0.713307
        28        21        29        34     9        0.000000        2.278057         3    ;  uncertainty k = 0.344365
        28        21        29        34     9      180.000000        0.086285         4    ;  uncertainty k = 0.300258
        29        34        33        32     9        0.000000        0.316044         1    ;  uncertainty k = 0.155524
        29        34        33        32     9      180.000000        9.221711         2    ;  uncertainty k = 0.549125
        29        34        33        32     9        0.000000        1.457561         3    ;  uncertainty k = 0.313838
        29        34        33        32     9      180.000000        1.829042         4    ;  uncertainty k = 0.281270
        29        34        33        39     9        0.000000       -0.050996         1    ;  uncertainty k = 0.462679
        29        34        33        39     9      180.000000        8.035663         2    ;  uncertainty k = 0.389548
        29        34        33        39     9        0.000000        0.951846         3    ;  uncertainty k = 0.202361
        29        34        33        39     9      180.000000        1.105465         4    ;  uncertainty k = 0.200954
        29        34        35        36     9        0.000000        0.316043         1    ;  uncertainty k = 0.155524
        29        34        35        36     9      180.000000        9.221711         2    ;  uncertainty k = 0.549125
        29        34        35        36     9        0.000000        1.457561         3    ;  uncertainty k = 0.313838
        29        34        35        36     9      180.000000        1.829042         4    ;  uncertainty k = 0.281270
        29        34        35        40     9        0.000000       -0.050996         1    ;  uncertainty k = 0.462679
        29        34        35        40     9      180.000000        8.035664         2    ;  uncertainty k = 0.389548
        29        34        35        40     9        0.000000        0.951846         3    ;  uncertainty k = 0.202360
        29        34        35        40     9      180.000000        1.105465         4    ;  uncertainty k = 0.200954
        30        29        34        33     9        0.000000       -0.444291         1    ;  uncertainty k = 0.339625
        30        29        34        33     9      180.000000        3.780791         2    ;  uncertainty k = 0.253383
        30        29        34        33     9        0.000000        0.403255         3    ;  uncertainty k = 0.220527
        30        29        34        33     9      180.000000       -0.034991         4    ;  uncertainty k = 0.068914
        30        29        34        35     9        0.000000       -0.444291         1    ;  uncertainty k = 0.339625
        30        29        34        35     9      180.000000        3.780791         2    ;  uncertainty k = 0.253382
        30        29        34        35     9        0.000000        0.403255         3    ;  uncertainty k = 0.220527
        30        29        34        35     9      180.000000       -0.034992         4    ;  uncertainty k = 0.068914
        31        32        33        34     9        0.000000       -0.101343         1    ;  uncertainty k = 0.119940
        31        32        33        34     9      180.000000       13.630159         2    ;  uncertainty k = 0.320830
        31        32        33        34     9        0.000000       -0.730069         3    ;  uncertainty k = 0.354899
        31        32        33        34     9      180.000000        0.776126         4    ;  uncertainty k = 0.240887
        31        32        33        39     9        0.000000        0.033390         1    ;  uncertainty k = 0.057162
        31        32        33        39     9      180.000000        7.767102         2    ;  uncertainty k = 0.228712
        31        32        33        39     9        0.000000        1.374838         3    ;  uncertainty k = 0.257123
        31        32        33        39     9      180.000000        1.837067         4    ;  uncertainty k = 0.200636
        31        36        35        34     9        0.000000       -0.101342         1    ;  uncertainty k = 0.119940
        31        36        35        34     9      180.000000       13.630158         2    ;  uncertainty k = 0.320830
        31        36        35        34     9        0.000000       -0.730069         3    ;  uncertainty k = 0.354899
        31        36        35        34     9      180.000000        0.776126         4    ;  uncertainty k = 0.240887
        31        36        35        40     9        0.000000        0.033390         1    ;  uncertainty k = 0.057163
        31        36        35        40     9      180.000000        7.767101         2    ;  uncertainty k = 0.228713
        31        36        35        40     9        0.000000        1.374838         3    ;  uncertainty k = 0.257123
        31        36        35        40     9      180.000000        1.837066         4    ;  uncertainty k = 0.200636
        32        31        36        35     9        0.000000       -0.076625         1    ;  uncertainty k = 0.107098
        32        31        36        35     9      180.000000       14.765530         2    ;  uncertainty k = 0.284455
        32        31        36        35     9        0.000000       -1.064485         3    ;  uncertainty k = 0.473627
        32        31        36        35     9      180.000000        0.559319         4    ;  uncertainty k = 0.270937
        32        31        36        41     9        0.000000        0.029731         1    ;  uncertainty k = 0.073314
        32        31        36        41     9      180.000000        7.670519         2    ;  uncertainty k = 0.323320
        32        31        36        41     9        0.000000        1.427010         3    ;  uncertainty k = 0.278329
        32        31        36        41     9      180.000000        1.805227         4    ;  uncertainty k = 0.097465
        32        33        34        35     9        0.000000       -0.006689         1    ;  uncertainty k = 0.140105
        32        33        34        35     9      180.000000       11.206604         2    ;  uncertainty k = 0.348468
        32        33        34        35     9        0.000000       -0.670574         3    ;  uncertainty k = 0.160392
        32        33        34        35     9      180.000000        0.950966         4    ;  uncertainty k = 0.242537
        33        32        31        36     9        0.000000       -0.076625         1    ;  uncertainty k = 0.107098
        33        32        31        36     9      180.000000       14.765531         2    ;  uncertainty k = 0.284455
        33        32        31        36     9        0.000000       -1.064484         3    ;  uncertainty k = 0.473627
        33        32        31        36     9      180.000000        0.559319         4    ;  uncertainty k = 0.270937
        33        32        31        37     9        0.000000        0.049496         1    ;  uncertainty k = 0.117858
        33        32        31        37     9      180.000000        7.399927         2    ;  uncertainty k = 0.322198
        33        32        31        37     9        0.000000        1.473416         3    ;  uncertainty k = 0.278016
        33        32        31        37     9      180.000000        1.774126         4    ;  uncertainty k = 0.097822
        33        34        35        36     9        0.000000       -0.006689         1    ;  uncertainty k = 0.140105
        33        34        35        36     9      180.000000       11.206605         2    ;  uncertainty k = 0.348468
        33        34        35        36     9        0.000000       -0.670574         3    ;  uncertainty k = 0.160393
        33        34        35        36     9      180.000000        0.950966         4    ;  uncertainty k = 0.242537
        33        34        35        40     9        0.000000        0.303274         1    ;  uncertainty k = 0.304635
        33        34        35        40     9      180.000000        7.210738         2    ;  uncertainty k = 0.513396
        33        34        35        40     9        0.000000        1.243423         3    ;  uncertainty k = 0.285436
        33        34        35        40     9      180.000000        1.694435         4    ;  uncertainty k = 0.260963
        34        33        32        38     9        0.000000       -0.023022         1    ;  uncertainty k = 0.261378
        34        33        32        38     9      180.000000        8.154283         2    ;  uncertainty k = 0.288550
        34        33        32        38     9        0.000000        1.415412         3    ;  uncertainty k = 0.190081
        34        33        32        38     9      180.000000        1.790151         4    ;  uncertainty k = 0.175805
        34        35        36        41     9        0.000000       -0.023021         1    ;  uncertainty k = 0.261378
        34        35        36        41     9      180.000000        8.154284         2    ;  uncertainty k = 0.288550
        34        35        36        41     9        0.000000        1.415412         3    ;  uncertainty k = 0.190081
        34        35        36        41     9      180.000000        1.790151         4    ;  uncertainty k = 0.175805
        35        34        33        39     9        0.000000        0.303273         1    ;  uncertainty k = 0.304634
        35        34        33        39     9      180.000000        7.210737         2    ;  uncertainty k = 0.513396
        35        34        33        39     9        0.000000        1.243424         3    ;  uncertainty k = 0.285437
        35        34        33        39     9      180.000000        1.694435         4    ;  uncertainty k = 0.260963
        35        36        31        37     9        0.000000        0.049496         1    ;  uncertainty k = 0.117857
        35        36        31        37     9      180.000000        7.399927         2    ;  uncertainty k = 0.322198
        35        36        31        37     9        0.000000        1.473416         3    ;  uncertainty k = 0.278016
        35        36        31        37     9      180.000000        1.774126         4    ;  uncertainty k = 0.097822
        36        31        32        38     9        0.000000        0.029732         1    ;  uncertainty k = 0.073315
        36        31        32        38     9      180.000000        7.670519         2    ;  uncertainty k = 0.323320
        36        31        32        38     9        0.000000        1.427010         3    ;  uncertainty k = 0.278329
        36        31        32        38     9      180.000000        1.805227         4    ;  uncertainty k = 0.097465
        37        31        32        38     9        0.000000       -0.109477         1    ;  uncertainty k = 0.024993
        37        31        32        38     9      180.000000        7.823949         2    ;  uncertainty k = 0.394933
        37        31        32        38     9        0.000000       -0.406752         3    ;  uncertainty k = 0.289801
        37        31        32        38     9      180.000000        0.051017         4    ;  uncertainty k = 0.144779
        37        31        36        41     9        0.000000       -0.109477         1    ;  uncertainty k = 0.024993
        37        31        36        41     9      180.000000        7.823948         2    ;  uncertainty k = 0.394934
        37        31        36        41     9        0.000000       -0.406752         3    ;  uncertainty k = 0.289801
        37        31        36        41     9      180.000000        0.051016         4    ;  uncertainty k = 0.144779
        38        32        33        39     9        0.000000       -0.150856         1    ;  uncertainty k = 0.217422
        38        32        33        39     9      180.000000        7.817329         2    ;  uncertainty k = 0.392234
        38        32        33        39     9        0.000000       -0.376712         3    ;  uncertainty k = 0.197684
        38        32        33        39     9      180.000000        0.181270         4    ;  uncertainty k = 0.125877
        40        35        36        41     9        0.000000       -0.150856         1    ;  uncertainty k = 0.217422
        40        35        36        41     9      180.000000        7.817329         2    ;  uncertainty k = 0.392235
        40        35        36        41     9        0.000000       -0.376712         3    ;  uncertainty k = 0.197684
        40        35        36        41     9      180.000000        0.181269         4    ;  uncertainty k = 0.125877

[ dihedrals ] ; impropers
;       ai        aj        ak        al funct           phase               k        pn
         2         1         3         6     4      180.000000        2.833395         2    ;  uncertainty k = 1.376267
         2         3         6         1     4      180.000000        2.833395         2    ;  uncertainty k = 1.376267
         2         6         1         3     4      180.000000        2.833395         2    ;  uncertainty k = 1.376267
         3         2         4        16     4      180.000000        5.361893         2    ;  uncertainty k = 0.990709
         3         4        16         2     4      180.000000        5.361893         2    ;  uncertainty k = 0.990709
         3        16         2         4     4      180.000000        5.361893         2    ;  uncertainty k = 0.990709
         4         3         5        15     4      180.000000        2.498686         2    ;  uncertainty k = 0.371762
         4         5        15         3     4      180.000000        2.498686         2    ;  uncertainty k = 0.371762
         4        15         3         5     4      180.000000        2.498686         2    ;  uncertainty k = 0.371762
         5         1         4         9     4      180.000000        5.473351         2    ;  uncertainty k = 0.359616
         5         4         9         1     4      180.000000        5.473351         2    ;  uncertainty k = 0.359616
         5         9         1         4     4      180.000000        5.473351         2    ;  uncertainty k = 0.359616
         6         2         7         8     4      180.000000       66.076957         2    ;  uncertainty k = 0.057409
         6         7         8         2     4      180.000000       66.076957         2    ;  uncertainty k = 0.057409
         6         8         2         7     4      180.000000       66.076957         2    ;  uncertainty k = 0.057409
         9         5        10        14     4      180.000000       14.185613         2    ;  uncertainty k = 0.116141
         9        10        14         5     4      180.000000       14.185613         2    ;  uncertainty k = 0.116141
         9        14         5        10     4      180.000000       14.185613         2    ;  uncertainty k = 0.116141
        10         9        11        22     4      180.000000        2.902480         2    ;  uncertainty k = 0.337193
        10        11        22         9     4      180.000000        2.902480         2    ;  uncertainty k = 0.337193
        10        22         9        11     4      180.000000        2.902480         2    ;  uncertainty k = 0.337193
        11        10        12        21     4      180.000000       17.688675         2    ;  uncertainty k = 0.107244
        11        12        21        10     4      180.000000       17.688675         2    ;  uncertainty k = 0.107244
        11        21        10        12     4      180.000000       17.688675         2    ;  uncertainty k = 0.107244
        12        11        13        23     4      180.000000        2.910754         2    ;  uncertainty k = 0.307249
        12        13        23        11     4      180.000000        2.910754         2    ;  uncertainty k = 0.307249
        12        23        11        13     4      180.000000        2.910754         2    ;  uncertainty k = 0.307249
        13        12        14        24     4      180.000000        3.788681         2    ;  uncertainty k = 0.147111
        13        14        24        12     4      180.000000        3.788681         2    ;  uncertainty k = 0.147111
        13        24        12        14     4      180.000000        3.788681         2    ;  uncertainty k = 0.147111
        14         9        13        25     4      180.000000        3.142268         2    ;  uncertainty k = 0.169617
        14        13        25         9     4      180.000000        3.142268         2    ;  uncertainty k = 0.169617
        14        25         9        13     4      180.000000        3.142268         2    ;  uncertainty k = 0.169617
        18        17        19        20     4      180.000000       68.314311         2    ;  uncertainty k = 0.022612
        18        19        20        17     4      180.000000       68.314311         2    ;  uncertainty k = 0.022612
        18        20        17        19     4      180.000000       68.314311         2    ;  uncertainty k = 0.022612
        21        11        28        29     4      180.000000        0.564875         2    ;  uncertainty k = 1.100029
        21        28        29        11     4      180.000000        0.564875         2    ;  uncertainty k = 1.100029
        21        29        11        28     4      180.000000        0.564875         2    ;  uncertainty k = 1.100029
        29        21        30        34     4      180.000000       52.867919         2    ;  uncertainty k = 0.030371
        29        30        34        21     4      180.000000       52.867919         2    ;  uncertainty k = 0.030371
        29        34        21        30     4      180.000000       52.867919         2    ;  uncertainty k = 0.030371
        31        32        36        37     4      180.000000        4.982867         2    ;  uncertainty k = 0.195039
        31        36        37        32     4      180.000000        4.982867         2    ;  uncertainty k = 0.195039
        31        37        32        36     4      180.000000        4.982867         2    ;  uncertainty k = 0.195039
        32        31        33        38     4      180.000000        3.870628         2    ;  uncertainty k = 0.083755
        32        33        38        31     4      180.000000        3.870628         2    ;  uncertainty k = 0.083755
        32        38        31        33     4      180.000000        3.870628         2    ;  uncertainty k = 0.083755
        33        32        34        39     4      180.000000        4.164812         2    ;  uncertainty k = 0.138755
        33        34        39        32     4      180.000000        4.164812         2    ;  uncertainty k = 0.138755
        33        39        32        34     4      180.000000        4.164812         2    ;  uncertainty k = 0.138755
        34        29        33        35     4      180.000000        7.199117         2    ;  uncertainty k = 0.106032
        34        33        35        29     4      180.000000        7.199117         2    ;  uncertainty k = 0.106032
        34        35        29        33     4      180.000000        7.199117         2    ;  uncertainty k = 0.106032
        35        34        36        40     4      180.000000        4.164812         2    ;  uncertainty k = 0.138755
        35        36        40        34     4      180.000000        4.164812         2    ;  uncertainty k = 0.138755
        35        40        34        36     4      180.000000        4.164812         2    ;  uncertainty k = 0.138755
        36        31        35        41     4      180.000000        3.870629         2    ;  uncertainty k = 0.083755
        36        35        41        31     4      180.000000        3.870629         2    ;  uncertainty k = 0.083755
        36        41        31        35     4      180.000000        3.870629         2    ;  uncertainty k = 0.083755

[ pairs ]
;       ai        aj funct
         1         7     1
         1         8     1
         1        10     1
         1        14     1
         1        15     1
         1        16     1
         2         9     1
         2        15     1
         2        17     1
         3         7     1
         3         8     1
         3         9     1
         3        18     1
         3        26     1
         3        27     1
         4         6     1
         4        10     1
         4        14     1
         4        17     1
         5         6     1
         5        11     1
         5        13     1
         5        16     1
         5        22     1
         5        25     1
         6        16     1
         9        12     1
         9        15     1
         9        21     1
         9        24     1
        10        13     1
        10        23     1
        10        25     1
        10        28     1
        10        29     1
        11        14     1
        11        24     1
        11        30     1
        11        34     1
        12        22     1
        12        25     1
        12        28     1
        12        29     1
        13        21     1
        14        22     1
        14        23     1
        15        16     1
        16        19     1
        16        20     1
        19        26     1
        19        27     1
        20        26     1
        20        27     1
        21        22     1
        21        23     1
        21        33     1
        21        35     1
        23        24     1
        24        25     1
        28        30     1
        28        34     1
        29        32     1
        29        36     1
        29        39     1
        29        40     1
        30        33     1
        30        35     1
        31        34     1
        31        39     1
        31        40     1
        32        35     1
        32        41     1
        33        36     1
        33        37     1
        33        40     1
        34        38     1
        34        41     1
        35        37     1
        35        39     1
        36        38     1
        37        38     1
        37        41     1
        38        39     1
        40        41     1
