; ITP file created by ByteFF-joint-25, 2026-02-17 09:29:07.394207

[ atomtypes ]
;name           bonded.type        at.num        mass        charge   ptype           sigma         epsilon
 s0bf                                  16      0.0000       0.00000       A     3.53165e-01     1.18204e+00    ;  uncertainty sigma = 0.000053, epsilon = 0.003055
 c1bf                                   6      0.0000       0.00000       A     3.31495e-01     4.13373e-01    ;  uncertainty sigma = 0.000032, epsilon = 0.002340
 c2bf                                   6      0.0000       0.00000       A     3.31500e-01     4.12069e-01    ;  uncertainty sigma = 0.000033, epsilon = 0.001338
 c3bf                                   6      0.0000       0.00000       A     3.31511e-01     4.13455e-01    ;  uncertainty sigma = 0.000012, epsilon = 0.000975
 c4bf                                   6      0.0000       0.00000       A     3.31514e-01     4.13061e-01    ;  uncertainty sigma = 0.000022, epsilon = 0.000877
 c5bf                                   6      0.0000       0.00000       A     3.31529e-01     4.13194e-01    ;  uncertainty sigma = 0.000055, epsilon = 0.002345
 o6bf                                   8      0.0000       0.00000       A     3.04804e-01     6.11836e-01    ;  uncertainty sigma = 0.000044, epsilon = 0.001672
 o7bf                                   8      0.0000       0.00000       A     3.04804e-01     6.11836e-01    ;  uncertainty sigma = 0.000044, epsilon = 0.001672
 c8bf                                   6      0.0000       0.00000       A     3.31501e-01     4.12994e-01    ;  uncertainty sigma = 0.000011, epsilon = 0.000434
 c9bf                                   6      0.0000       0.00000       A     3.31535e-01     4.13498e-01    ;  uncertainty sigma = 0.000005, epsilon = 0.000424
 c10bf                                  6      0.0000       0.00000       A     3.31543e-01     4.13278e-01    ;  uncertainty sigma = 0.000006, epsilon = 0.001103
 c11bf                                  6      0.0000       0.00000       A     3.31527e-01     4.13416e-01    ;  uncertainty sigma = 0.000006, epsilon = 0.000538
 c12bf                                  6      0.0000       0.00000       A     3.31524e-01     4.13504e-01    ;  uncertainty sigma = 0.000003, epsilon = 0.000683
 c13bf                                  6      0.0000       0.00000       A     3.31520e-01     4.13276e-01    ;  uncertainty sigma = 0.000003, epsilon = 0.000632
 br14bf                                35      0.0000       0.00000       A     3.61258e-01     1.64394e+00    ;  uncertainty sigma = 0.000027, epsilon = 0.006365
 o15bf                                  8      0.0000       0.00000       A     3.15802e-01     3.03913e-01    ;  uncertainty sigma = 0.000078, epsilon = 0.010291
 c16bf                                  6      0.0000       0.00000       A     3.39717e-01     4.50736e-01    ;  uncertainty sigma = 0.000028, epsilon = 0.002811
 c17bf                                  6      0.0000       0.00000       A     3.31523e-01     4.12941e-01    ;  uncertainty sigma = 0.000026, epsilon = 0.002863
 o18bf                                  8      0.0000       0.00000       A     3.04805e-01     6.12312e-01    ;  uncertainty sigma = 0.000022, epsilon = 0.002455
 o19bf                                  8      0.0000       0.00000       A     3.04805e-01     6.12312e-01    ;  uncertainty sigma = 0.000022, epsilon = 0.002455
 n20bf                                  7      0.0000       0.00000       A     3.27018e-01     4.90375e-01    ;  uncertainty sigma = 0.000005, epsilon = 0.001622
 h21bf                                  1      0.0000       0.00000       A     2.62548e-01     6.70331e-02    ;  uncertainty sigma = 0.000013, epsilon = 0.000580
 h22bf                                  1      0.0000       0.00000       A     2.62558e-01     6.70546e-02    ;  uncertainty sigma = 0.000013, epsilon = 0.000516
 h23bf                                  1      0.0000       0.00000       A     2.62563e-01     6.69897e-02    ;  uncertainty sigma = 0.000012, epsilon = 0.000446
 h24bf                                  1      0.0000       0.00000       A     2.62561e-01     6.70429e-02    ;  uncertainty sigma = 0.000012, epsilon = 0.000452
 h25bf                                  1      0.0000       0.00000       A     2.42291e-01     8.67021e-02    ;  uncertainty sigma = 0.000194, epsilon = 0.000950
 h26bf                                  1      0.0000       0.00000       A     2.42291e-01     8.67021e-02    ;  uncertainty sigma = 0.000194, epsilon = 0.000950
 h27bf                                  1      0.0000       0.00000       A     1.10626e-01     4.16338e-02    ;  uncertainty sigma = 0.000071, epsilon = 0.001145
 c28bf                                  6      0.0000       0.00000       A     3.31536e-01     4.13864e-01    ;  uncertainty sigma = 0.000011, epsilon = 0.000909
 o29bf                                  8      0.0000       0.00000       A     3.04837e-01     6.12925e-01    ;  uncertainty sigma = 0.000012, epsilon = 0.001815
 c30bf                                  6      0.0000       0.00000       A     3.39757e-01     4.50514e-01    ;  uncertainty sigma = 0.000014, epsilon = 0.001194
 h31bf                                  1      0.0000       0.00000       A     2.60035e-01     8.60019e-02    ;  uncertainty sigma = 0.000012, epsilon = 0.000539
 h32bf                                  1      0.0000       0.00000       A     2.60035e-01     8.60019e-02    ;  uncertainty sigma = 0.000012, epsilon = 0.000539
 c33bf                                  6      0.0000       0.00000       A     3.39762e-01     4.50577e-01    ;  uncertainty sigma = 0.000008, epsilon = 0.000613
 h34bf                                  1      0.0000       0.00000       A     2.60026e-01     8.64912e-02    ;  uncertainty sigma = 0.000015, epsilon = 0.000764
 h35bf                                  1      0.0000       0.00000       A     2.60026e-01     8.64912e-02    ;  uncertainty sigma = 0.000015, epsilon = 0.000764
 h36bf                                  1      0.0000       0.00000       A     2.60026e-01     8.64912e-02    ;  uncertainty sigma = 0.000015, epsilon = 0.000764

[ moleculetype ]
;name             nrexcl
 MOL                   3

[ atoms ]
;       nr            type      resi   res      atom      cgnr      charge          mass ; qtot
         1            s0bf         1   UNL        s0         1    -0.06026       32.0670 ; qtot   -0.060
         2            c1bf         1   UNL        c1         2    -0.15250       12.0110 ; qtot   -0.213
         3            c2bf         1   UNL        c2         3     0.12085       12.0110 ; qtot   -0.092
         4            c3bf         1   UNL        c3         4    -0.04845       12.0110 ; qtot   -0.140
         5            c4bf         1   UNL        c4         5    -0.04819       12.0110 ; qtot   -0.189
         6            c5bf         1   UNL        c5         6     0.93104       12.0110 ; qtot    0.742
         7            o6bf         1   UNL        o6         7    -0.81786       15.9990 ; qtot   -0.075
         8            o7bf         1   UNL        o7         8    -0.81786       15.9990 ; qtot   -0.893
         9            c8bf         1   UNL        c8         9     0.01870       12.0110 ; qtot   -0.875
        10            c9bf         1   UNL        c9        10    -0.15493       12.0110 ; qtot   -1.029
        11           c10bf         1   UNL       c10        11     0.07406       12.0110 ; qtot   -0.955
        12           c11bf         1   UNL       c11        12    -0.16032       12.0110 ; qtot   -1.116
        13           c12bf         1   UNL       c12        13    -0.09827       12.0110 ; qtot   -1.214
        14           c13bf         1   UNL       c13        14    -0.13744       12.0110 ; qtot   -1.351
        15          br14bf         1   UNL      br14        15    -0.09860       79.9040 ; qtot   -1.450
        16           o15bf         1   UNL       o15        16    -0.32674       15.9990 ; qtot   -1.777
        17           c16bf         1   UNL       c16        17    -0.04389       12.0110 ; qtot   -1.821
        18           c17bf         1   UNL       c17        18     0.91650       12.0110 ; qtot   -0.904
        19           o18bf         1   UNL       o18        19    -0.83281       15.9990 ; qtot   -1.737
        20           o19bf         1   UNL       o19        20    -0.83281       15.9990 ; qtot   -2.570
        21           n20bf         1   UNL       n20        21    -0.48353       14.0070 ; qtot   -3.053
        22           h21bf         1   UNL       h21        22     0.15703        1.0080 ; qtot   -2.896
        23           h22bf         1   UNL       h22        23     0.15230        1.0080 ; qtot   -2.744
        24           h23bf         1   UNL       h23        24     0.13564        1.0080 ; qtot   -2.608
        25           h24bf         1   UNL       h24        25     0.14276        1.0080 ; qtot   -2.466
        26           h25bf         1   UNL       h25        26     0.02291        1.0080 ; qtot   -2.443
        27           h26bf         1   UNL       h26        27     0.02291        1.0080 ; qtot   -2.420
        28           h27bf         1   UNL       h27        28     0.32359        1.0080 ; qtot   -2.096
        29           c28bf         1   UNL       c28        29     0.67283       12.0110 ; qtot   -1.423
        30           o29bf         1   UNL       o29        30    -0.58317       15.9990 ; qtot   -2.007
        31           c30bf         1   UNL       c30        31    -0.16021       12.0110 ; qtot   -2.167
        32           h31bf         1   UNL       h31        32     0.06299        1.0080 ; qtot   -2.104
        33           h32bf         1   UNL       h32        33     0.06299        1.0080 ; qtot   -2.041
        34           c33bf         1   UNL       c33        34    -0.08774       12.0110 ; qtot   -2.128
        35           h34bf         1   UNL       h34        35     0.04283        1.0080 ; qtot   -2.086
        36           h35bf         1   UNL       h35        36     0.04283        1.0080 ; qtot   -2.043
        37           h36bf         1   UNL       h36        37     0.04282        1.0080 ; qtot   -2.000

[ bonds ]
;       ai        aj funct               r               k
         1         2     1        0.174192   168649.560181    ;  uncertainty r = 0.000346, k = 32.148596
         1         5     1        0.174357   166232.447241    ;  uncertainty r = 0.000237, k = 14.888510
         2         3     1        0.138080   385642.911377    ;  uncertainty r = 0.000134, k = 36.968685
         2         6     1        0.154055   191773.233960    ;  uncertainty r = 0.000283, k = 45.899503
         3         4     1        0.143810   249799.356152    ;  uncertainty r = 0.000373, k = 34.755195
         3        16     1        0.136007   307552.652637    ;  uncertainty r = 0.000403, k = 36.149075
         4         5     1        0.137757   380537.379248    ;  uncertainty r = 0.000227, k = 7.612841
         4        15     1        0.190420   156686.726831    ;  uncertainty r = 0.000144, k = 29.636935
         5         9     1        0.146512   276484.001074    ;  uncertainty r = 0.000140, k = 8.275699
         6         7     1        0.126149   550576.911523    ;  uncertainty r = 0.000229, k = 9.262788
         6         8     1        0.126149   550576.911523    ;  uncertainty r = 0.000229, k = 9.262788
         9        10     1        0.139901   342682.572852    ;  uncertainty r = 0.000106, k = 2.274712
         9        14     1        0.140217   349501.287500    ;  uncertainty r = 0.000027, k = 3.618530
        10        11     1        0.139975   347517.692529    ;  uncertainty r = 0.000019, k = 3.790686
        10        22     1        0.108739   335780.556152    ;  uncertainty r = 0.000025, k = 2.152534
        11        12     1        0.140222   352876.271875    ;  uncertainty r = 0.000050, k = 1.558398
        11        21     1        0.141217   322544.825586    ;  uncertainty r = 0.000043, k = 6.071532
        12        13     1        0.139379   370853.656299    ;  uncertainty r = 0.000038, k = 2.699660
        12        23     1        0.108673   336206.106543    ;  uncertainty r = 0.000020, k = 2.293708
        13        14     1        0.139378   367329.535205    ;  uncertainty r = 0.000030, k = 1.881443
        13        24     1        0.108779   332372.475684    ;  uncertainty r = 0.000014, k = 1.522704
        14        25     1        0.108759   334843.242090    ;  uncertainty r = 0.000027, k = 0.771472
        16        17     1        0.144489   220596.573486    ;  uncertainty r = 0.000632, k = 19.356591
        17        18     1        0.155273   162501.513867    ;  uncertainty r = 0.000271, k = 66.063610
        17        26     1        0.109682   316919.485596    ;  uncertainty r = 0.000081, k = 8.518153
        17        27     1        0.109682   316919.485596    ;  uncertainty r = 0.000081, k = 8.518153
        18        19     1        0.126286   541570.585938    ;  uncertainty r = 0.000058, k = 12.189171
        18        20     1        0.126286   541570.585938    ;  uncertainty r = 0.000058, k = 12.189171
        21        28     1        0.101725   431559.017090    ;  uncertainty r = 0.000058, k = 5.536187
        21        29     1        0.138110   310471.799609    ;  uncertainty r = 0.000092, k = 9.322602
        29        30     1        0.123270   707938.622461    ;  uncertainty r = 0.000086, k = 6.349298
        29        31     1        0.152098   199589.951611    ;  uncertainty r = 0.000108, k = 11.749544
        31        32     1        0.109702   312566.429932    ;  uncertainty r = 0.000035, k = 1.508589
        31        33     1        0.109702   312566.429932    ;  uncertainty r = 0.000035, k = 1.508589
        31        34     1        0.153444   223233.841846    ;  uncertainty r = 0.000047, k = 6.990717
        34        35     1        0.109505   310696.270801    ;  uncertainty r = 0.000004, k = 0.427107
        34        36     1        0.109505   310696.270801    ;  uncertainty r = 0.000004, k = 0.427108
        34        37     1        0.109505   310696.270801    ;  uncertainty r = 0.000004, k = 0.427107

[ angles ]
;       ai        aj        ak funct           theta             cth
         1         2         3     1      112.357254      490.287825    ;  uncertainty theta = 0.005257, k = 0.446159
         1         2         6     1      115.451401      321.272126    ;  uncertainty theta = 0.011344, k = 0.278095
         1         5         4     1      111.659386      449.584992    ;  uncertainty theta = 0.002310, k = 0.394971
         1         5         9     1      118.743629      342.105332    ;  uncertainty theta = 0.007439, k = 0.158122
         2         1         5     1       93.409683     1113.970975    ;  uncertainty theta = 0.008532, k = 0.189168
         2         3         4     1      115.069199      491.410436    ;  uncertainty theta = 0.004813, k = 0.280924
         2         3        16     1      123.043716      386.336563    ;  uncertainty theta = 0.006879, k = 0.395881
         2         6         7     1      114.979454      369.254791    ;  uncertainty theta = 0.012630, k = 0.171059
         2         6         8     1      114.979454      369.254791    ;  uncertainty theta = 0.012630, k = 0.171059
         3         2         6     1      128.246002      305.353665    ;  uncertainty theta = 0.014744, k = 0.309527
         3         4         5     1      117.601578      512.725910    ;  uncertainty theta = 0.003379, k = 0.473085
         3         4        15     1      119.051048      364.447781    ;  uncertainty theta = 0.003204, k = 0.273279
         3        16        17     1      112.137527      461.556502    ;  uncertainty theta = 0.007449, k = 0.230739
         4         3        16     1      118.536453      394.142587    ;  uncertainty theta = 0.008837, k = 0.130964
         4         5         9     1      126.542969      327.867372    ;  uncertainty theta = 0.004382, k = 0.182532
         5         4        15     1      120.673264      351.209758    ;  uncertainty theta = 0.006817, k = 0.079938
         5         9        10     1      120.235817      417.603817    ;  uncertainty theta = 0.002994, k = 0.126272
         5         9        14     1      121.195702      420.117339    ;  uncertainty theta = 0.001861, k = 0.070317
         7         6         8     1      131.649750      807.008217    ;  uncertainty theta = 0.009047, k = 0.187853
         9        10        11     1      120.396873      516.312693    ;  uncertainty theta = 0.003890, k = 0.084224
         9        10        22     1      119.978104      284.285039    ;  uncertainty theta = 0.001911, k = 0.068807
         9        14        13     1      119.256271      529.901468    ;  uncertainty theta = 0.001553, k = 0.054364
         9        14        25     1      119.517700      279.527092    ;  uncertainty theta = 0.002370, k = 0.060327
        10         9        14     1      120.913757      396.677145    ;  uncertainty theta = 0.004266, k = 0.163173
        10        11        12     1      120.401413      374.415330    ;  uncertainty theta = 0.007953, k = 0.062983
        10        11        21     1      119.555679      534.897324    ;  uncertainty theta = 0.004776, k = 0.098181
        11        10        22     1      119.000305      273.278289    ;  uncertainty theta = 0.001756, k = 0.052195
        11        12        13     1      118.475113      508.349297    ;  uncertainty theta = 0.001461, k = 0.109066
        11        12        23     1      118.907669      267.464543    ;  uncertainty theta = 0.001063, k = 0.027826
        11        21        28     1      113.603683      317.049150    ;  uncertainty theta = 0.004071, k = 0.153657
        11        21        29     1      118.569923      416.080049    ;  uncertainty theta = 0.003050, k = 0.126567
        12        11        21     1      120.187820      537.548874    ;  uncertainty theta = 0.005035, k = 0.095803
        12        13        14     1      120.867599      500.652795    ;  uncertainty theta = 0.002379, k = 0.078434
        12        13        24     1      119.780228      280.306613    ;  uncertainty theta = 0.000946, k = 0.044125
        13        12        23     1      121.093765      317.545624    ;  uncertainty theta = 0.001565, k = 0.092495
        13        14        25     1      120.788986      296.778750    ;  uncertainty theta = 0.001122, k = 0.065456
        14        13        24     1      120.083252      281.235685    ;  uncertainty theta = 0.000949, k = 0.026108
        16        17        18     1      108.358414      484.414290    ;  uncertainty theta = 0.009599, k = 0.239378
        16        17        26     1      106.609215      413.715920    ;  uncertainty theta = 0.002333, k = 0.101205
        16        17        27     1      106.609215      413.715920    ;  uncertainty theta = 0.002333, k = 0.101205
        17        18        19     1      116.281067      425.507680    ;  uncertainty theta = 0.009799, k = 0.299635
        17        18        20     1      116.281067      425.507680    ;  uncertainty theta = 0.009799, k = 0.299635
        18        17        26     1      110.053444      352.214612    ;  uncertainty theta = 0.003968, k = 0.110269
        18        17        27     1      110.053444      352.214612    ;  uncertainty theta = 0.003968, k = 0.110269
        19        18        20     1      131.546265      818.159315    ;  uncertainty theta = 0.002374, k = 0.066126
        21        29        30     1      122.115524      700.449201    ;  uncertainty theta = 0.004568, k = 0.180109
        21        29        31     1      113.106277      484.443051    ;  uncertainty theta = 0.004282, k = 0.086658
        26        17        27     1      108.449623      321.244163    ;  uncertainty theta = 0.009962, k = 0.176306
        28        21        29     1      115.638107      342.841758    ;  uncertainty theta = 0.004852, k = 0.185806
        29        31        32     1      106.627907      359.420322    ;  uncertainty theta = 0.003597, k = 0.041488
        29        31        33     1      106.627907      359.420322    ;  uncertainty theta = 0.003597, k = 0.041488
        29        31        34     1      109.384079      507.494314    ;  uncertainty theta = 0.002432, k = 0.082865
        30        29        31     1      124.282448      541.097256    ;  uncertainty theta = 0.004267, k = 0.083531
        31        34        35     1      108.237328      408.653507    ;  uncertainty theta = 0.001484, k = 0.039106
        31        34        36     1      108.237328      408.653507    ;  uncertainty theta = 0.001484, k = 0.039106
        31        34        37     1      108.237328      408.653507    ;  uncertainty theta = 0.001484, k = 0.039106
        32        31        33     1      105.152847      316.668998    ;  uncertainty theta = 0.003438, k = 0.036776
        32        31        34     1      108.910789      401.812339    ;  uncertainty theta = 0.001938, k = 0.025203
        33        31        34     1      108.910789      401.812339    ;  uncertainty theta = 0.001938, k = 0.025203
        35        34        36     1      105.171593      316.398337    ;  uncertainty theta = 0.001675, k = 0.026565
        35        34        37     1      105.171593      316.398337    ;  uncertainty theta = 0.001675, k = 0.026564
        36        34        37     1      105.171593      316.398337    ;  uncertainty theta = 0.001675, k = 0.026564

[ dihedrals ] ; propers for gromacs 4.5 or higher, use funct 9
;       ai        aj        ak        al funct           phase               k        pn
         1         2         3         4     9        0.000000       -0.320833         1    ;  uncertainty k = 0.754080
         1         2         3         4     9      180.000000       17.555282         2    ;  uncertainty k = 0.424189
         1         2         3         4     9        0.000000       -2.376894         3    ;  uncertainty k = 1.115238
         1         2         3         4     9      180.000000        0.923152         4    ;  uncertainty k = 0.610957
         1         2         3        16     9        0.000000        0.376558         1    ;  uncertainty k = 1.230098
         1         2         3        16     9      180.000000       18.623043         2    ;  uncertainty k = 0.210713
         1         2         3        16     9        0.000000        1.608484         3    ;  uncertainty k = 0.452084
         1         2         3        16     9      180.000000        0.624278         4    ;  uncertainty k = 0.345564
         1         2         6         7     9        0.000000        0.648298         1    ;  uncertainty k = 2.496588
         1         2         6         7     9      180.000000        4.832235         2    ;  uncertainty k = 0.504618
         1         2         6         7     9        0.000000        0.188147         3    ;  uncertainty k = 0.527138
         1         2         6         7     9      180.000000        0.229089         4    ;  uncertainty k = 0.149777
         1         2         6         8     9        0.000000        0.648298         1    ;  uncertainty k = 2.496588
         1         2         6         8     9      180.000000        4.832235         2    ;  uncertainty k = 0.504618
         1         2         6         8     9        0.000000        0.188147         3    ;  uncertainty k = 0.527138
         1         2         6         8     9      180.000000        0.229089         4    ;  uncertainty k = 0.149777
         1         5         4         3     9        0.000000       -0.230943         1    ;  uncertainty k = 0.350057
         1         5         4         3     9      180.000000       15.958089         2    ;  uncertainty k = 0.404103
         1         5         4         3     9        0.000000       -2.380903         3    ;  uncertainty k = 0.809268
         1         5         4         3     9      180.000000        0.865666         4    ;  uncertainty k = 0.750586
         1         5         4        15     9        0.000000        0.242023         1    ;  uncertainty k = 0.389261
         1         5         4        15     9      180.000000       12.724293         2    ;  uncertainty k = 0.534639
         1         5         4        15     9        0.000000        2.310394         3    ;  uncertainty k = 0.489088
         1         5         4        15     9      180.000000        0.570757         4    ;  uncertainty k = 0.408314
         1         5         9        10     9        0.000000       -0.460167         1    ;  uncertainty k = 0.398011
         1         5         9        10     9      180.000000        3.287581         2    ;  uncertainty k = 0.086828
         1         5         9        10     9        0.000000        0.362264         3    ;  uncertainty k = 0.245157
         1         5         9        10     9      180.000000        0.154197         4    ;  uncertainty k = 0.135916
         1         5         9        14     9        0.000000       -0.213944         1    ;  uncertainty k = 0.541414
         1         5         9        14     9      180.000000        3.329723         2    ;  uncertainty k = 0.238002
         1         5         9        14     9        0.000000        0.475158         3    ;  uncertainty k = 0.251909
         1         5         9        14     9      180.000000        0.111308         4    ;  uncertainty k = 0.126160
         2         1         5         4     9        0.000000       -0.381502         1    ;  uncertainty k = 1.018320
         2         1         5         4     9      180.000000       14.624384         2    ;  uncertainty k = 0.929119
         2         1         5         4     9        0.000000       -6.005800         3    ;  uncertainty k = 1.036762
         2         1         5         4     9      180.000000        1.151585         4    ;  uncertainty k = 0.363309
         2         1         5         9     9        0.000000        0.634750         1    ;  uncertainty k = 1.300799
         2         1         5         9     9      180.000000       11.655227         2    ;  uncertainty k = 0.619935
         2         1         5         9     9        0.000000        0.976157         3    ;  uncertainty k = 1.170238
         2         1         5         9     9      180.000000       -0.041024         4    ;  uncertainty k = 0.486609
         2         3         4         5     9        0.000000       -0.163892         1    ;  uncertainty k = 0.802841
         2         3         4         5     9      180.000000        9.355372         2    ;  uncertainty k = 0.794784
         2         3         4         5     9        0.000000       -2.165171         3    ;  uncertainty k = 0.822975
         2         3         4         5     9      180.000000        0.987821         4    ;  uncertainty k = 0.358170
         2         3         4        15     9        0.000000        0.463445         1    ;  uncertainty k = 0.544884
         2         3         4        15     9      180.000000        7.807701         2    ;  uncertainty k = 0.817270
         2         3         4        15     9        0.000000        1.640989         3    ;  uncertainty k = 0.318182
         2         3         4        15     9      180.000000        0.389068         4    ;  uncertainty k = 0.234157
         2         3        16        17     9        0.000000        0.562638         1    ;  uncertainty k = 2.473037
         2         3        16        17     9      180.000000        4.453660         2    ;  uncertainty k = 1.236403
         2         3        16        17     9        0.000000       -0.243071         3    ;  uncertainty k = 0.584348
         2         3        16        17     9      180.000000        0.011309         4    ;  uncertainty k = 0.249195
         3         2         1         5     9        0.000000       -1.343735         1    ;  uncertainty k = 1.825069
         3         2         1         5     9      180.000000       12.410483         2    ;  uncertainty k = 0.765515
         3         2         1         5     9        0.000000       -3.924755         3    ;  uncertainty k = 1.286096
         3         2         1         5     9      180.000000        1.226932         4    ;  uncertainty k = 0.620813
         3         2         6         7     9        0.000000       -0.600971         1    ;  uncertainty k = 1.233380
         3         2         6         7     9      180.000000        2.750847         2    ;  uncertainty k = 0.470266
         3         2         6         7     9        0.000000        0.420307         3    ;  uncertainty k = 0.314900
         3         2         6         7     9      180.000000        0.072508         4    ;  uncertainty k = 0.103468
         3         2         6         8     9        0.000000       -0.600971         1    ;  uncertainty k = 1.233380
         3         2         6         8     9      180.000000        2.750847         2    ;  uncertainty k = 0.470266
         3         2         6         8     9        0.000000        0.420307         3    ;  uncertainty k = 0.314900
         3         2         6         8     9      180.000000        0.072508         4    ;  uncertainty k = 0.103468
         3         4         5         9     9        0.000000        0.206053         1    ;  uncertainty k = 0.214193
         3         4         5         9     9      180.000000       11.437435         2    ;  uncertainty k = 0.269987
         3         4         5         9     9        0.000000        1.975109         3    ;  uncertainty k = 0.453655
         3         4         5         9     9      180.000000        0.656640         4    ;  uncertainty k = 0.316124
         3        16        17        18     9        0.000000       -2.546996         1    ;  uncertainty k = 2.263476
         3        16        17        18     9      180.000000       -2.071281         2    ;  uncertainty k = 0.852216
         3        16        17        18     9        0.000000        0.377848         3    ;  uncertainty k = 0.447363
         3        16        17        18     9      180.000000        0.728091         4    ;  uncertainty k = 0.372243
         3        16        17        26     9        0.000000        1.943735         1    ;  uncertainty k = 0.725643
         3        16        17        26     9      180.000000       -1.013528         2    ;  uncertainty k = 0.770891
         3        16        17        26     9        0.000000        0.504468         3    ;  uncertainty k = 0.367188
         3        16        17        26     9      180.000000        0.022954         4    ;  uncertainty k = 0.163828
         3        16        17        27     9        0.000000        1.943735         1    ;  uncertainty k = 0.725643
         3        16        17        27     9      180.000000       -1.013528         2    ;  uncertainty k = 0.770891
         3        16        17        27     9        0.000000        0.504468         3    ;  uncertainty k = 0.367188
         3        16        17        27     9      180.000000        0.022954         4    ;  uncertainty k = 0.163828
         4         3         2         6     9        0.000000        0.750539         1    ;  uncertainty k = 1.420042
         4         3         2         6     9      180.000000        9.225337         2    ;  uncertainty k = 0.449657
         4         3         2         6     9        0.000000        2.146628         3    ;  uncertainty k = 0.096833
         4         3         2         6     9      180.000000        0.908103         4    ;  uncertainty k = 0.276689
         4         3        16        17     9        0.000000        4.003546         1    ;  uncertainty k = 2.209639
         4         3        16        17     9      180.000000        4.149396         2    ;  uncertainty k = 0.785914
         4         3        16        17     9        0.000000        0.594406         3    ;  uncertainty k = 0.772201
         4         3        16        17     9      180.000000       -0.129795         4    ;  uncertainty k = 0.090251
         4         5         9        10     9        0.000000        0.497577         1    ;  uncertainty k = 0.300612
         4         5         9        10     9      180.000000        3.054600         2    ;  uncertainty k = 0.246028
         4         5         9        10     9        0.000000        0.482022         3    ;  uncertainty k = 0.507102
         4         5         9        10     9      180.000000        0.009890         4    ;  uncertainty k = 0.117089
         4         5         9        14     9        0.000000        0.472376         1    ;  uncertainty k = 0.563434
         4         5         9        14     9      180.000000        3.094093         2    ;  uncertainty k = 0.272670
         4         5         9        14     9        0.000000        0.477061         3    ;  uncertainty k = 0.386712
         4         5         9        14     9      180.000000       -0.024678         4    ;  uncertainty k = 0.124685
         5         1         2         6     9        0.000000        0.451497         1    ;  uncertainty k = 2.202869
         5         1         2         6     9      180.000000        8.209202         2    ;  uncertainty k = 0.569487
         5         1         2         6     9        0.000000        1.043882         3    ;  uncertainty k = 0.663821
         5         1         2         6     9      180.000000        0.550351         4    ;  uncertainty k = 0.309694
         5         4         3        16     9        0.000000        0.887263         1    ;  uncertainty k = 1.387606
         5         4         3        16     9      180.000000       11.850633         2    ;  uncertainty k = 0.768527
         5         4         3        16     9        0.000000        1.717065         3    ;  uncertainty k = 0.314044
         5         4         3        16     9      180.000000        0.438991         4    ;  uncertainty k = 0.459203
         5         9        10        11     9        0.000000        0.134399         1    ;  uncertainty k = 0.215386
         5         9        10        11     9      180.000000        8.369485         2    ;  uncertainty k = 0.735613
         5         9        10        11     9        0.000000        1.329282         3    ;  uncertainty k = 0.349025
         5         9        10        11     9      180.000000        1.700795         4    ;  uncertainty k = 0.146265
         5         9        10        22     9        0.000000       -0.166761         1    ;  uncertainty k = 0.439019
         5         9        10        22     9      180.000000        7.064807         2    ;  uncertainty k = 0.404898
         5         9        10        22     9        0.000000        0.737454         3    ;  uncertainty k = 0.235622
         5         9        10        22     9      180.000000        1.259748         4    ;  uncertainty k = 0.195065
         5         9        14        13     9        0.000000        0.000208         1    ;  uncertainty k = 0.352601
         5         9        14        13     9      180.000000        8.999778         2    ;  uncertainty k = 0.483884
         5         9        14        13     9        0.000000        1.126075         3    ;  uncertainty k = 0.284053
         5         9        14        13     9      180.000000        1.726652         4    ;  uncertainty k = 0.166110
         5         9        14        25     9        0.000000       -0.167551         1    ;  uncertainty k = 0.572212
         5         9        14        25     9      180.000000        6.857422         2    ;  uncertainty k = 0.373088
         5         9        14        25     9        0.000000        0.757356         3    ;  uncertainty k = 0.226238
         5         9        14        25     9      180.000000        1.251405         4    ;  uncertainty k = 0.166929
         6         2         3        16     9        0.000000       -0.665249         1    ;  uncertainty k = 0.977507
         6         2         3        16     9      180.000000       11.691680         2    ;  uncertainty k = 0.581130
         6         2         3        16     9        0.000000        1.652052         3    ;  uncertainty k = 0.309495
         6         2         3        16     9      180.000000        0.410579         4    ;  uncertainty k = 0.549466
         9         5         4        15     9        0.000000        0.039778         1    ;  uncertainty k = 0.682298
         9         5         4        15     9      180.000000        8.647905         2    ;  uncertainty k = 0.565831
         9         5         4        15     9        0.000000        1.537070         3    ;  uncertainty k = 0.088387
         9         5         4        15     9      180.000000        0.835150         4    ;  uncertainty k = 0.165388
         9        10        11        12     9        0.000000       -0.114358         1    ;  uncertainty k = 0.259843
         9        10        11        12     9      180.000000        9.600867         2    ;  uncertainty k = 0.426282
         9        10        11        12     9        0.000000        0.120897         3    ;  uncertainty k = 0.194135
         9        10        11        12     9      180.000000        1.177659         4    ;  uncertainty k = 0.317125
         9        10        11        21     9        0.000000       -0.038513         1    ;  uncertainty k = 0.331106
         9        10        11        21     9      180.000000       10.655920         2    ;  uncertainty k = 0.528148
         9        10        11        21     9        0.000000        1.130467         3    ;  uncertainty k = 0.289556
         9        10        11        21     9      180.000000        1.586188         4    ;  uncertainty k = 0.312488
         9        14        13        12     9        0.000000       -0.114072         1    ;  uncertainty k = 0.188620
         9        14        13        12     9      180.000000       14.801859         2    ;  uncertainty k = 0.422543
         9        14        13        12     9        0.000000       -1.021952         3    ;  uncertainty k = 0.293927
         9        14        13        12     9      180.000000        0.568481         4    ;  uncertainty k = 0.294606
         9        14        13        24     9        0.000000        0.072135         1    ;  uncertainty k = 0.069467
         9        14        13        24     9      180.000000        7.747807         2    ;  uncertainty k = 0.303594
         9        14        13        24     9        0.000000        1.328020         3    ;  uncertainty k = 0.275578
         9        14        13        24     9      180.000000        1.821017         4    ;  uncertainty k = 0.104489
        10         9        14        13     9        0.000000       -0.277022         1    ;  uncertainty k = 0.100135
        10         9        14        13     9      180.000000       11.622437         2    ;  uncertainty k = 0.342901
        10         9        14        13     9        0.000000       -0.497808         3    ;  uncertainty k = 0.127837
        10         9        14        13     9      180.000000        0.907395         4    ;  uncertainty k = 0.235338
        10         9        14        25     9        0.000000        0.068683         1    ;  uncertainty k = 0.294130
        10         9        14        25     9      180.000000        7.015943         2    ;  uncertainty k = 0.615564
        10         9        14        25     9        0.000000        1.442296         3    ;  uncertainty k = 0.219655
        10         9        14        25     9      180.000000        1.640161         4    ;  uncertainty k = 0.279210
        10        11        12        13     9        0.000000       -0.175430         1    ;  uncertainty k = 0.183472
        10        11        12        13     9      180.000000        9.818495         2    ;  uncertainty k = 0.347676
        10        11        12        13     9        0.000000       -0.058475         3    ;  uncertainty k = 0.115132
        10        11        12        13     9      180.000000        1.197356         4    ;  uncertainty k = 0.227886
        10        11        12        23     9        0.000000        0.132477         1    ;  uncertainty k = 0.346308
        10        11        12        23     9      180.000000        6.850808         2    ;  uncertainty k = 0.447184
        10        11        12        23     9        0.000000        1.286190         3    ;  uncertainty k = 0.350831
        10        11        12        23     9      180.000000        1.523896         4    ;  uncertainty k = 0.138553
        10        11        21        28     9        0.000000        1.067288         1    ;  uncertainty k = 0.569691
        10        11        21        28     9      180.000000        3.862817         2    ;  uncertainty k = 0.239300
        10        11        21        28     9        0.000000        0.602466         3    ;  uncertainty k = 0.207863
        10        11        21        28     9      180.000000        0.330462         4    ;  uncertainty k = 0.074593
        10        11        21        29     9        0.000000        0.497971         1    ;  uncertainty k = 0.828479
        10        11        21        29     9      180.000000        3.940922         2    ;  uncertainty k = 0.173380
        10        11        21        29     9        0.000000        0.832017         3    ;  uncertainty k = 0.192501
        10        11        21        29     9      180.000000        0.249479         4    ;  uncertainty k = 0.047589
        11        10         9        14     9        0.000000       -0.152906         1    ;  uncertainty k = 0.158952
        11        10         9        14     9      180.000000       10.903554         2    ;  uncertainty k = 0.249652
        11        10         9        14     9        0.000000       -0.132503         3    ;  uncertainty k = 0.149769
        11        10         9        14     9      180.000000        1.044849         4    ;  uncertainty k = 0.192962
        11        12        13        14     9        0.000000       -0.235692         1    ;  uncertainty k = 0.302167
        11        12        13        14     9      180.000000       14.298608         2    ;  uncertainty k = 0.141531
        11        12        13        14     9        0.000000       -0.869455         3    ;  uncertainty k = 0.424174
        11        12        13        14     9      180.000000        0.742040         4    ;  uncertainty k = 0.239430
        11        12        13        24     9        0.000000       -0.018175         1    ;  uncertainty k = 0.204106
        11        12        13        24     9      180.000000        8.105984         2    ;  uncertainty k = 0.435035
        11        12        13        24     9        0.000000        1.272229         3    ;  uncertainty k = 0.258777
        11        12        13        24     9      180.000000        1.663638         4    ;  uncertainty k = 0.080717
        11        21        29        30     9        0.000000        4.824649         1    ;  uncertainty k = 0.732920
        11        21        29        30     9      180.000000       15.387170         2    ;  uncertainty k = 0.230792
        11        21        29        30     9        0.000000        0.955334         3    ;  uncertainty k = 0.145138
        11        21        29        30     9      180.000000       -1.124816         4    ;  uncertainty k = 0.089692
        11        21        29        31     9        0.000000        6.663439         1    ;  uncertainty k = 0.698248
        11        21        29        31     9      180.000000        6.690119         2    ;  uncertainty k = 0.730868
        11        21        29        31     9        0.000000        1.061495         3    ;  uncertainty k = 0.250878
        11        21        29        31     9      180.000000        0.012565         4    ;  uncertainty k = 0.373345
        12        11        10        22     9        0.000000        0.215895         1    ;  uncertainty k = 0.288399
        12        11        10        22     9      180.000000        7.011841         2    ;  uncertainty k = 0.433517
        12        11        10        22     9        0.000000        1.312102         3    ;  uncertainty k = 0.295283
        12        11        10        22     9      180.000000        1.595054         4    ;  uncertainty k = 0.178593
        12        11        21        28     9        0.000000        0.350646         1    ;  uncertainty k = 0.750764
        12        11        21        28     9      180.000000        3.842631         2    ;  uncertainty k = 0.144188
        12        11        21        28     9        0.000000        0.604052         3    ;  uncertainty k = 0.149272
        12        11        21        28     9      180.000000        0.378410         4    ;  uncertainty k = 0.040565
        12        11        21        29     9        0.000000        0.823670         1    ;  uncertainty k = 0.778130
        12        11        21        29     9      180.000000        3.868418         2    ;  uncertainty k = 0.107186
        12        11        21        29     9        0.000000        0.863069         3    ;  uncertainty k = 0.183019
        12        11        21        29     9      180.000000        0.243373         4    ;  uncertainty k = 0.076108
        12        13        14        25     9        0.000000        0.098264         1    ;  uncertainty k = 0.244081
        12        13        14        25     9      180.000000        7.834768         2    ;  uncertainty k = 0.245778
        12        13        14        25     9        0.000000        1.401108         3    ;  uncertainty k = 0.235751
        12        13        14        25     9      180.000000        1.848642         4    ;  uncertainty k = 0.128817
        13        12        11        21     9        0.000000       -0.043332         1    ;  uncertainty k = 0.220902
        13        12        11        21     9      180.000000       10.468194         2    ;  uncertainty k = 0.641347
        13        12        11        21     9        0.000000        1.092271         3    ;  uncertainty k = 0.382194
        13        12        11        21     9      180.000000        1.660718         4    ;  uncertainty k = 0.327487
        14         9        10        22     9        0.000000        0.223408         1    ;  uncertainty k = 0.208656
        14         9        10        22     9      180.000000        7.073345         2    ;  uncertainty k = 0.525764
        14         9        10        22     9        0.000000        1.576611         3    ;  uncertainty k = 0.139799
        14         9        10        22     9      180.000000        1.696296         4    ;  uncertainty k = 0.231196
        14        13        12        23     9        0.000000        0.086773         1    ;  uncertainty k = 0.056621
        14        13        12        23     9      180.000000        7.983978         2    ;  uncertainty k = 0.352795
        14        13        12        23     9        0.000000        1.509546         3    ;  uncertainty k = 0.249417
        14        13        12        23     9      180.000000        1.853482         4    ;  uncertainty k = 0.159716
        15         4         3        16     9        0.000000       -0.300934         1    ;  uncertainty k = 0.650861
        15         4         3        16     9      180.000000        9.165092         2    ;  uncertainty k = 0.275746
        15         4         3        16     9        0.000000        1.456381         3    ;  uncertainty k = 0.310393
        15         4         3        16     9      180.000000        0.631618         4    ;  uncertainty k = 0.388932
        16        17        18        19     9        0.000000        1.079222         1    ;  uncertainty k = 0.841475
        16        17        18        19     9      180.000000        5.864588         2    ;  uncertainty k = 0.515928
        16        17        18        19     9        0.000000        1.140649         3    ;  uncertainty k = 0.463168
        16        17        18        19     9      180.000000        0.279519         4    ;  uncertainty k = 0.238932
        16        17        18        20     9        0.000000        1.079222         1    ;  uncertainty k = 0.841475
        16        17        18        20     9      180.000000        5.864588         2    ;  uncertainty k = 0.515928
        16        17        18        20     9        0.000000        1.140649         3    ;  uncertainty k = 0.463168
        16        17        18        20     9      180.000000        0.279519         4    ;  uncertainty k = 0.238932
        19        18        17        26     9        0.000000       -2.498422         1    ;  uncertainty k = 1.124580
        19        18        17        26     9      180.000000        1.806048         2    ;  uncertainty k = 0.648461
        19        18        17        26     9        0.000000        0.840718         3    ;  uncertainty k = 0.199496
        19        18        17        26     9      180.000000        0.238884         4    ;  uncertainty k = 0.091169
        19        18        17        27     9        0.000000       -2.498422         1    ;  uncertainty k = 1.124580
        19        18        17        27     9      180.000000        1.806048         2    ;  uncertainty k = 0.648461
        19        18        17        27     9        0.000000        0.840718         3    ;  uncertainty k = 0.199496
        19        18        17        27     9      180.000000        0.238884         4    ;  uncertainty k = 0.091169
        20        18        17        26     9        0.000000       -2.498422         1    ;  uncertainty k = 1.124580
        20        18        17        26     9      180.000000        1.806048         2    ;  uncertainty k = 0.648461
        20        18        17        26     9        0.000000        0.840718         3    ;  uncertainty k = 0.199496
        20        18        17        26     9      180.000000        0.238884         4    ;  uncertainty k = 0.091169
        20        18        17        27     9        0.000000       -2.498422         1    ;  uncertainty k = 1.124580
        20        18        17        27     9      180.000000        1.806048         2    ;  uncertainty k = 0.648461
        20        18        17        27     9        0.000000        0.840718         3    ;  uncertainty k = 0.199496
        20        18        17        27     9      180.000000        0.238884         4    ;  uncertainty k = 0.091169
        21        11        10        22     9        0.000000       -0.199302         1    ;  uncertainty k = 0.256187
        21        11        10        22     9      180.000000        8.339000         2    ;  uncertainty k = 0.350585
        21        11        10        22     9        0.000000        0.817835         3    ;  uncertainty k = 0.170048
        21        11        10        22     9      180.000000        1.261689         4    ;  uncertainty k = 0.195594
        21        11        12        23     9        0.000000       -0.246964         1    ;  uncertainty k = 0.230759
        21        11        12        23     9      180.000000        8.271818         2    ;  uncertainty k = 0.335423
        21        11        12        23     9        0.000000        0.814938         3    ;  uncertainty k = 0.213709
        21        11        12        23     9      180.000000        1.180149         4    ;  uncertainty k = 0.179928
        21        29        31        32     9        0.000000       -0.878568         1    ;  uncertainty k = 0.604566
        21        29        31        32     9      180.000000        2.485768         2    ;  uncertainty k = 0.213249
        21        29        31        32     9        0.000000        0.220613         3    ;  uncertainty k = 0.083856
        21        29        31        32     9      180.000000        0.121623         4    ;  uncertainty k = 0.104206
        21        29        31        33     9        0.000000       -0.878568         1    ;  uncertainty k = 0.604566
        21        29        31        33     9      180.000000        2.485768         2    ;  uncertainty k = 0.213249
        21        29        31        33     9        0.000000        0.220613         3    ;  uncertainty k = 0.083856
        21        29        31        33     9      180.000000        0.121623         4    ;  uncertainty k = 0.104206
        21        29        31        34     9        0.000000       -2.522794         1    ;  uncertainty k = 0.529617
        21        29        31        34     9      180.000000        2.594531         2    ;  uncertainty k = 0.355361
        21        29        31        34     9        0.000000       -0.004441         3    ;  uncertainty k = 0.170789
        21        29        31        34     9      180.000000        0.197267         4    ;  uncertainty k = 0.137475
        23        12        13        24     9        0.000000       -0.152068         1    ;  uncertainty k = 0.450601
        23        12        13        24     9      180.000000        7.938212         2    ;  uncertainty k = 0.383634
        23        12        13        24     9        0.000000       -0.431209         3    ;  uncertainty k = 0.319762
        23        12        13        24     9      180.000000        0.185943         4    ;  uncertainty k = 0.150410
        24        13        14        25     9        0.000000       -0.046742         1    ;  uncertainty k = 0.293740
        24        13        14        25     9      180.000000        7.666904         2    ;  uncertainty k = 0.370555
        24        13        14        25     9        0.000000       -0.445849         3    ;  uncertainty k = 0.296099
        24        13        14        25     9      180.000000        0.120483         4    ;  uncertainty k = 0.125144
        28        21        29        30     9        0.000000        3.131322         1    ;  uncertainty k = 0.808830
        28        21        29        30     9      180.000000       16.035735         2    ;  uncertainty k = 0.172508
        28        21        29        30     9        0.000000        1.433168         3    ;  uncertainty k = 0.293341
        28        21        29        30     9      180.000000       -0.174370         4    ;  uncertainty k = 0.146899
        28        21        29        31     9        0.000000       -1.125899         1    ;  uncertainty k = 0.705197
        28        21        29        31     9      180.000000        5.242182         2    ;  uncertainty k = 0.222029
        28        21        29        31     9        0.000000        1.497890         3    ;  uncertainty k = 0.125590
        28        21        29        31     9      180.000000        0.215356         4    ;  uncertainty k = 0.327153
        29        31        34        35     9        0.000000        0.834055         1    ;  uncertainty k = 0.588100
        29        31        34        35     9      180.000000       -0.949209         2    ;  uncertainty k = 0.150609
        29        31        34        35     9        0.000000        1.041756         3    ;  uncertainty k = 0.116041
        29        31        34        35     9      180.000000       -0.097308         4    ;  uncertainty k = 0.079171
        29        31        34        36     9        0.000000        0.834055         1    ;  uncertainty k = 0.588100
        29        31        34        36     9      180.000000       -0.949209         2    ;  uncertainty k = 0.150609
        29        31        34        36     9        0.000000        1.041756         3    ;  uncertainty k = 0.116041
        29        31        34        36     9      180.000000       -0.097308         4    ;  uncertainty k = 0.079171
        29        31        34        37     9        0.000000        0.834055         1    ;  uncertainty k = 0.588100
        29        31        34        37     9      180.000000       -0.949209         2    ;  uncertainty k = 0.150609
        29        31        34        37     9        0.000000        1.041756         3    ;  uncertainty k = 0.116041
        29        31        34        37     9      180.000000       -0.097308         4    ;  uncertainty k = 0.079171
        30        29        31        32     9        0.000000       -0.141064         1    ;  uncertainty k = 0.349997
        30        29        31        32     9      180.000000        3.874247         2    ;  uncertainty k = 0.313804
        30        29        31        32     9        0.000000        0.731203         3    ;  uncertainty k = 0.058807
        30        29        31        32     9      180.000000        0.286160         4    ;  uncertainty k = 0.065062
        30        29        31        33     9        0.000000       -0.141064         1    ;  uncertainty k = 0.349997
        30        29        31        33     9      180.000000        3.874247         2    ;  uncertainty k = 0.313804
        30        29        31        33     9        0.000000        0.731203         3    ;  uncertainty k = 0.058807
        30        29        31        33     9      180.000000        0.286160         4    ;  uncertainty k = 0.065062
        30        29        31        34     9        0.000000       -3.274346         1    ;  uncertainty k = 0.157428
        30        29        31        34     9      180.000000        5.336993         2    ;  uncertainty k = 0.532085
        30        29        31        34     9        0.000000        0.924459         3    ;  uncertainty k = 0.293470
        30        29        31        34     9      180.000000        0.428450         4    ;  uncertainty k = 0.080783
        32        31        34        35     9        0.000000        0.296039         1    ;  uncertainty k = 0.457807
        32        31        34        35     9      180.000000       -0.337730         2    ;  uncertainty k = 0.158841
        32        31        34        35     9        0.000000        0.651988         3    ;  uncertainty k = 0.056751
        32        31        34        35     9      180.000000       -0.045817         4    ;  uncertainty k = 0.049231
        32        31        34        36     9        0.000000        0.296039         1    ;  uncertainty k = 0.457807
        32        31        34        36     9      180.000000       -0.337730         2    ;  uncertainty k = 0.158841
        32        31        34        36     9        0.000000        0.651988         3    ;  uncertainty k = 0.056751
        32        31        34        36     9      180.000000       -0.045817         4    ;  uncertainty k = 0.049231
        32        31        34        37     9        0.000000        0.296039         1    ;  uncertainty k = 0.457807
        32        31        34        37     9      180.000000       -0.337730         2    ;  uncertainty k = 0.158841
        32        31        34        37     9        0.000000        0.651988         3    ;  uncertainty k = 0.056751
        32        31        34        37     9      180.000000       -0.045817         4    ;  uncertainty k = 0.049231
        33        31        34        35     9        0.000000        0.296039         1    ;  uncertainty k = 0.457807
        33        31        34        35     9      180.000000       -0.337730         2    ;  uncertainty k = 0.158841
        33        31        34        35     9        0.000000        0.651988         3    ;  uncertainty k = 0.056751
        33        31        34        35     9      180.000000       -0.045817         4    ;  uncertainty k = 0.049231
        33        31        34        36     9        0.000000        0.296039         1    ;  uncertainty k = 0.457807
        33        31        34        36     9      180.000000       -0.337730         2    ;  uncertainty k = 0.158841
        33        31        34        36     9        0.000000        0.651988         3    ;  uncertainty k = 0.056751
        33        31        34        36     9      180.000000       -0.045817         4    ;  uncertainty k = 0.049231
        33        31        34        37     9        0.000000        0.296039         1    ;  uncertainty k = 0.457807
        33        31        34        37     9      180.000000       -0.337730         2    ;  uncertainty k = 0.158841
        33        31        34        37     9        0.000000        0.651988         3    ;  uncertainty k = 0.056751
        33        31        34        37     9      180.000000       -0.045817         4    ;  uncertainty k = 0.049231

[ dihedrals ] ; impropers
;       ai        aj        ak        al funct           phase               k        pn
         2         1         3         6     4      180.000000        2.833395         2    ;  uncertainty k = 1.376267
         2         3         6         1     4      180.000000        2.833395         2    ;  uncertainty k = 1.376267
         2         6         1         3     4      180.000000        2.833395         2    ;  uncertainty k = 1.376267
         3         2         4        16     4      180.000000        5.361893         2    ;  uncertainty k = 0.990709
         3         4        16         2     4      180.000000        5.361893         2    ;  uncertainty k = 0.990709
         3        16         2         4     4      180.000000        5.361893         2    ;  uncertainty k = 0.990709
         4         3         5        15     4      180.000000        2.498686         2    ;  uncertainty k = 0.371762
         4         5        15         3     4      180.000000        2.498686         2    ;  uncertainty k = 0.371762
         4        15         3         5     4      180.000000        2.498686         2    ;  uncertainty k = 0.371762
         5         1         4         9     4      180.000000        5.473351         2    ;  uncertainty k = 0.359616
         5         4         9         1     4      180.000000        5.473351         2    ;  uncertainty k = 0.359616
         5         9         1         4     4      180.000000        5.473351         2    ;  uncertainty k = 0.359616
         6         2         7         8     4      180.000000       66.076957         2    ;  uncertainty k = 0.057409
         6         7         8         2     4      180.000000       66.076957         2    ;  uncertainty k = 0.057409
         6         8         2         7     4      180.000000       66.076957         2    ;  uncertainty k = 0.057409
         9         5        10        14     4      180.000000       14.218939         2    ;  uncertainty k = 0.104466
         9        10        14         5     4      180.000000       14.218939         2    ;  uncertainty k = 0.104466
         9        14         5        10     4      180.000000       14.218939         2    ;  uncertainty k = 0.104466
        10         9        11        22     4      180.000000        2.852265         2    ;  uncertainty k = 0.306098
        10        11        22         9     4      180.000000        2.852265         2    ;  uncertainty k = 0.306098
        10        22         9        11     4      180.000000        2.852265         2    ;  uncertainty k = 0.306098
        11        10        12        21     4      180.000000       17.898826         2    ;  uncertainty k = 0.091782
        11        12        21        10     4      180.000000       17.898826         2    ;  uncertainty k = 0.091782
        11        21        10        12     4      180.000000       17.898826         2    ;  uncertainty k = 0.091782
        12        11        13        23     4      180.000000        2.925672         2    ;  uncertainty k = 0.310993
        12        13        23        11     4      180.000000        2.925672         2    ;  uncertainty k = 0.310993
        12        23        11        13     4      180.000000        2.925672         2    ;  uncertainty k = 0.310993
        13        12        14        24     4      180.000000        3.925089         2    ;  uncertainty k = 0.131531
        13        14        24        12     4      180.000000        3.925089         2    ;  uncertainty k = 0.131531
        13        24        12        14     4      180.000000        3.925089         2    ;  uncertainty k = 0.131531
        14         9        13        25     4      180.000000        3.142268         2    ;  uncertainty k = 0.169617
        14        13        25         9     4      180.000000        3.142268         2    ;  uncertainty k = 0.169617
        14        25         9        13     4      180.000000        3.142268         2    ;  uncertainty k = 0.169617
        18        17        19        20     4      180.000000       68.314311         2    ;  uncertainty k = 0.022612
        18        19        20        17     4      180.000000       68.314311         2    ;  uncertainty k = 0.022612
        18        20        17        19     4      180.000000       68.314311         2    ;  uncertainty k = 0.022612
        21        11        28        29     4      180.000000        0.034968         2    ;  uncertainty k = 0.078191
        21        28        29        11     4      180.000000        0.034968         2    ;  uncertainty k = 0.078191
        21        29        11        28     4      180.000000        0.034968         2    ;  uncertainty k = 0.078191
        29        21        30        31     4      180.000000       54.933738         2    ;  uncertainty k = 0.016810
        29        30        31        21     4      180.000000       54.933738         2    ;  uncertainty k = 0.016810
        29        31        21        30     4      180.000000       54.933738         2    ;  uncertainty k = 0.016810

[ pairs ]
;       ai        aj funct
         1         7     1
         1         8     1
         1        10     1
         1        14     1
         1        15     1
         1        16     1
         2         9     1
         2        15     1
         2        17     1
         3         7     1
         3         8     1
         3         9     1
         3        18     1
         3        26     1
         3        27     1
         4         6     1
         4        10     1
         4        14     1
         4        17     1
         5         6     1
         5        11     1
         5        13     1
         5        16     1
         5        22     1
         5        25     1
         6        16     1
         9        12     1
         9        15     1
         9        21     1
         9        24     1
        10        13     1
        10        23     1
        10        25     1
        10        28     1
        10        29     1
        11        14     1
        11        24     1
        11        30     1
        11        31     1
        12        22     1
        12        25     1
        12        28     1
        12        29     1
        13        21     1
        14        22     1
        14        23     1
        15        16     1
        16        19     1
        16        20     1
        19        26     1
        19        27     1
        20        26     1
        20        27     1
        21        22     1
        21        23     1
        21        32     1
        21        33     1
        21        34     1
        23        24     1
        24        25     1
        28        30     1
        28        31     1
        29        35     1
        29        36     1
        29        37     1
        30        32     1
        30        33     1
        30        34     1
        32        35     1
        32        36     1
        32        37     1
        33        35     1
        33        36     1
        33        37     1
