; ITP file created by ByteFF-joint-25, 2026-02-17 09:28:42.696179

[ atomtypes ]
;name           bonded.type        at.num        mass        charge   ptype           sigma         epsilon
 s0bf                                  16      0.0000       0.00000       A     3.53165e-01     1.18204e+00    ;  uncertainty sigma = 0.000053, epsilon = 0.003055
 c1bf                                   6      0.0000       0.00000       A     3.31495e-01     4.13373e-01    ;  uncertainty sigma = 0.000032, epsilon = 0.002340
 c2bf                                   6      0.0000       0.00000       A     3.31500e-01     4.12069e-01    ;  uncertainty sigma = 0.000033, epsilon = 0.001338
 c3bf                                   6      0.0000       0.00000       A     3.31511e-01     4.13455e-01    ;  uncertainty sigma = 0.000012, epsilon = 0.000975
 c4bf                                   6      0.0000       0.00000       A     3.31513e-01     4.13063e-01    ;  uncertainty sigma = 0.000021, epsilon = 0.000788
 c5bf                                   6      0.0000       0.00000       A     3.31529e-01     4.13194e-01    ;  uncertainty sigma = 0.000055, epsilon = 0.002345
 o6bf                                   8      0.0000       0.00000       A     3.04804e-01     6.11836e-01    ;  uncertainty sigma = 0.000044, epsilon = 0.001672
 o7bf                                   8      0.0000       0.00000       A     3.04804e-01     6.11836e-01    ;  uncertainty sigma = 0.000044, epsilon = 0.001672
 c8bf                                   6      0.0000       0.00000       A     3.31494e-01     4.13034e-01    ;  uncertainty sigma = 0.000008, epsilon = 0.000444
 c9bf                                   6      0.0000       0.00000       A     3.31528e-01     4.13192e-01    ;  uncertainty sigma = 0.000007, epsilon = 0.001063
 c10bf                                  6      0.0000       0.00000       A     3.31523e-01     4.13583e-01    ;  uncertainty sigma = 0.000003, epsilon = 0.000838
 c11bf                                  6      0.0000       0.00000       A     3.31514e-01     4.13263e-01    ;  uncertainty sigma = 0.000002, epsilon = 0.000681
 c12bf                                  6      0.0000       0.00000       A     3.31522e-01     4.13468e-01    ;  uncertainty sigma = 0.000003, epsilon = 0.000664
 c13bf                                  6      0.0000       0.00000       A     3.31519e-01     4.13272e-01    ;  uncertainty sigma = 0.000003, epsilon = 0.000584
 br14bf                                35      0.0000       0.00000       A     3.61258e-01     1.64394e+00    ;  uncertainty sigma = 0.000027, epsilon = 0.006365
 o15bf                                  8      0.0000       0.00000       A     3.15802e-01     3.03913e-01    ;  uncertainty sigma = 0.000078, epsilon = 0.010291
 c16bf                                  6      0.0000       0.00000       A     3.39717e-01     4.50736e-01    ;  uncertainty sigma = 0.000028, epsilon = 0.002811
 c17bf                                  6      0.0000       0.00000       A     3.31523e-01     4.12941e-01    ;  uncertainty sigma = 0.000026, epsilon = 0.002863
 o18bf                                  8      0.0000       0.00000       A     3.04805e-01     6.12312e-01    ;  uncertainty sigma = 0.000022, epsilon = 0.002455
 o19bf                                  8      0.0000       0.00000       A     3.04805e-01     6.12312e-01    ;  uncertainty sigma = 0.000022, epsilon = 0.002455
 o20bf                                  8      0.0000       0.00000       A     3.15640e-01     3.03010e-01    ;  uncertainty sigma = 0.000023, epsilon = 0.000792
 c21bf                                  6      0.0000       0.00000       A     3.39790e-01     4.50985e-01    ;  uncertainty sigma = 0.000004, epsilon = 0.000763
 h22bf                                  1      0.0000       0.00000       A     2.62552e-01     6.70855e-02    ;  uncertainty sigma = 0.000013, epsilon = 0.000786
 h23bf                                  1      0.0000       0.00000       A     2.62564e-01     6.71214e-02    ;  uncertainty sigma = 0.000006, epsilon = 0.000469
 h24bf                                  1      0.0000       0.00000       A     2.62568e-01     6.69711e-02    ;  uncertainty sigma = 0.000011, epsilon = 0.000464
 h25bf                                  1      0.0000       0.00000       A     2.62561e-01     6.70428e-02    ;  uncertainty sigma = 0.000012, epsilon = 0.000452
 h26bf                                  1      0.0000       0.00000       A     2.42291e-01     8.67021e-02    ;  uncertainty sigma = 0.000194, epsilon = 0.000950
 h27bf                                  1      0.0000       0.00000       A     2.42291e-01     8.67021e-02    ;  uncertainty sigma = 0.000194, epsilon = 0.000950
 h28bf                                  1      0.0000       0.00000       A     2.42205e-01     8.67536e-02    ;  uncertainty sigma = 0.000015, epsilon = 0.000623
 h29bf                                  1      0.0000       0.00000       A     2.42205e-01     8.67536e-02    ;  uncertainty sigma = 0.000015, epsilon = 0.000623
 h30bf                                  1      0.0000       0.00000       A     2.42205e-01     8.67536e-02    ;  uncertainty sigma = 0.000015, epsilon = 0.000623

[ moleculetype ]
;name             nrexcl
 MOL                   3

[ atoms ]
;       nr            type      resi   res      atom      cgnr      charge          mass ; qtot
         1            s0bf         1   UNL        s0         1    -0.05928       32.0670 ; qtot   -0.059
         2            c1bf         1   UNL        c1         2    -0.15250       12.0110 ; qtot   -0.212
         3            c2bf         1   UNL        c2         3     0.12085       12.0110 ; qtot   -0.091
         4            c3bf         1   UNL        c3         4    -0.04726       12.0110 ; qtot   -0.138
         5            c4bf         1   UNL        c4         5    -0.05053       12.0110 ; qtot   -0.189
         6            c5bf         1   UNL        c5         6     0.93104       12.0110 ; qtot    0.742
         7            o6bf         1   UNL        o6         7    -0.81786       15.9990 ; qtot   -0.076
         8            o7bf         1   UNL        o7         8    -0.81786       15.9990 ; qtot   -0.893
         9            c8bf         1   UNL        c8         9     0.01823       12.0110 ; qtot   -0.875
        10            c9bf         1   UNL        c9        10    -0.16815       12.0110 ; qtot   -1.043
        11           c10bf         1   UNL       c10        11     0.13103       12.0110 ; qtot   -0.912
        12           c11bf         1   UNL       c11        12    -0.18332       12.0110 ; qtot   -1.096
        13           c12bf         1   UNL       c12        13    -0.09462       12.0110 ; qtot   -1.190
        14           c13bf         1   UNL       c13        14    -0.13168       12.0110 ; qtot   -1.322
        15          br14bf         1   UNL      br14        15    -0.09860       79.9040 ; qtot   -1.421
        16           o15bf         1   UNL       o15        16    -0.32674       15.9990 ; qtot   -1.747
        17           c16bf         1   UNL       c16        17    -0.04389       12.0110 ; qtot   -1.791
        18           c17bf         1   UNL       c17        18     0.91650       12.0110 ; qtot   -0.875
        19           o18bf         1   UNL       o18        19    -0.83281       15.9990 ; qtot   -1.707
        20           o19bf         1   UNL       o19        20    -0.83281       15.9990 ; qtot   -2.540
        21           o20bf         1   UNL       o20        21    -0.32564       15.9990 ; qtot   -2.866
        22           c21bf         1   UNL       c21        22     0.12110       12.0110 ; qtot   -2.745
        23           h22bf         1   UNL       h22        23     0.14857        1.0080 ; qtot   -2.596
        24           h23bf         1   UNL       h23        24     0.14138        1.0080 ; qtot   -2.455
        25           h24bf         1   UNL       h24        25     0.13778        1.0080 ; qtot   -2.317
        26           h25bf         1   UNL       h25        26     0.14335        1.0080 ; qtot   -2.174
        27           h26bf         1   UNL       h26        27     0.02291        1.0080 ; qtot   -2.151
        28           h27bf         1   UNL       h27        28     0.02291        1.0080 ; qtot   -2.128
        29           h28bf         1   UNL       h28        29     0.04263        1.0080 ; qtot   -2.085
        30           h29bf         1   UNL       h29        30     0.04263        1.0080 ; qtot   -2.043
        31           h30bf         1   UNL       h30        31     0.04264        1.0080 ; qtot   -2.000

[ bonds ]
;       ai        aj funct               r               k
         1         2     1        0.174192   168649.560181    ;  uncertainty r = 0.000346, k = 32.148596
         1         5     1        0.174358   166336.779102    ;  uncertainty r = 0.000241, k = 15.264223
         2         3     1        0.138080   385642.911377    ;  uncertainty r = 0.000134, k = 36.968685
         2         6     1        0.154055   191773.233960    ;  uncertainty r = 0.000283, k = 45.899503
         3         4     1        0.143810   249799.356152    ;  uncertainty r = 0.000373, k = 34.755195
         3        16     1        0.136007   307552.652637    ;  uncertainty r = 0.000403, k = 36.149075
         4         5     1        0.137768   380357.189404    ;  uncertainty r = 0.000224, k = 7.611318
         4        15     1        0.190420   156686.726831    ;  uncertainty r = 0.000144, k = 29.636935
         5         9     1        0.146483   276133.146729    ;  uncertainty r = 0.000142, k = 8.767177
         6         7     1        0.126149   550576.911523    ;  uncertainty r = 0.000229, k = 9.262788
         6         8     1        0.126149   550576.911523    ;  uncertainty r = 0.000229, k = 9.262788
         9        10     1        0.140049   348141.436426    ;  uncertainty r = 0.000060, k = 2.921835
         9        14     1        0.140233   348473.137939    ;  uncertainty r = 0.000026, k = 3.517056
        10        11     1        0.139668   357528.928906    ;  uncertainty r = 0.000044, k = 1.674158
        10        23     1        0.108816   338308.627832    ;  uncertainty r = 0.000032, k = 1.292238
        11        12     1        0.139926   361829.046143    ;  uncertainty r = 0.000030, k = 2.798528
        11        21     1        0.136509   321263.526660    ;  uncertainty r = 0.000024, k = 3.808589
        12        13     1        0.139462   371430.309766    ;  uncertainty r = 0.000036, k = 1.932850
        12        24     1        0.108801   337752.608350    ;  uncertainty r = 0.000012, k = 0.441348
        13        14     1        0.139333   366444.776514    ;  uncertainty r = 0.000027, k = 1.135145
        13        25     1        0.108770   332351.611865    ;  uncertainty r = 0.000017, k = 1.389805
        14        26     1        0.108759   334935.482129    ;  uncertainty r = 0.000029, k = 0.720110
        16        17     1        0.144489   220596.573486    ;  uncertainty r = 0.000632, k = 19.356591
        17        18     1        0.155273   162501.513867    ;  uncertainty r = 0.000271, k = 66.063610
        17        27     1        0.109682   316919.485596    ;  uncertainty r = 0.000081, k = 8.518153
        17        28     1        0.109682   316919.485596    ;  uncertainty r = 0.000081, k = 8.518153
        18        19     1        0.126286   541570.585938    ;  uncertainty r = 0.000058, k = 12.189171
        18        20     1        0.126286   541570.585938    ;  uncertainty r = 0.000058, k = 12.189171
        21        22     1        0.141911   253451.852295    ;  uncertainty r = 0.000029, k = 2.066323
        22        29     1        0.109623   311224.914502    ;  uncertainty r = 0.000009, k = 1.869782
        22        30     1        0.109623   311224.914502    ;  uncertainty r = 0.000009, k = 1.869782
        22        31     1        0.109623   311224.914502    ;  uncertainty r = 0.000009, k = 1.869782

[ angles ]
;       ai        aj        ak funct           theta             cth
         1         2         3     1      112.357254      490.287825    ;  uncertainty theta = 0.005257, k = 0.446159
         1         2         6     1      115.451401      321.272126    ;  uncertainty theta = 0.011344, k = 0.278095
         1         5         4     1      111.671974      448.971655    ;  uncertainty theta = 0.002281, k = 0.388943
         1         5         9     1      118.766891      343.097130    ;  uncertainty theta = 0.007852, k = 0.160068
         2         1         5     1       93.415375     1113.841885    ;  uncertainty theta = 0.008556, k = 0.187326
         2         3         4     1      115.069199      491.410436    ;  uncertainty theta = 0.004813, k = 0.280924
         2         3        16     1      123.043716      386.336563    ;  uncertainty theta = 0.006879, k = 0.395881
         2         6         7     1      114.979454      369.254791    ;  uncertainty theta = 0.012630, k = 0.171059
         2         6         8     1      114.979454      369.254791    ;  uncertainty theta = 0.012630, k = 0.171059
         3         2         6     1      128.246002      305.353665    ;  uncertainty theta = 0.014744, k = 0.309527
         3         4         5     1      117.603958      512.153815    ;  uncertainty theta = 0.003282, k = 0.465425
         3         4        15     1      119.051048      364.447781    ;  uncertainty theta = 0.003204, k = 0.273279
         3        16        17     1      112.137527      461.556502    ;  uncertainty theta = 0.007449, k = 0.230739
         4         3        16     1      118.536453      394.142587    ;  uncertainty theta = 0.008837, k = 0.130964
         4         5         9     1      126.442360      328.447575    ;  uncertainty theta = 0.004702, k = 0.167349
         5         4        15     1      120.680382      351.220612    ;  uncertainty theta = 0.006868, k = 0.082055
         5         9        10     1      120.543289      419.792187    ;  uncertainty theta = 0.002373, k = 0.058627
         5         9        14     1      121.198463      421.105561    ;  uncertainty theta = 0.002494, k = 0.053194
         7         6         8     1      131.649750      807.008217    ;  uncertainty theta = 0.009047, k = 0.187853
         9        10        11     1      120.120667      531.388589    ;  uncertainty theta = 0.004229, k = 0.050288
         9        10        23     1      119.818497      276.263897    ;  uncertainty theta = 0.001188, k = 0.050209
         9        14        13     1      119.504860      531.677701    ;  uncertainty theta = 0.001527, k = 0.049392
         9        14        26     1      119.388954      280.083067    ;  uncertainty theta = 0.002654, k = 0.048858
        10         9        14     1      121.379578      406.790958    ;  uncertainty theta = 0.003752, k = 0.126434
        10        11        12     1      121.289902      371.520347    ;  uncertainty theta = 0.006410, k = 0.098244
        10        11        21     1      118.931236      428.496958    ;  uncertainty theta = 0.003425, k = 0.060147
        11        10        23     1      119.776779      272.311135    ;  uncertainty theta = 0.002042, k = 0.055564
        11        12        13     1      118.188675      527.625792    ;  uncertainty theta = 0.002433, k = 0.023062
        11        12        24     1      119.806541      270.997091    ;  uncertainty theta = 0.002691, k = 0.040808
        11        21        22     1      109.607910      513.785189    ;  uncertainty theta = 0.001180, k = 0.068002
        12        11        21     1      119.718605      424.172600    ;  uncertainty theta = 0.003772, k = 0.061707
        12        13        14     1      121.192116      509.154290    ;  uncertainty theta = 0.001989, k = 0.053729
        12        13        25     1      120.028854      281.422297    ;  uncertainty theta = 0.000466, k = 0.071630
        13        12        24     1      121.098251      285.727215    ;  uncertainty theta = 0.002185, k = 0.026998
        13        14        26     1      120.623123      296.571198    ;  uncertainty theta = 0.001504, k = 0.062253
        14        13        25     1      120.052757      281.040677    ;  uncertainty theta = 0.001151, k = 0.029157
        16        17        18     1      108.358414      484.414290    ;  uncertainty theta = 0.009599, k = 0.239378
        16        17        27     1      106.609215      413.715920    ;  uncertainty theta = 0.002333, k = 0.101205
        16        17        28     1      106.609215      413.715920    ;  uncertainty theta = 0.002333, k = 0.101205
        17        18        19     1      116.281067      425.507680    ;  uncertainty theta = 0.009799, k = 0.299635
        17        18        20     1      116.281067      425.507680    ;  uncertainty theta = 0.009799, k = 0.299635
        18        17        27     1      110.053444      352.214612    ;  uncertainty theta = 0.003968, k = 0.110269
        18        17        28     1      110.053444      352.214612    ;  uncertainty theta = 0.003968, k = 0.110269
        19        18        20     1      131.546265      818.159315    ;  uncertainty theta = 0.002374, k = 0.066126
        21        22        29     1      108.794472      446.363326    ;  uncertainty theta = 0.001345, k = 0.022698
        21        22        30     1      108.794472      446.363326    ;  uncertainty theta = 0.001345, k = 0.022698
        21        22        31     1      108.794472      446.363326    ;  uncertainty theta = 0.001345, k = 0.022698
        27        17        28     1      108.449623      321.244163    ;  uncertainty theta = 0.009962, k = 0.176306
        29        22        30     1      109.081810      330.154380    ;  uncertainty theta = 0.001818, k = 0.013785
        29        22        31     1      109.081810      330.154380    ;  uncertainty theta = 0.001818, k = 0.013785
        30        22        31     1      109.081810      330.154380    ;  uncertainty theta = 0.001818, k = 0.013785

[ dihedrals ] ; propers for gromacs 4.5 or higher, use funct 9
;       ai        aj        ak        al funct           phase               k        pn
         1         2         3         4     9        0.000000       -0.320833         1    ;  uncertainty k = 0.754080
         1         2         3         4     9      180.000000       17.555282         2    ;  uncertainty k = 0.424189
         1         2         3         4     9        0.000000       -2.376894         3    ;  uncertainty k = 1.115238
         1         2         3         4     9      180.000000        0.923152         4    ;  uncertainty k = 0.610957
         1         2         3        16     9        0.000000        0.376558         1    ;  uncertainty k = 1.230098
         1         2         3        16     9      180.000000       18.623043         2    ;  uncertainty k = 0.210713
         1         2         3        16     9        0.000000        1.608484         3    ;  uncertainty k = 0.452084
         1         2         3        16     9      180.000000        0.624278         4    ;  uncertainty k = 0.345564
         1         2         6         7     9        0.000000        0.648298         1    ;  uncertainty k = 2.496588
         1         2         6         7     9      180.000000        4.832235         2    ;  uncertainty k = 0.504618
         1         2         6         7     9        0.000000        0.188147         3    ;  uncertainty k = 0.527138
         1         2         6         7     9      180.000000        0.229089         4    ;  uncertainty k = 0.149777
         1         2         6         8     9        0.000000        0.648298         1    ;  uncertainty k = 2.496588
         1         2         6         8     9      180.000000        4.832235         2    ;  uncertainty k = 0.504618
         1         2         6         8     9        0.000000        0.188147         3    ;  uncertainty k = 0.527138
         1         2         6         8     9      180.000000        0.229089         4    ;  uncertainty k = 0.149777
         1         5         4         3     9        0.000000       -0.228937         1    ;  uncertainty k = 0.351266
         1         5         4         3     9      180.000000       15.974024         2    ;  uncertainty k = 0.402312
         1         5         4         3     9        0.000000       -2.393245         3    ;  uncertainty k = 0.804673
         1         5         4         3     9      180.000000        0.868619         4    ;  uncertainty k = 0.752884
         1         5         4        15     9        0.000000        0.246083         1    ;  uncertainty k = 0.391823
         1         5         4        15     9      180.000000       12.742277         2    ;  uncertainty k = 0.535206
         1         5         4        15     9        0.000000        2.315435         3    ;  uncertainty k = 0.492810
         1         5         4        15     9      180.000000        0.570848         4    ;  uncertainty k = 0.410276
         1         5         9        10     9        0.000000       -0.731571         1    ;  uncertainty k = 0.431245
         1         5         9        10     9      180.000000        3.204956         2    ;  uncertainty k = 0.137028
         1         5         9        10     9        0.000000        0.349158         3    ;  uncertainty k = 0.282350
         1         5         9        10     9      180.000000        0.124744         4    ;  uncertainty k = 0.115463
         1         5         9        14     9        0.000000       -0.255282         1    ;  uncertainty k = 0.571295
         1         5         9        14     9      180.000000        3.302291         2    ;  uncertainty k = 0.156830
         1         5         9        14     9        0.000000        0.472461         3    ;  uncertainty k = 0.256324
         1         5         9        14     9      180.000000        0.112319         4    ;  uncertainty k = 0.117613
         2         1         5         4     9        0.000000       -0.388743         1    ;  uncertainty k = 1.024118
         2         1         5         4     9      180.000000       14.626797         2    ;  uncertainty k = 0.927243
         2         1         5         4     9        0.000000       -6.001455         3    ;  uncertainty k = 1.031534
         2         1         5         4     9      180.000000        1.149851         4    ;  uncertainty k = 0.358279
         2         1         5         9     9        0.000000        0.572053         1    ;  uncertainty k = 1.128548
         2         1         5         9     9      180.000000       11.688589         2    ;  uncertainty k = 0.610145
         2         1         5         9     9        0.000000        1.023795         3    ;  uncertainty k = 1.145042
         2         1         5         9     9      180.000000       -0.029033         4    ;  uncertainty k = 0.489723
         2         3         4         5     9        0.000000       -0.165469         1    ;  uncertainty k = 0.839776
         2         3         4         5     9      180.000000        9.332690         2    ;  uncertainty k = 0.795869
         2         3         4         5     9        0.000000       -2.169484         3    ;  uncertainty k = 0.819976
         2         3         4         5     9      180.000000        0.985899         4    ;  uncertainty k = 0.356309
         2         3         4        15     9        0.000000        0.463445         1    ;  uncertainty k = 0.544884
         2         3         4        15     9      180.000000        7.807701         2    ;  uncertainty k = 0.817270
         2         3         4        15     9        0.000000        1.640989         3    ;  uncertainty k = 0.318182
         2         3         4        15     9      180.000000        0.389068         4    ;  uncertainty k = 0.234157
         2         3        16        17     9        0.000000        0.562638         1    ;  uncertainty k = 2.473037
         2         3        16        17     9      180.000000        4.453660         2    ;  uncertainty k = 1.236403
         2         3        16        17     9        0.000000       -0.243071         3    ;  uncertainty k = 0.584348
         2         3        16        17     9      180.000000        0.011309         4    ;  uncertainty k = 0.249195
         3         2         1         5     9        0.000000       -1.344167         1    ;  uncertainty k = 1.845746
         3         2         1         5     9      180.000000       12.402063         2    ;  uncertainty k = 0.771146
         3         2         1         5     9        0.000000       -3.921687         3    ;  uncertainty k = 1.281707
         3         2         1         5     9      180.000000        1.225977         4    ;  uncertainty k = 0.613085
         3         2         6         7     9        0.000000       -0.600971         1    ;  uncertainty k = 1.233380
         3         2         6         7     9      180.000000        2.750847         2    ;  uncertainty k = 0.470266
         3         2         6         7     9        0.000000        0.420307         3    ;  uncertainty k = 0.314900
         3         2         6         7     9      180.000000        0.072508         4    ;  uncertainty k = 0.103468
         3         2         6         8     9        0.000000       -0.600971         1    ;  uncertainty k = 1.233380
         3         2         6         8     9      180.000000        2.750847         2    ;  uncertainty k = 0.470266
         3         2         6         8     9        0.000000        0.420307         3    ;  uncertainty k = 0.314900
         3         2         6         8     9      180.000000        0.072508         4    ;  uncertainty k = 0.103468
         3         4         5         9     9        0.000000        0.185909         1    ;  uncertainty k = 0.198514
         3         4         5         9     9      180.000000       11.408269         2    ;  uncertainty k = 0.253838
         3         4         5         9     9        0.000000        1.987645         3    ;  uncertainty k = 0.457212
         3         4         5         9     9      180.000000        0.661179         4    ;  uncertainty k = 0.317546
         3        16        17        18     9        0.000000       -2.546996         1    ;  uncertainty k = 2.263476
         3        16        17        18     9      180.000000       -2.071281         2    ;  uncertainty k = 0.852216
         3        16        17        18     9        0.000000        0.377848         3    ;  uncertainty k = 0.447363
         3        16        17        18     9      180.000000        0.728091         4    ;  uncertainty k = 0.372243
         3        16        17        27     9        0.000000        1.943735         1    ;  uncertainty k = 0.725643
         3        16        17        27     9      180.000000       -1.013528         2    ;  uncertainty k = 0.770891
         3        16        17        27     9        0.000000        0.504468         3    ;  uncertainty k = 0.367188
         3        16        17        27     9      180.000000        0.022954         4    ;  uncertainty k = 0.163828
         3        16        17        28     9        0.000000        1.943735         1    ;  uncertainty k = 0.725643
         3        16        17        28     9      180.000000       -1.013528         2    ;  uncertainty k = 0.770891
         3        16        17        28     9        0.000000        0.504468         3    ;  uncertainty k = 0.367188
         3        16        17        28     9      180.000000        0.022954         4    ;  uncertainty k = 0.163828
         4         3         2         6     9        0.000000        0.750539         1    ;  uncertainty k = 1.420042
         4         3         2         6     9      180.000000        9.225337         2    ;  uncertainty k = 0.449657
         4         3         2         6     9        0.000000        2.146628         3    ;  uncertainty k = 0.096833
         4         3         2         6     9      180.000000        0.908103         4    ;  uncertainty k = 0.276689
         4         3        16        17     9        0.000000        4.003546         1    ;  uncertainty k = 2.209639
         4         3        16        17     9      180.000000        4.149396         2    ;  uncertainty k = 0.785914
         4         3        16        17     9        0.000000        0.594406         3    ;  uncertainty k = 0.772201
         4         3        16        17     9      180.000000       -0.129795         4    ;  uncertainty k = 0.090251
         4         5         9        10     9        0.000000        0.349050         1    ;  uncertainty k = 0.462872
         4         5         9        10     9      180.000000        2.975784         2    ;  uncertainty k = 0.303938
         4         5         9        10     9        0.000000        0.483400         3    ;  uncertainty k = 0.486790
         4         5         9        10     9      180.000000       -0.004433         4    ;  uncertainty k = 0.140439
         4         5         9        14     9        0.000000        0.489533         1    ;  uncertainty k = 0.524019
         4         5         9        14     9      180.000000        3.088220         2    ;  uncertainty k = 0.209454
         4         5         9        14     9        0.000000        0.476701         3    ;  uncertainty k = 0.374711
         4         5         9        14     9      180.000000       -0.023807         4    ;  uncertainty k = 0.127626
         5         1         2         6     9        0.000000        0.448913         1    ;  uncertainty k = 2.198644
         5         1         2         6     9      180.000000        8.275354         2    ;  uncertainty k = 0.562057
         5         1         2         6     9        0.000000        1.041446         3    ;  uncertainty k = 0.661125
         5         1         2         6     9      180.000000        0.544357         4    ;  uncertainty k = 0.300300
         5         4         3        16     9        0.000000        0.888932         1    ;  uncertainty k = 1.388906
         5         4         3        16     9      180.000000       11.852234         2    ;  uncertainty k = 0.765527
         5         4         3        16     9        0.000000        1.716640         3    ;  uncertainty k = 0.309228
         5         4         3        16     9      180.000000        0.437459         4    ;  uncertainty k = 0.455251
         5         9        10        11     9        0.000000        0.153662         1    ;  uncertainty k = 0.311680
         5         9        10        11     9      180.000000        9.242220         2    ;  uncertainty k = 0.234952
         5         9        10        11     9        0.000000        1.131548         3    ;  uncertainty k = 0.249895
         5         9        10        11     9      180.000000        1.686100         4    ;  uncertainty k = 0.069218
         5         9        10        23     9        0.000000       -0.244501         1    ;  uncertainty k = 0.346413
         5         9        10        23     9      180.000000        7.006135         2    ;  uncertainty k = 0.383210
         5         9        10        23     9        0.000000        0.701845         3    ;  uncertainty k = 0.285536
         5         9        10        23     9      180.000000        1.248356         4    ;  uncertainty k = 0.208768
         5         9        14        13     9        0.000000       -0.001622         1    ;  uncertainty k = 0.338402
         5         9        14        13     9      180.000000        8.986498         2    ;  uncertainty k = 0.477955
         5         9        14        13     9        0.000000        1.129380         3    ;  uncertainty k = 0.272092
         5         9        14        13     9      180.000000        1.733924         4    ;  uncertainty k = 0.169696
         5         9        14        26     9        0.000000       -0.179170         1    ;  uncertainty k = 0.563527
         5         9        14        26     9      180.000000        6.894013         2    ;  uncertainty k = 0.364318
         5         9        14        26     9        0.000000        0.763900         3    ;  uncertainty k = 0.220061
         5         9        14        26     9      180.000000        1.264729         4    ;  uncertainty k = 0.159786
         6         2         3        16     9        0.000000       -0.665249         1    ;  uncertainty k = 0.977507
         6         2         3        16     9      180.000000       11.691680         2    ;  uncertainty k = 0.581130
         6         2         3        16     9        0.000000        1.652052         3    ;  uncertainty k = 0.309495
         6         2         3        16     9      180.000000        0.410579         4    ;  uncertainty k = 0.549466
         9         5         4        15     9        0.000000        0.076612         1    ;  uncertainty k = 0.679979
         9         5         4        15     9      180.000000        8.640518         2    ;  uncertainty k = 0.557981
         9         5         4        15     9        0.000000        1.552127         3    ;  uncertainty k = 0.086423
         9         5         4        15     9      180.000000        0.843356         4    ;  uncertainty k = 0.177558
         9        10        11        12     9        0.000000       -0.032099         1    ;  uncertainty k = 0.315431
         9        10        11        12     9      180.000000        8.958273         2    ;  uncertainty k = 0.625100
         9        10        11        12     9        0.000000        0.217076         3    ;  uncertainty k = 0.262885
         9        10        11        12     9      180.000000        1.251097         4    ;  uncertainty k = 0.373583
         9        10        11        21     9        0.000000       -0.004836         1    ;  uncertainty k = 0.356700
         9        10        11        21     9      180.000000       10.876415         2    ;  uncertainty k = 0.440707
         9        10        11        21     9        0.000000        1.122057         3    ;  uncertainty k = 0.217790
         9        10        11        21     9      180.000000        1.569447         4    ;  uncertainty k = 0.123879
         9        14        13        12     9        0.000000       -0.112655         1    ;  uncertainty k = 0.266700
         9        14        13        12     9      180.000000       14.765080         2    ;  uncertainty k = 0.288387
         9        14        13        12     9        0.000000       -0.966940         3    ;  uncertainty k = 0.395554
         9        14        13        12     9      180.000000        0.611035         4    ;  uncertainty k = 0.256981
         9        14        13        25     9        0.000000        0.085151         1    ;  uncertainty k = 0.058413
         9        14        13        25     9      180.000000        7.751873         2    ;  uncertainty k = 0.261532
         9        14        13        25     9        0.000000        1.350461         3    ;  uncertainty k = 0.269219
         9        14        13        25     9      180.000000        1.840596         4    ;  uncertainty k = 0.115758
        10         9        14        13     9        0.000000       -0.211287         1    ;  uncertainty k = 0.087655
        10         9        14        13     9      180.000000       11.466016         2    ;  uncertainty k = 0.275156
        10         9        14        13     9        0.000000       -0.512630         3    ;  uncertainty k = 0.272798
        10         9        14        13     9      180.000000        0.901295         4    ;  uncertainty k = 0.229225
        10         9        14        26     9        0.000000        0.151896         1    ;  uncertainty k = 0.203258
        10         9        14        26     9      180.000000        6.869707         2    ;  uncertainty k = 0.603497
        10         9        14        26     9        0.000000        1.531637         3    ;  uncertainty k = 0.187196
        10         9        14        26     9      180.000000        1.698616         4    ;  uncertainty k = 0.258046
        10        11        12        13     9        0.000000       -0.061111         1    ;  uncertainty k = 0.122491
        10        11        12        13     9      180.000000        9.033791         2    ;  uncertainty k = 0.582014
        10        11        12        13     9        0.000000        0.031644         3    ;  uncertainty k = 0.376503
        10        11        12        13     9      180.000000        1.184263         4    ;  uncertainty k = 0.323933
        10        11        12        24     9        0.000000        0.192386         1    ;  uncertainty k = 0.346722
        10        11        12        24     9      180.000000        5.879093         2    ;  uncertainty k = 0.481005
        10        11        12        24     9        0.000000        1.436048         3    ;  uncertainty k = 0.274998
        10        11        12        24     9      180.000000        1.568237         4    ;  uncertainty k = 0.105317
        10        11        21        22     9        0.000000       -0.415970         1    ;  uncertainty k = 0.623145
        10        11        21        22     9      180.000000        7.600316         2    ;  uncertainty k = 0.056166
        10        11        21        22     9        0.000000        0.461835         3    ;  uncertainty k = 0.141115
        10        11        21        22     9      180.000000        0.289364         4    ;  uncertainty k = 0.076945
        11        10         9        14     9        0.000000       -0.043387         1    ;  uncertainty k = 0.128384
        11        10         9        14     9      180.000000       10.810457         2    ;  uncertainty k = 0.413879
        11        10         9        14     9        0.000000       -0.200574         3    ;  uncertainty k = 0.146766
        11        10         9        14     9      180.000000        1.056374         4    ;  uncertainty k = 0.250021
        11        12        13        14     9        0.000000       -0.126602         1    ;  uncertainty k = 0.245418
        11        12        13        14     9      180.000000       14.299241         2    ;  uncertainty k = 0.260648
        11        12        13        14     9        0.000000       -0.942736         3    ;  uncertainty k = 0.448826
        11        12        13        14     9      180.000000        0.737694         4    ;  uncertainty k = 0.219714
        11        12        13        25     9        0.000000       -0.016134         1    ;  uncertainty k = 0.135594
        11        12        13        25     9      180.000000        7.891493         2    ;  uncertainty k = 0.369526
        11        12        13        25     9        0.000000        1.291655         3    ;  uncertainty k = 0.294727
        11        12        13        25     9      180.000000        1.727383         4    ;  uncertainty k = 0.126735
        11        21        22        29     9        0.000000        0.687746         1    ;  uncertainty k = 0.179512
        11        21        22        29     9      180.000000       -1.408975         2    ;  uncertainty k = 0.130714
        11        21        22        29     9        0.000000        0.937867         3    ;  uncertainty k = 0.042465
        11        21        22        29     9      180.000000        0.288707         4    ;  uncertainty k = 0.058431
        11        21        22        30     9        0.000000        0.687746         1    ;  uncertainty k = 0.179512
        11        21        22        30     9      180.000000       -1.408975         2    ;  uncertainty k = 0.130714
        11        21        22        30     9        0.000000        0.937867         3    ;  uncertainty k = 0.042465
        11        21        22        30     9      180.000000        0.288707         4    ;  uncertainty k = 0.058431
        11        21        22        31     9        0.000000        0.687746         1    ;  uncertainty k = 0.179512
        11        21        22        31     9      180.000000       -1.408975         2    ;  uncertainty k = 0.130714
        11        21        22        31     9        0.000000        0.937867         3    ;  uncertainty k = 0.042465
        11        21        22        31     9      180.000000        0.288707         4    ;  uncertainty k = 0.058431
        12        11        10        23     9        0.000000        0.263494         1    ;  uncertainty k = 0.356759
        12        11        10        23     9      180.000000        6.149568         2    ;  uncertainty k = 0.359792
        12        11        10        23     9        0.000000        1.450071         3    ;  uncertainty k = 0.288791
        12        11        10        23     9      180.000000        1.669801         4    ;  uncertainty k = 0.117534
        12        11        21        22     9        0.000000        0.630213         1    ;  uncertainty k = 0.458418
        12        11        21        22     9      180.000000        7.628260         2    ;  uncertainty k = 0.067849
        12        11        21        22     9        0.000000        0.657102         3    ;  uncertainty k = 0.061057
        12        11        21        22     9      180.000000        0.294056         4    ;  uncertainty k = 0.013515
        12        13        14        26     9        0.000000        0.107856         1    ;  uncertainty k = 0.071163
        12        13        14        26     9      180.000000        7.959683         2    ;  uncertainty k = 0.304283
        12        13        14        26     9        0.000000        1.415593         3    ;  uncertainty k = 0.234156
        12        13        14        26     9      180.000000        1.887390         4    ;  uncertainty k = 0.156216
        13        12        11        21     9        0.000000        0.010712         1    ;  uncertainty k = 0.277514
        13        12        11        21     9      180.000000       10.466797         2    ;  uncertainty k = 0.516247
        13        12        11        21     9        0.000000        1.141463         3    ;  uncertainty k = 0.301964
        13        12        11        21     9      180.000000        1.586621         4    ;  uncertainty k = 0.127026
        14         9        10        23     9        0.000000        0.260952         1    ;  uncertainty k = 0.182804
        14         9        10        23     9      180.000000        6.942319         2    ;  uncertainty k = 0.489056
        14         9        10        23     9        0.000000        1.570313         3    ;  uncertainty k = 0.207439
        14         9        10        23     9      180.000000        1.694853         4    ;  uncertainty k = 0.196389
        14        13        12        24     9        0.000000        0.172376         1    ;  uncertainty k = 0.111433
        14        13        12        24     9      180.000000        7.671167         2    ;  uncertainty k = 0.324334
        14        13        12        24     9        0.000000        1.555481         3    ;  uncertainty k = 0.247956
        14        13        12        24     9      180.000000        1.833845         4    ;  uncertainty k = 0.114249
        15         4         3        16     9        0.000000       -0.300934         1    ;  uncertainty k = 0.650861
        15         4         3        16     9      180.000000        9.165092         2    ;  uncertainty k = 0.275746
        15         4         3        16     9        0.000000        1.456381         3    ;  uncertainty k = 0.310393
        15         4         3        16     9      180.000000        0.631618         4    ;  uncertainty k = 0.388932
        16        17        18        19     9        0.000000        1.079222         1    ;  uncertainty k = 0.841475
        16        17        18        19     9      180.000000        5.864588         2    ;  uncertainty k = 0.515928
        16        17        18        19     9        0.000000        1.140649         3    ;  uncertainty k = 0.463168
        16        17        18        19     9      180.000000        0.279519         4    ;  uncertainty k = 0.238932
        16        17        18        20     9        0.000000        1.079222         1    ;  uncertainty k = 0.841475
        16        17        18        20     9      180.000000        5.864588         2    ;  uncertainty k = 0.515928
        16        17        18        20     9        0.000000        1.140649         3    ;  uncertainty k = 0.463168
        16        17        18        20     9      180.000000        0.279519         4    ;  uncertainty k = 0.238932
        19        18        17        27     9        0.000000       -2.498422         1    ;  uncertainty k = 1.124580
        19        18        17        27     9      180.000000        1.806048         2    ;  uncertainty k = 0.648461
        19        18        17        27     9        0.000000        0.840718         3    ;  uncertainty k = 0.199496
        19        18        17        27     9      180.000000        0.238884         4    ;  uncertainty k = 0.091169
        19        18        17        28     9        0.000000       -2.498422         1    ;  uncertainty k = 1.124580
        19        18        17        28     9      180.000000        1.806048         2    ;  uncertainty k = 0.648461
        19        18        17        28     9        0.000000        0.840718         3    ;  uncertainty k = 0.199496
        19        18        17        28     9      180.000000        0.238884         4    ;  uncertainty k = 0.091169
        20        18        17        27     9        0.000000       -2.498422         1    ;  uncertainty k = 1.124580
        20        18        17        27     9      180.000000        1.806048         2    ;  uncertainty k = 0.648461
        20        18        17        27     9        0.000000        0.840718         3    ;  uncertainty k = 0.199496
        20        18        17        27     9      180.000000        0.238884         4    ;  uncertainty k = 0.091169
        20        18        17        28     9        0.000000       -2.498422         1    ;  uncertainty k = 1.124580
        20        18        17        28     9      180.000000        1.806048         2    ;  uncertainty k = 0.648461
        20        18        17        28     9        0.000000        0.840718         3    ;  uncertainty k = 0.199496
        20        18        17        28     9      180.000000        0.238884         4    ;  uncertainty k = 0.091169
        21        11        10        23     9        0.000000       -0.104150         1    ;  uncertainty k = 0.228834
        21        11        10        23     9      180.000000        8.393015         2    ;  uncertainty k = 0.261652
        21        11        10        23     9        0.000000        0.677915         3    ;  uncertainty k = 0.143826
        21        11        10        23     9      180.000000        1.117713         4    ;  uncertainty k = 0.157691
        21        11        12        24     9        0.000000       -0.129809         1    ;  uncertainty k = 0.148787
        21        11        12        24     9      180.000000        8.188260         2    ;  uncertainty k = 0.316525
        21        11        12        24     9        0.000000        0.679863         3    ;  uncertainty k = 0.129505
        21        11        12        24     9      180.000000        0.985538         4    ;  uncertainty k = 0.199174
        24        12        13        25     9        0.000000       -0.103448         1    ;  uncertainty k = 0.044746
        24        12        13        25     9      180.000000        7.573101         2    ;  uncertainty k = 0.411651
        24        12        13        25     9        0.000000       -0.407051         3    ;  uncertainty k = 0.246146
        24        12        13        25     9      180.000000        0.090270         4    ;  uncertainty k = 0.127414
        25        13        14        26     9        0.000000       -0.025687         1    ;  uncertainty k = 0.249354
        25        13        14        26     9      180.000000        7.660606         2    ;  uncertainty k = 0.393589
        25        13        14        26     9        0.000000       -0.444502         3    ;  uncertainty k = 0.289215
        25        13        14        26     9      180.000000        0.134327         4    ;  uncertainty k = 0.133438

[ dihedrals ] ; impropers
;       ai        aj        ak        al funct           phase               k        pn
         2         1         3         6     4      180.000000        2.833395         2    ;  uncertainty k = 1.376267
         2         3         6         1     4      180.000000        2.833395         2    ;  uncertainty k = 1.376267
         2         6         1         3     4      180.000000        2.833395         2    ;  uncertainty k = 1.376267
         3         2         4        16     4      180.000000        5.361893         2    ;  uncertainty k = 0.990709
         3         4        16         2     4      180.000000        5.361893         2    ;  uncertainty k = 0.990709
         3        16         2         4     4      180.000000        5.361893         2    ;  uncertainty k = 0.990709
         4         3         5        15     4      180.000000        2.510743         2    ;  uncertainty k = 0.373132
         4         5        15         3     4      180.000000        2.510743         2    ;  uncertainty k = 0.373132
         4        15         3         5     4      180.000000        2.510743         2    ;  uncertainty k = 0.373132
         5         1         4         9     4      180.000000        5.386214         2    ;  uncertainty k = 0.366796
         5         4         9         1     4      180.000000        5.386214         2    ;  uncertainty k = 0.366796
         5         9         1         4     4      180.000000        5.386214         2    ;  uncertainty k = 0.366796
         6         2         7         8     4      180.000000       66.076957         2    ;  uncertainty k = 0.057409
         6         7         8         2     4      180.000000       66.076957         2    ;  uncertainty k = 0.057409
         6         8         2         7     4      180.000000       66.076957         2    ;  uncertainty k = 0.057409
         9         5        10        14     4      180.000000       14.327456         2    ;  uncertainty k = 0.080886
         9        10        14         5     4      180.000000       14.327456         2    ;  uncertainty k = 0.080886
         9        14         5        10     4      180.000000       14.327456         2    ;  uncertainty k = 0.080886
        10         9        11        23     4      180.000000        2.346749         2    ;  uncertainty k = 0.404698
        10        11        23         9     4      180.000000        2.346749         2    ;  uncertainty k = 0.404698
        10        23         9        11     4      180.000000        2.346749         2    ;  uncertainty k = 0.404698
        11        10        12        21     4      180.000000       19.993148         2    ;  uncertainty k = 0.076623
        11        12        21        10     4      180.000000       19.993148         2    ;  uncertainty k = 0.076623
        11        21        10        12     4      180.000000       19.993148         2    ;  uncertainty k = 0.076623
        12        11        13        24     4      180.000000        2.273154         2    ;  uncertainty k = 0.287695
        12        13        24        11     4      180.000000        2.273154         2    ;  uncertainty k = 0.287695
        12        24        11        13     4      180.000000        2.273154         2    ;  uncertainty k = 0.287695
        13        12        14        25     4      180.000000        4.383894         2    ;  uncertainty k = 0.120293
        13        14        25        12     4      180.000000        4.383894         2    ;  uncertainty k = 0.120293
        13        25        12        14     4      180.000000        4.383894         2    ;  uncertainty k = 0.120293
        14         9        13        26     4      180.000000        3.319140         2    ;  uncertainty k = 0.167815
        14        13        26         9     4      180.000000        3.319140         2    ;  uncertainty k = 0.167815
        14        26         9        13     4      180.000000        3.319140         2    ;  uncertainty k = 0.167815
        18        17        19        20     4      180.000000       68.314311         2    ;  uncertainty k = 0.022612
        18        19        20        17     4      180.000000       68.314311         2    ;  uncertainty k = 0.022612
        18        20        17        19     4      180.000000       68.314311         2    ;  uncertainty k = 0.022612

[ pairs ]
;       ai        aj funct
         1         7     1
         1         8     1
         1        10     1
         1        14     1
         1        15     1
         1        16     1
         2         9     1
         2        15     1
         2        17     1
         3         7     1
         3         8     1
         3         9     1
         3        18     1
         3        27     1
         3        28     1
         4         6     1
         4        10     1
         4        14     1
         4        17     1
         5         6     1
         5        11     1
         5        13     1
         5        16     1
         5        23     1
         5        26     1
         6        16     1
         9        12     1
         9        15     1
         9        21     1
         9        25     1
        10        13     1
        10        22     1
        10        24     1
        10        26     1
        11        14     1
        11        25     1
        11        29     1
        11        30     1
        11        31     1
        12        22     1
        12        23     1
        12        26     1
        13        21     1
        14        23     1
        14        24     1
        15        16     1
        16        19     1
        16        20     1
        19        27     1
        19        28     1
        20        27     1
        20        28     1
        21        23     1
        21        24     1
        24        25     1
        25        26     1
