; ITP file created by ByteFF-joint-25, 2026-02-17 09:28:58.299514

[ atomtypes ]
;name           bonded.type        at.num        mass        charge   ptype           sigma         epsilon
 s0bf                                  16      0.0000       0.00000       A     3.53165e-01     1.18204e+00    ;  uncertainty sigma = 0.000053, epsilon = 0.003055
 c1bf                                   6      0.0000       0.00000       A     3.31495e-01     4.13373e-01    ;  uncertainty sigma = 0.000032, epsilon = 0.002340
 c2bf                                   6      0.0000       0.00000       A     3.31500e-01     4.12069e-01    ;  uncertainty sigma = 0.000033, epsilon = 0.001338
 c3bf                                   6      0.0000       0.00000       A     3.31511e-01     4.13455e-01    ;  uncertainty sigma = 0.000012, epsilon = 0.000975
 c4bf                                   6      0.0000       0.00000       A     3.31514e-01     4.13061e-01    ;  uncertainty sigma = 0.000022, epsilon = 0.000877
 c5bf                                   6      0.0000       0.00000       A     3.31529e-01     4.13194e-01    ;  uncertainty sigma = 0.000055, epsilon = 0.002345
 o6bf                                   8      0.0000       0.00000       A     3.04804e-01     6.11836e-01    ;  uncertainty sigma = 0.000044, epsilon = 0.001672
 o7bf                                   8      0.0000       0.00000       A     3.04804e-01     6.11836e-01    ;  uncertainty sigma = 0.000044, epsilon = 0.001672
 c8bf                                   6      0.0000       0.00000       A     3.31503e-01     4.13001e-01    ;  uncertainty sigma = 0.000011, epsilon = 0.000428
 c9bf                                   6      0.0000       0.00000       A     3.31525e-01     4.13301e-01    ;  uncertainty sigma = 0.000005, epsilon = 0.000875
 c10bf                                  6      0.0000       0.00000       A     3.31501e-01     4.13250e-01    ;  uncertainty sigma = 0.000014, epsilon = 0.000825
 c11bf                                  6      0.0000       0.00000       A     3.31523e-01     4.13152e-01    ;  uncertainty sigma = 0.000002, epsilon = 0.000583
 c12bf                                  6      0.0000       0.00000       A     3.31522e-01     4.13506e-01    ;  uncertainty sigma = 0.000003, epsilon = 0.000663
 c13bf                                  6      0.0000       0.00000       A     3.31520e-01     4.13276e-01    ;  uncertainty sigma = 0.000003, epsilon = 0.000632
 br14bf                                35      0.0000       0.00000       A     3.61258e-01     1.64394e+00    ;  uncertainty sigma = 0.000027, epsilon = 0.006365
 o15bf                                  8      0.0000       0.00000       A     3.15802e-01     3.03913e-01    ;  uncertainty sigma = 0.000078, epsilon = 0.010291
 c16bf                                  6      0.0000       0.00000       A     3.39717e-01     4.50736e-01    ;  uncertainty sigma = 0.000028, epsilon = 0.002811
 c17bf                                  6      0.0000       0.00000       A     3.31523e-01     4.12941e-01    ;  uncertainty sigma = 0.000026, epsilon = 0.002863
 o18bf                                  8      0.0000       0.00000       A     3.04805e-01     6.12312e-01    ;  uncertainty sigma = 0.000022, epsilon = 0.002455
 o19bf                                  8      0.0000       0.00000       A     3.04805e-01     6.12312e-01    ;  uncertainty sigma = 0.000022, epsilon = 0.002455
 n20bf                                  7      0.0000       0.00000       A     3.27906e-01     6.46867e-01    ;  uncertainty sigma = 0.000044, epsilon = 0.002043
 h21bf                                  1      0.0000       0.00000       A     2.62549e-01     6.70894e-02    ;  uncertainty sigma = 0.000012, epsilon = 0.000576
 h22bf                                  1      0.0000       0.00000       A     2.62557e-01     6.70464e-02    ;  uncertainty sigma = 0.000012, epsilon = 0.000449
 h23bf                                  1      0.0000       0.00000       A     2.62563e-01     6.69897e-02    ;  uncertainty sigma = 0.000012, epsilon = 0.000446
 h24bf                                  1      0.0000       0.00000       A     2.62561e-01     6.70429e-02    ;  uncertainty sigma = 0.000012, epsilon = 0.000452
 h25bf                                  1      0.0000       0.00000       A     2.42291e-01     8.67021e-02    ;  uncertainty sigma = 0.000194, epsilon = 0.000950
 h26bf                                  1      0.0000       0.00000       A     2.42291e-01     8.67021e-02    ;  uncertainty sigma = 0.000194, epsilon = 0.000950
 h27bf                                  1      0.0000       0.00000       A     1.10687e-01     4.13829e-02    ;  uncertainty sigma = 0.000107, epsilon = 0.001030
 h28bf                                  1      0.0000       0.00000       A     2.42231e-01     8.64881e-02    ;  uncertainty sigma = 0.000042, epsilon = 0.000889
 c29bf                                  6      0.0000       0.00000       A     3.39794e-01     4.51524e-01    ;  uncertainty sigma = 0.000010, epsilon = 0.000477
 c30bf                                  6      0.0000       0.00000       A     3.39780e-01     4.50582e-01    ;  uncertainty sigma = 0.000005, epsilon = 0.000803
 c31bf                                  6      0.0000       0.00000       A     3.39778e-01     4.50853e-01    ;  uncertainty sigma = 0.000011, epsilon = 0.000386
 c32bf                                  6      0.0000       0.00000       A     3.39778e-01     4.50853e-01    ;  uncertainty sigma = 0.000011, epsilon = 0.000386
 c33bf                                  6      0.0000       0.00000       A     3.39780e-01     4.50582e-01    ;  uncertainty sigma = 0.000005, epsilon = 0.000802
 h34bf                                  1      0.0000       0.00000       A     2.60044e-01     8.66956e-02    ;  uncertainty sigma = 0.000010, epsilon = 0.000577
 h35bf                                  1      0.0000       0.00000       A     2.60044e-01     8.66956e-02    ;  uncertainty sigma = 0.000010, epsilon = 0.000577
 h36bf                                  1      0.0000       0.00000       A     2.60029e-01     8.67956e-02    ;  uncertainty sigma = 0.000009, epsilon = 0.000609
 h37bf                                  1      0.0000       0.00000       A     2.60029e-01     8.67956e-02    ;  uncertainty sigma = 0.000009, epsilon = 0.000609
 h38bf                                  1      0.0000       0.00000       A     2.60029e-01     8.67958e-02    ;  uncertainty sigma = 0.000009, epsilon = 0.000609
 h39bf                                  1      0.0000       0.00000       A     2.60029e-01     8.67958e-02    ;  uncertainty sigma = 0.000009, epsilon = 0.000609
 h40bf                                  1      0.0000       0.00000       A     2.60044e-01     8.66955e-02    ;  uncertainty sigma = 0.000010, epsilon = 0.000577
 h41bf                                  1      0.0000       0.00000       A     2.60044e-01     8.66955e-02    ;  uncertainty sigma = 0.000010, epsilon = 0.000577

[ moleculetype ]
;name             nrexcl
 MOL                   3

[ atoms ]
;       nr            type      resi   res      atom      cgnr      charge          mass ; qtot
         1            s0bf         1   UNL        s0         1    -0.06026       32.0670 ; qtot   -0.060
         2            c1bf         1   UNL        c1         2    -0.15250       12.0110 ; qtot   -0.213
         3            c2bf         1   UNL        c2         3     0.12085       12.0110 ; qtot   -0.092
         4            c3bf         1   UNL        c3         4    -0.04845       12.0110 ; qtot   -0.140
         5            c4bf         1   UNL        c4         5    -0.04891       12.0110 ; qtot   -0.189
         6            c5bf         1   UNL        c5         6     0.93104       12.0110 ; qtot    0.742
         7            o6bf         1   UNL        o6         7    -0.81786       15.9990 ; qtot   -0.076
         8            o7bf         1   UNL        o7         8    -0.81786       15.9990 ; qtot   -0.894
         9            c8bf         1   UNL        c8         9     0.02242       12.0110 ; qtot   -0.872
        10            c9bf         1   UNL        c9        10    -0.18096       12.0110 ; qtot   -1.052
        11           c10bf         1   UNL       c10        11     0.16180       12.0110 ; qtot   -0.891
        12           c11bf         1   UNL       c11        12    -0.19073       12.0110 ; qtot   -1.081
        13           c12bf         1   UNL       c12        13    -0.09080       12.0110 ; qtot   -1.172
        14           c13bf         1   UNL       c13        14    -0.13329       12.0110 ; qtot   -1.306
        15          br14bf         1   UNL      br14        15    -0.09860       79.9040 ; qtot   -1.404
        16           o15bf         1   UNL       o15        16    -0.32674       15.9990 ; qtot   -1.731
        17           c16bf         1   UNL       c16        17    -0.04389       12.0110 ; qtot   -1.775
        18           c17bf         1   UNL       c17        18     0.91650       12.0110 ; qtot   -0.858
        19           o18bf         1   UNL       o18        19    -0.83281       15.9990 ; qtot   -1.691
        20           o19bf         1   UNL       o19        20    -0.83281       15.9990 ; qtot   -2.524
        21           n20bf         1   UNL       n20        21    -0.74844       14.0070 ; qtot   -3.272
        22           h21bf         1   UNL       h21        22     0.13959        1.0080 ; qtot   -3.133
        23           h22bf         1   UNL       h22        23     0.13160        1.0080 ; qtot   -3.001
        24           h23bf         1   UNL       h23        24     0.13674        1.0080 ; qtot   -2.864
        25           h24bf         1   UNL       h24        25     0.14276        1.0080 ; qtot   -2.722
        26           h25bf         1   UNL       h25        26     0.02291        1.0080 ; qtot   -2.699
        27           h26bf         1   UNL       h26        27     0.02291        1.0080 ; qtot   -2.676
        28           h27bf         1   UNL       h27        28     0.39746        1.0080 ; qtot   -2.278
        29           h28bf         1   UNL       h28        29     0.05698        1.0080 ; qtot   -2.221
        30           c29bf         1   UNL       c29        30     0.20181       12.0110 ; qtot   -2.020
        31           c30bf         1   UNL       c30        31    -0.09573       12.0110 ; qtot   -2.115
        32           c31bf         1   UNL       c31        32    -0.07994       12.0110 ; qtot   -2.195
        33           c32bf         1   UNL       c32        33    -0.07994       12.0110 ; qtot   -2.275
        34           c33bf         1   UNL       c33        34    -0.09573       12.0110 ; qtot   -2.371
        35           h34bf         1   UNL       h34        35     0.04920        1.0080 ; qtot   -2.322
        36           h35bf         1   UNL       h35        36     0.04920        1.0080 ; qtot   -2.272
        37           h36bf         1   UNL       h36        37     0.04352        1.0080 ; qtot   -2.229
        38           h37bf         1   UNL       h37        38     0.04352        1.0080 ; qtot   -2.185
        39           h38bf         1   UNL       h38        39     0.04352        1.0080 ; qtot   -2.142
        40           h39bf         1   UNL       h39        40     0.04352        1.0080 ; qtot   -2.098
        41           h40bf         1   UNL       h40        41     0.04920        1.0080 ; qtot   -2.049
        42           h41bf         1   UNL       h41        42     0.04920        1.0080 ; qtot   -2.000

[ bonds ]
;       ai        aj funct               r               k
         1         2     1        0.174192   168649.560181    ;  uncertainty r = 0.000346, k = 32.148596
         1         5     1        0.174357   166232.447241    ;  uncertainty r = 0.000237, k = 14.888510
         2         3     1        0.138080   385642.911377    ;  uncertainty r = 0.000134, k = 36.968685
         2         6     1        0.154055   191773.233960    ;  uncertainty r = 0.000283, k = 45.899503
         3         4     1        0.143810   249799.356152    ;  uncertainty r = 0.000373, k = 34.755195
         3        16     1        0.136007   307552.652637    ;  uncertainty r = 0.000403, k = 36.149075
         4         5     1        0.137757   380537.379248    ;  uncertainty r = 0.000227, k = 7.612841
         4        15     1        0.190420   156686.726831    ;  uncertainty r = 0.000144, k = 29.636935
         5         9     1        0.146494   276212.286230    ;  uncertainty r = 0.000144, k = 8.037085
         6         7     1        0.126149   550576.911523    ;  uncertainty r = 0.000229, k = 9.262788
         6         8     1        0.126149   550576.911523    ;  uncertainty r = 0.000229, k = 9.262788
         9        10     1        0.139875   347142.424707    ;  uncertainty r = 0.000089, k = 3.374284
         9        14     1        0.140210   349268.797656    ;  uncertainty r = 0.000029, k = 3.596335
        10        11     1        0.140711   362534.049121    ;  uncertainty r = 0.000062, k = 5.791949
        10        22     1        0.108902   336946.069824    ;  uncertainty r = 0.000025, k = 2.596094
        11        12     1        0.140927   362229.595703    ;  uncertainty r = 0.000064, k = 9.461009
        11        21     1        0.139562   340096.199951    ;  uncertainty r = 0.000116, k = 9.327899
        12        13     1        0.139388   371806.216016    ;  uncertainty r = 0.000028, k = 2.321022
        12        23     1        0.108871   337106.289648    ;  uncertainty r = 0.000027, k = 1.100466
        13        14     1        0.139365   367291.919043    ;  uncertainty r = 0.000034, k = 1.543599
        13        24     1        0.108777   332400.515430    ;  uncertainty r = 0.000018, k = 1.514343
        14        25     1        0.108759   334843.242090    ;  uncertainty r = 0.000027, k = 0.771472
        16        17     1        0.144489   220596.573486    ;  uncertainty r = 0.000632, k = 19.356591
        17        18     1        0.155273   162501.513867    ;  uncertainty r = 0.000271, k = 66.063610
        17        26     1        0.109682   316919.485596    ;  uncertainty r = 0.000081, k = 8.518153
        17        27     1        0.109682   316919.485596    ;  uncertainty r = 0.000081, k = 8.518153
        18        19     1        0.126286   541570.585938    ;  uncertainty r = 0.000058, k = 12.189171
        18        20     1        0.126286   541570.585938    ;  uncertainty r = 0.000058, k = 12.189171
        21        28     1        0.101390   417137.853906    ;  uncertainty r = 0.000026, k = 4.534821
        21        30     1        0.146132   239403.811816    ;  uncertainty r = 0.000161, k = 6.506269
        29        30     1        0.109533   302681.857617    ;  uncertainty r = 0.000049, k = 3.705978
        30        31     1        0.154388   226109.626807    ;  uncertainty r = 0.000050, k = 7.035847
        30        34     1        0.154388   226109.626807    ;  uncertainty r = 0.000050, k = 7.035845
        31        32     1        0.154735   234351.294727    ;  uncertainty r = 0.000050, k = 1.610608
        31        35     1        0.109515   306833.757471    ;  uncertainty r = 0.000011, k = 2.493763
        31        36     1        0.109515   306833.757471    ;  uncertainty r = 0.000011, k = 2.493763
        32        33     1        0.155646   225004.738232    ;  uncertainty r = 0.000030, k = 5.923122
        32        37     1        0.109468   304948.071777    ;  uncertainty r = 0.000010, k = 1.972451
        32        38     1        0.109468   304948.071777    ;  uncertainty r = 0.000010, k = 1.972451
        33        34     1        0.154735   234351.320264    ;  uncertainty r = 0.000050, k = 1.610578
        33        39     1        0.109468   304948.071777    ;  uncertainty r = 0.000010, k = 1.972454
        33        40     1        0.109468   304948.071777    ;  uncertainty r = 0.000010, k = 1.972454
        34        41     1        0.109515   306833.731934    ;  uncertainty r = 0.000011, k = 2.493754
        34        42     1        0.109515   306833.731934    ;  uncertainty r = 0.000011, k = 2.493754

[ angles ]
;       ai        aj        ak funct           theta             cth
         1         2         3     1      112.357254      490.287825    ;  uncertainty theta = 0.005257, k = 0.446159
         1         2         6     1      115.451401      321.272126    ;  uncertainty theta = 0.011344, k = 0.278095
         1         5         4     1      111.659386      449.584992    ;  uncertainty theta = 0.002310, k = 0.394971
         1         5         9     1      118.721352      342.837417    ;  uncertainty theta = 0.007349, k = 0.153879
         2         1         5     1       93.409683     1113.970975    ;  uncertainty theta = 0.008532, k = 0.189168
         2         3         4     1      115.069199      491.410436    ;  uncertainty theta = 0.004813, k = 0.280924
         2         3        16     1      123.043716      386.336563    ;  uncertainty theta = 0.006879, k = 0.395881
         2         6         7     1      114.979454      369.254791    ;  uncertainty theta = 0.012630, k = 0.171059
         2         6         8     1      114.979454      369.254791    ;  uncertainty theta = 0.012630, k = 0.171059
         3         2         6     1      128.246002      305.353665    ;  uncertainty theta = 0.014744, k = 0.309527
         3         4         5     1      117.601578      512.725910    ;  uncertainty theta = 0.003379, k = 0.473085
         3         4        15     1      119.051048      364.447781    ;  uncertainty theta = 0.003204, k = 0.273279
         3        16        17     1      112.137527      461.556502    ;  uncertainty theta = 0.007449, k = 0.230739
         4         3        16     1      118.536453      394.142587    ;  uncertainty theta = 0.008837, k = 0.130964
         4         5         9     1      126.473328      327.512055    ;  uncertainty theta = 0.004408, k = 0.180727
         5         4        15     1      120.673264      351.209758    ;  uncertainty theta = 0.006817, k = 0.079938
         5         9        10     1      120.410202      415.693130    ;  uncertainty theta = 0.002823, k = 0.085032
         5         9        14     1      121.223778      420.462824    ;  uncertainty theta = 0.001836, k = 0.060974
         7         6         8     1      131.649750      807.008217    ;  uncertainty theta = 0.009047, k = 0.187853
         9        10        11     1      120.386497      535.438615    ;  uncertainty theta = 0.003998, k = 0.093992
         9        10        22     1      119.442848      281.477776    ;  uncertainty theta = 0.002101, k = 0.054057
         9        14        13     1      119.292679      530.125811    ;  uncertainty theta = 0.001609, k = 0.052782
         9        14        25     1      119.460983      279.629943    ;  uncertainty theta = 0.002453, k = 0.055328
        10         9        14     1      121.502518      396.931463    ;  uncertainty theta = 0.005142, k = 0.108662
        10        11        12     1      118.873032      369.034054    ;  uncertainty theta = 0.007314, k = 0.170860
        10        11        21     1      123.247337      561.652586    ;  uncertainty theta = 0.004547, k = 0.197532
        11        10        22     1      119.641174      277.214037    ;  uncertainty theta = 0.001507, k = 0.053270
        11        12        13     1      118.403976      531.699216    ;  uncertainty theta = 0.003619, k = 0.123065
        11        12        23     1      119.602905      268.579142    ;  uncertainty theta = 0.002569, k = 0.072321
        11        21        28     1      110.638710      369.901103    ;  uncertainty theta = 0.004440, k = 0.050255
        11        21        30     1      114.620483      428.790539    ;  uncertainty theta = 0.003120, k = 0.183463
        12        11        21     1      123.761276      596.762983    ;  uncertainty theta = 0.004465, k = 0.101388
        12        13        14     1      121.368729      506.231217    ;  uncertainty theta = 0.002565, k = 0.073026
        12        13        24     1      120.192039      280.092739    ;  uncertainty theta = 0.000959, k = 0.064123
        13        12        23     1      120.987221      294.612374    ;  uncertainty theta = 0.002127, k = 0.076692
        13        14        25     1      120.738708      296.574294    ;  uncertainty theta = 0.001197, k = 0.062710
        14        13        24     1      120.098671      281.243505    ;  uncertainty theta = 0.001003, k = 0.024928
        16        17        18     1      108.358414      484.414258    ;  uncertainty theta = 0.009599, k = 0.239378
        16        17        26     1      106.609215      413.715920    ;  uncertainty theta = 0.002333, k = 0.101205
        16        17        27     1      106.609215      413.715920    ;  uncertainty theta = 0.002333, k = 0.101205
        17        18        19     1      116.281067      425.507680    ;  uncertainty theta = 0.009799, k = 0.299635
        17        18        20     1      116.281067      425.507680    ;  uncertainty theta = 0.009799, k = 0.299635
        18        17        26     1      110.053444      352.214644    ;  uncertainty theta = 0.003968, k = 0.110269
        18        17        27     1      110.053444      352.214644    ;  uncertainty theta = 0.003968, k = 0.110269
        19        18        20     1      131.546265      818.159315    ;  uncertainty theta = 0.002374, k = 0.066126
        21        30        29     1      105.547348      434.550434    ;  uncertainty theta = 0.003522, k = 0.135253
        21        30        31     1      112.791603      613.806896    ;  uncertainty theta = 0.004502, k = 0.107476
        21        30        34     1      112.791603      613.806896    ;  uncertainty theta = 0.004502, k = 0.107476
        26        17        27     1      108.449631      321.244163    ;  uncertainty theta = 0.009962, k = 0.176306
        28        21        30     1      109.949905      363.221266    ;  uncertainty theta = 0.004037, k = 0.171698
        29        30        31     1      108.796326      397.112872    ;  uncertainty theta = 0.003728, k = 0.036508
        29        30        34     1      108.796326      397.112872    ;  uncertainty theta = 0.003728, k = 0.036508
        30        31        32     1      107.430557      684.326858    ;  uncertainty theta = 0.001468, k = 0.075958
        30        31        35     1      108.363953      393.723619    ;  uncertainty theta = 0.001937, k = 0.042867
        30        31        36     1      108.363953      393.723619    ;  uncertainty theta = 0.001937, k = 0.042867
        30        34        33     1      107.430557      684.326794    ;  uncertainty theta = 0.001468, k = 0.075958
        30        34        41     1      108.363953      393.723619    ;  uncertainty theta = 0.001937, k = 0.042867
        30        34        42     1      108.363953      393.723619    ;  uncertainty theta = 0.001937, k = 0.042867
        31        30        34     1      106.520668      720.014011    ;  uncertainty theta = 0.003264, k = 0.097620
        31        32        33     1      108.026871      718.221114    ;  uncertainty theta = 0.000782, k = 0.065905
        31        32        37     1      109.397720      404.932782    ;  uncertainty theta = 0.001039, k = 0.013512
        31        32        38     1      109.397720      404.932782    ;  uncertainty theta = 0.001039, k = 0.013512
        32        31        35     1      109.978050      409.122560    ;  uncertainty theta = 0.001951, k = 0.025112
        32        31        36     1      109.978050      409.122560    ;  uncertainty theta = 0.001951, k = 0.025112
        32        33        34     1      108.026855      718.221050    ;  uncertainty theta = 0.000782, k = 0.065905
        32        33        39     1      109.706985      402.709234    ;  uncertainty theta = 0.001145, k = 0.030892
        32        33        40     1      109.706985      402.709234    ;  uncertainty theta = 0.001145, k = 0.030892
        33        32        37     1      109.706985      402.709234    ;  uncertainty theta = 0.001145, k = 0.030892
        33        32        38     1      109.706985      402.709234    ;  uncertainty theta = 0.001145, k = 0.030892
        33        34        41     1      109.978050      409.122560    ;  uncertainty theta = 0.001951, k = 0.025112
        33        34        42     1      109.978050      409.122560    ;  uncertainty theta = 0.001951, k = 0.025112
        34        33        39     1      109.397720      404.932782    ;  uncertainty theta = 0.001039, k = 0.013512
        34        33        40     1      109.397720      404.932782    ;  uncertainty theta = 0.001039, k = 0.013512
        35        31        36     1      105.098709      304.428583    ;  uncertainty theta = 0.002987, k = 0.037415
        37        32        38     1      104.070740      305.130247    ;  uncertainty theta = 0.001921, k = 0.028235
        39        33        40     1      104.070740      305.130247    ;  uncertainty theta = 0.001921, k = 0.028235
        41        34        42     1      105.098694      304.428583    ;  uncertainty theta = 0.002987, k = 0.037415

[ dihedrals ] ; propers for gromacs 4.5 or higher, use funct 9
;       ai        aj        ak        al funct           phase               k        pn
         1         2         3         4     9        0.000000       -0.320833         1    ;  uncertainty k = 0.754080
         1         2         3         4     9      180.000000       17.555282         2    ;  uncertainty k = 0.424189
         1         2         3         4     9        0.000000       -2.376894         3    ;  uncertainty k = 1.115238
         1         2         3         4     9      180.000000        0.923152         4    ;  uncertainty k = 0.610957
         1         2         3        16     9        0.000000        0.376558         1    ;  uncertainty k = 1.230098
         1         2         3        16     9      180.000000       18.623043         2    ;  uncertainty k = 0.210713
         1         2         3        16     9        0.000000        1.608484         3    ;  uncertainty k = 0.452084
         1         2         3        16     9      180.000000        0.624278         4    ;  uncertainty k = 0.345564
         1         2         6         7     9        0.000000        0.648298         1    ;  uncertainty k = 2.496588
         1         2         6         7     9      180.000000        4.832235         2    ;  uncertainty k = 0.504618
         1         2         6         7     9        0.000000        0.188147         3    ;  uncertainty k = 0.527138
         1         2         6         7     9      180.000000        0.229089         4    ;  uncertainty k = 0.149777
         1         2         6         8     9        0.000000        0.648298         1    ;  uncertainty k = 2.496588
         1         2         6         8     9      180.000000        4.832235         2    ;  uncertainty k = 0.504618
         1         2         6         8     9        0.000000        0.188147         3    ;  uncertainty k = 0.527138
         1         2         6         8     9      180.000000        0.229089         4    ;  uncertainty k = 0.149777
         1         5         4         3     9        0.000000       -0.230943         1    ;  uncertainty k = 0.350057
         1         5         4         3     9      180.000000       15.958089         2    ;  uncertainty k = 0.404103
         1         5         4         3     9        0.000000       -2.380903         3    ;  uncertainty k = 0.809268
         1         5         4         3     9      180.000000        0.865666         4    ;  uncertainty k = 0.750586
         1         5         4        15     9        0.000000        0.242023         1    ;  uncertainty k = 0.389261
         1         5         4        15     9      180.000000       12.724293         2    ;  uncertainty k = 0.534639
         1         5         4        15     9        0.000000        2.310394         3    ;  uncertainty k = 0.489088
         1         5         4        15     9      180.000000        0.570757         4    ;  uncertainty k = 0.408314
         1         5         9        10     9        0.000000       -0.662947         1    ;  uncertainty k = 0.586377
         1         5         9        10     9      180.000000        3.248009         2    ;  uncertainty k = 0.091822
         1         5         9        10     9        0.000000        0.290883         3    ;  uncertainty k = 0.260895
         1         5         9        10     9      180.000000        0.121362         4    ;  uncertainty k = 0.128154
         1         5         9        14     9        0.000000       -0.234039         1    ;  uncertainty k = 0.560796
         1         5         9        14     9      180.000000        3.318007         2    ;  uncertainty k = 0.212074
         1         5         9        14     9        0.000000        0.470906         3    ;  uncertainty k = 0.251297
         1         5         9        14     9      180.000000        0.112736         4    ;  uncertainty k = 0.125286
         2         1         5         4     9        0.000000       -0.381502         1    ;  uncertainty k = 1.018320
         2         1         5         4     9      180.000000       14.624384         2    ;  uncertainty k = 0.929119
         2         1         5         4     9        0.000000       -6.005800         3    ;  uncertainty k = 1.036762
         2         1         5         4     9      180.000000        1.151585         4    ;  uncertainty k = 0.363309
         2         1         5         9     9        0.000000        0.583817         1    ;  uncertainty k = 1.304711
         2         1         5         9     9      180.000000       11.708316         2    ;  uncertainty k = 0.620893
         2         1         5         9     9        0.000000        0.977173         3    ;  uncertainty k = 1.170524
         2         1         5         9     9      180.000000       -0.044640         4    ;  uncertainty k = 0.491596
         2         3         4         5     9        0.000000       -0.163892         1    ;  uncertainty k = 0.802841
         2         3         4         5     9      180.000000        9.355372         2    ;  uncertainty k = 0.794784
         2         3         4         5     9        0.000000       -2.165171         3    ;  uncertainty k = 0.822975
         2         3         4         5     9      180.000000        0.987821         4    ;  uncertainty k = 0.358170
         2         3         4        15     9        0.000000        0.463445         1    ;  uncertainty k = 0.544884
         2         3         4        15     9      180.000000        7.807701         2    ;  uncertainty k = 0.817270
         2         3         4        15     9        0.000000        1.640989         3    ;  uncertainty k = 0.318182
         2         3         4        15     9      180.000000        0.389068         4    ;  uncertainty k = 0.234157
         2         3        16        17     9        0.000000        0.562638         1    ;  uncertainty k = 2.473037
         2         3        16        17     9      180.000000        4.453660         2    ;  uncertainty k = 1.236403
         2         3        16        17     9        0.000000       -0.243071         3    ;  uncertainty k = 0.584348
         2         3        16        17     9      180.000000        0.011309         4    ;  uncertainty k = 0.249195
         3         2         1         5     9        0.000000       -1.343735         1    ;  uncertainty k = 1.825069
         3         2         1         5     9      180.000000       12.410483         2    ;  uncertainty k = 0.765515
         3         2         1         5     9        0.000000       -3.924755         3    ;  uncertainty k = 1.286096
         3         2         1         5     9      180.000000        1.226932         4    ;  uncertainty k = 0.620813
         3         2         6         7     9        0.000000       -0.600971         1    ;  uncertainty k = 1.233380
         3         2         6         7     9      180.000000        2.750847         2    ;  uncertainty k = 0.470266
         3         2         6         7     9        0.000000        0.420307         3    ;  uncertainty k = 0.314900
         3         2         6         7     9      180.000000        0.072508         4    ;  uncertainty k = 0.103468
         3         2         6         8     9        0.000000       -0.600971         1    ;  uncertainty k = 1.233380
         3         2         6         8     9      180.000000        2.750847         2    ;  uncertainty k = 0.470266
         3         2         6         8     9        0.000000        0.420307         3    ;  uncertainty k = 0.314900
         3         2         6         8     9      180.000000        0.072508         4    ;  uncertainty k = 0.103468
         3         4         5         9     9        0.000000        0.192167         1    ;  uncertainty k = 0.214788
         3         4         5         9     9      180.000000       11.410503         2    ;  uncertainty k = 0.270120
         3         4         5         9     9        0.000000        1.981386         3    ;  uncertainty k = 0.458532
         3         4         5         9     9      180.000000        0.655933         4    ;  uncertainty k = 0.314260
         3        16        17        18     9        0.000000       -2.546996         1    ;  uncertainty k = 2.263476
         3        16        17        18     9      180.000000       -2.071281         2    ;  uncertainty k = 0.852216
         3        16        17        18     9        0.000000        0.377848         3    ;  uncertainty k = 0.447363
         3        16        17        18     9      180.000000        0.728091         4    ;  uncertainty k = 0.372243
         3        16        17        26     9        0.000000        1.943735         1    ;  uncertainty k = 0.725643
         3        16        17        26     9      180.000000       -1.013528         2    ;  uncertainty k = 0.770891
         3        16        17        26     9        0.000000        0.504468         3    ;  uncertainty k = 0.367188
         3        16        17        26     9      180.000000        0.022954         4    ;  uncertainty k = 0.163828
         3        16        17        27     9        0.000000        1.943735         1    ;  uncertainty k = 0.725643
         3        16        17        27     9      180.000000       -1.013528         2    ;  uncertainty k = 0.770891
         3        16        17        27     9        0.000000        0.504468         3    ;  uncertainty k = 0.367188
         3        16        17        27     9      180.000000        0.022954         4    ;  uncertainty k = 0.163828
         4         3         2         6     9        0.000000        0.750539         1    ;  uncertainty k = 1.420042
         4         3         2         6     9      180.000000        9.225337         2    ;  uncertainty k = 0.449657
         4         3         2         6     9        0.000000        2.146628         3    ;  uncertainty k = 0.096833
         4         3         2         6     9      180.000000        0.908103         4    ;  uncertainty k = 0.276689
         4         3        16        17     9        0.000000        4.003546         1    ;  uncertainty k = 2.209639
         4         3        16        17     9      180.000000        4.149396         2    ;  uncertainty k = 0.785914
         4         3        16        17     9        0.000000        0.594406         3    ;  uncertainty k = 0.772201
         4         3        16        17     9      180.000000       -0.129795         4    ;  uncertainty k = 0.090251
         4         5         9        10     9        0.000000        0.362240         1    ;  uncertainty k = 0.520737
         4         5         9        10     9      180.000000        2.902107         2    ;  uncertainty k = 0.322351
         4         5         9        10     9        0.000000        0.455562         3    ;  uncertainty k = 0.523160
         4         5         9        10     9      180.000000       -0.006696         4    ;  uncertainty k = 0.142701
         4         5         9        14     9        0.000000        0.474192         1    ;  uncertainty k = 0.538892
         4         5         9        14     9      180.000000        3.091232         2    ;  uncertainty k = 0.263903
         4         5         9        14     9        0.000000        0.476211         3    ;  uncertainty k = 0.388451
         4         5         9        14     9      180.000000       -0.026403         4    ;  uncertainty k = 0.123202
         5         1         2         6     9        0.000000        0.451497         1    ;  uncertainty k = 2.202869
         5         1         2         6     9      180.000000        8.209202         2    ;  uncertainty k = 0.569487
         5         1         2         6     9        0.000000        1.043882         3    ;  uncertainty k = 0.663821
         5         1         2         6     9      180.000000        0.550351         4    ;  uncertainty k = 0.309694
         5         4         3        16     9        0.000000        0.887263         1    ;  uncertainty k = 1.387606
         5         4         3        16     9      180.000000       11.850633         2    ;  uncertainty k = 0.768527
         5         4         3        16     9        0.000000        1.717065         3    ;  uncertainty k = 0.314044
         5         4         3        16     9      180.000000        0.438991         4    ;  uncertainty k = 0.459203
         5         9        10        11     9        0.000000        0.215607         1    ;  uncertainty k = 0.362024
         5         9        10        11     9      180.000000        8.827345         2    ;  uncertainty k = 0.586843
         5         9        10        11     9        0.000000        1.260275         3    ;  uncertainty k = 0.293531
         5         9        10        11     9      180.000000        1.574635         4    ;  uncertainty k = 0.190595
         5         9        10        22     9        0.000000       -0.115227         1    ;  uncertainty k = 0.464882
         5         9        10        22     9      180.000000        7.093629         2    ;  uncertainty k = 0.441539
         5         9        10        22     9        0.000000        0.690024         3    ;  uncertainty k = 0.252808
         5         9        10        22     9      180.000000        1.249622         4    ;  uncertainty k = 0.214596
         5         9        14        13     9        0.000000       -0.013711         1    ;  uncertainty k = 0.341900
         5         9        14        13     9      180.000000        9.014377         2    ;  uncertainty k = 0.491891
         5         9        14        13     9        0.000000        1.122843         3    ;  uncertainty k = 0.280485
         5         9        14        13     9      180.000000        1.725776         4    ;  uncertainty k = 0.162882
         5         9        14        25     9        0.000000       -0.166060         1    ;  uncertainty k = 0.572303
         5         9        14        25     9      180.000000        6.864685         2    ;  uncertainty k = 0.386597
         5         9        14        25     9        0.000000        0.755532         3    ;  uncertainty k = 0.220926
         5         9        14        25     9      180.000000        1.255293         4    ;  uncertainty k = 0.162816
         6         2         3        16     9        0.000000       -0.665249         1    ;  uncertainty k = 0.977507
         6         2         3        16     9      180.000000       11.691680         2    ;  uncertainty k = 0.581130
         6         2         3        16     9        0.000000        1.652052         3    ;  uncertainty k = 0.309495
         6         2         3        16     9      180.000000        0.410579         4    ;  uncertainty k = 0.549466
         9         5         4        15     9        0.000000        0.034093         1    ;  uncertainty k = 0.688780
         9         5         4        15     9      180.000000        8.651312         2    ;  uncertainty k = 0.563862
         9         5         4        15     9        0.000000        1.547877         3    ;  uncertainty k = 0.090441
         9         5         4        15     9      180.000000        0.838868         4    ;  uncertainty k = 0.167353
         9        10        11        12     9        0.000000       -0.071842         1    ;  uncertainty k = 0.360736
         9        10        11        12     9      180.000000        7.533853         2    ;  uncertainty k = 0.606594
         9        10        11        12     9        0.000000        0.421002         3    ;  uncertainty k = 0.315989
         9        10        11        12     9      180.000000        1.430077         4    ;  uncertainty k = 0.262768
         9        10        11        21     9        0.000000        0.209499         1    ;  uncertainty k = 0.700500
         9        10        11        21     9      180.000000        8.406651         2    ;  uncertainty k = 0.255151
         9        10        11        21     9        0.000000        0.962668         3    ;  uncertainty k = 0.220705
         9        10        11        21     9      180.000000        1.641433         4    ;  uncertainty k = 0.168358
         9        14        13        12     9        0.000000       -0.059100         1    ;  uncertainty k = 0.373334
         9        14        13        12     9      180.000000       14.591399         2    ;  uncertainty k = 0.300145
         9        14        13        12     9        0.000000       -1.016925         3    ;  uncertainty k = 0.441264
         9        14        13        12     9      180.000000        0.616972         4    ;  uncertainty k = 0.301304
         9        14        13        24     9        0.000000        0.069509         1    ;  uncertainty k = 0.069666
         9        14        13        24     9      180.000000        7.750566         2    ;  uncertainty k = 0.299283
         9        14        13        24     9        0.000000        1.326584         3    ;  uncertainty k = 0.264705
         9        14        13        24     9      180.000000        1.823340         4    ;  uncertainty k = 0.104280
        10         9        14        13     9        0.000000       -0.197535         1    ;  uncertainty k = 0.127022
        10         9        14        13     9      180.000000       11.471977         2    ;  uncertainty k = 0.264184
        10         9        14        13     9        0.000000       -0.401237         3    ;  uncertainty k = 0.260704
        10         9        14        13     9      180.000000        0.969812         4    ;  uncertainty k = 0.273511
        10         9        14        25     9        0.000000        0.153811         1    ;  uncertainty k = 0.314048
        10         9        14        25     9      180.000000        6.869062         2    ;  uncertainty k = 0.615221
        10         9        14        25     9        0.000000        1.484116         3    ;  uncertainty k = 0.212444
        10         9        14        25     9      180.000000        1.680884         4    ;  uncertainty k = 0.260225
        10        11        12        13     9        0.000000       -0.071878         1    ;  uncertainty k = 0.145735
        10        11        12        13     9      180.000000        8.032207         2    ;  uncertainty k = 0.747087
        10        11        12        13     9        0.000000        0.237819         3    ;  uncertainty k = 0.365957
        10        11        12        13     9      180.000000        1.327564         4    ;  uncertainty k = 0.350400
        10        11        12        23     9        0.000000        0.175359         1    ;  uncertainty k = 0.582057
        10        11        12        23     9      180.000000        5.828294         2    ;  uncertainty k = 0.726826
        10        11        12        23     9        0.000000        1.251467         3    ;  uncertainty k = 0.214665
        10        11        12        23     9      180.000000        1.473718         4    ;  uncertainty k = 0.156980
        10        11        21        28     9        0.000000        4.487069         1    ;  uncertainty k = 0.365319
        10        11        21        28     9      180.000000        6.505642         2    ;  uncertainty k = 0.311336
        10        11        21        28     9        0.000000        0.780805         3    ;  uncertainty k = 0.304862
        10        11        21        28     9      180.000000       -0.336039         4    ;  uncertainty k = 0.033170
        10        11        21        30     9        0.000000        3.115530         1    ;  uncertainty k = 0.630343
        10        11        21        30     9      180.000000        6.758927         2    ;  uncertainty k = 0.172056
        10        11        21        30     9        0.000000        0.560172         3    ;  uncertainty k = 0.189775
        10        11        21        30     9      180.000000        0.101861         4    ;  uncertainty k = 0.060773
        11        10         9        14     9        0.000000       -0.098583         1    ;  uncertainty k = 0.204995
        11        10         9        14     9      180.000000       11.087787         2    ;  uncertainty k = 0.278006
        11        10         9        14     9        0.000000       -0.264848         3    ;  uncertainty k = 0.252803
        11        10         9        14     9      180.000000        0.960369         4    ;  uncertainty k = 0.133735
        11        12        13        14     9        0.000000       -0.200496         1    ;  uncertainty k = 0.292372
        11        12        13        14     9      180.000000       14.214296         2    ;  uncertainty k = 0.185475
        11        12        13        14     9        0.000000       -1.006471         3    ;  uncertainty k = 0.370515
        11        12        13        14     9      180.000000        0.677614         4    ;  uncertainty k = 0.215403
        11        12        13        24     9        0.000000        0.028343         1    ;  uncertainty k = 0.284824
        11        12        13        24     9      180.000000        7.901977         2    ;  uncertainty k = 0.376733
        11        12        13        24     9        0.000000        1.197327         3    ;  uncertainty k = 0.317349
        11        12        13        24     9      180.000000        1.552316         4    ;  uncertainty k = 0.202136
        11        21        30        29     9        0.000000       -1.454820         1    ;  uncertainty k = 1.024758
        11        21        30        29     9      180.000000       -1.248039         2    ;  uncertainty k = 0.128460
        11        21        30        29     9        0.000000        0.804443         3    ;  uncertainty k = 0.217654
        11        21        30        29     9      180.000000        0.260644         4    ;  uncertainty k = 0.106434
        11        21        30        31     9        0.000000       -0.909766         1    ;  uncertainty k = 0.790087
        11        21        30        31     9      180.000000       -0.531430         2    ;  uncertainty k = 0.233950
        11        21        30        31     9        0.000000        0.946086         3    ;  uncertainty k = 0.118737
        11        21        30        31     9      180.000000        0.407716         4    ;  uncertainty k = 0.100418
        11        21        30        34     9        0.000000       -0.909767         1    ;  uncertainty k = 0.790086
        11        21        30        34     9      180.000000       -0.531430         2    ;  uncertainty k = 0.233950
        11        21        30        34     9        0.000000        0.946086         3    ;  uncertainty k = 0.118737
        11        21        30        34     9      180.000000        0.407716         4    ;  uncertainty k = 0.100418
        12        11        10        22     9        0.000000        0.216038         1    ;  uncertainty k = 0.406899
        12        11        10        22     9      180.000000        5.889997         2    ;  uncertainty k = 0.563924
        12        11        10        22     9        0.000000        1.319322         3    ;  uncertainty k = 0.230593
        12        11        10        22     9      180.000000        1.568661         4    ;  uncertainty k = 0.165405
        12        11        21        28     9        0.000000        4.489349         1    ;  uncertainty k = 0.314944
        12        11        21        28     9      180.000000        6.302793         2    ;  uncertainty k = 0.225508
        12        11        21        28     9        0.000000        0.853693         3    ;  uncertainty k = 0.204647
        12        11        21        28     9      180.000000       -0.331658         4    ;  uncertainty k = 0.063317
        12        11        21        30     9        0.000000        3.158997         1    ;  uncertainty k = 0.606202
        12        11        21        30     9      180.000000        6.613619         2    ;  uncertainty k = 0.201181
        12        11        21        30     9        0.000000        0.577204         3    ;  uncertainty k = 0.095069
        12        11        21        30     9      180.000000        0.109662         4    ;  uncertainty k = 0.080202
        12        13        14        25     9        0.000000        0.093367         1    ;  uncertainty k = 0.167862
        12        13        14        25     9      180.000000        7.776905         2    ;  uncertainty k = 0.213267
        12        13        14        25     9        0.000000        1.344671         3    ;  uncertainty k = 0.261400
        12        13        14        25     9      180.000000        1.860902         4    ;  uncertainty k = 0.146631
        13        12        11        21     9        0.000000        0.124220         1    ;  uncertainty k = 0.508615
        13        12        11        21     9      180.000000        8.410735         2    ;  uncertainty k = 0.292783
        13        12        11        21     9        0.000000        1.037792         3    ;  uncertainty k = 0.251061
        13        12        11        21     9      180.000000        1.606684         4    ;  uncertainty k = 0.095133
        14         9        10        22     9        0.000000        0.235789         1    ;  uncertainty k = 0.248429
        14         9        10        22     9      180.000000        7.167721         2    ;  uncertainty k = 0.384693
        14         9        10        22     9        0.000000        1.537134         3    ;  uncertainty k = 0.217187
        14         9        10        22     9      180.000000        1.623874         4    ;  uncertainty k = 0.216260
        14        13        12        23     9        0.000000        0.135886         1    ;  uncertainty k = 0.097744
        14        13        12        23     9      180.000000        8.093814         2    ;  uncertainty k = 0.345987
        14        13        12        23     9        0.000000        1.502224         3    ;  uncertainty k = 0.299228
        14        13        12        23     9      180.000000        1.787472         4    ;  uncertainty k = 0.119319
        15         4         3        16     9        0.000000       -0.300934         1    ;  uncertainty k = 0.650861
        15         4         3        16     9      180.000000        9.165092         2    ;  uncertainty k = 0.275746
        15         4         3        16     9        0.000000        1.456381         3    ;  uncertainty k = 0.310393
        15         4         3        16     9      180.000000        0.631618         4    ;  uncertainty k = 0.388932
        16        17        18        19     9        0.000000        1.079222         1    ;  uncertainty k = 0.841475
        16        17        18        19     9      180.000000        5.864588         2    ;  uncertainty k = 0.515928
        16        17        18        19     9        0.000000        1.140649         3    ;  uncertainty k = 0.463168
        16        17        18        19     9      180.000000        0.279519         4    ;  uncertainty k = 0.238932
        16        17        18        20     9        0.000000        1.079222         1    ;  uncertainty k = 0.841475
        16        17        18        20     9      180.000000        5.864588         2    ;  uncertainty k = 0.515928
        16        17        18        20     9        0.000000        1.140649         3    ;  uncertainty k = 0.463168
        16        17        18        20     9      180.000000        0.279519         4    ;  uncertainty k = 0.238932
        19        18        17        26     9        0.000000       -2.498422         1    ;  uncertainty k = 1.124580
        19        18        17        26     9      180.000000        1.806048         2    ;  uncertainty k = 0.648461
        19        18        17        26     9        0.000000        0.840718         3    ;  uncertainty k = 0.199496
        19        18        17        26     9      180.000000        0.238884         4    ;  uncertainty k = 0.091169
        19        18        17        27     9        0.000000       -2.498422         1    ;  uncertainty k = 1.124580
        19        18        17        27     9      180.000000        1.806048         2    ;  uncertainty k = 0.648461
        19        18        17        27     9        0.000000        0.840718         3    ;  uncertainty k = 0.199496
        19        18        17        27     9      180.000000        0.238884         4    ;  uncertainty k = 0.091169
        20        18        17        26     9        0.000000       -2.498422         1    ;  uncertainty k = 1.124580
        20        18        17        26     9      180.000000        1.806048         2    ;  uncertainty k = 0.648461
        20        18        17        26     9        0.000000        0.840718         3    ;  uncertainty k = 0.199496
        20        18        17        26     9      180.000000        0.238884         4    ;  uncertainty k = 0.091169
        20        18        17        27     9        0.000000       -2.498422         1    ;  uncertainty k = 1.124580
        20        18        17        27     9      180.000000        1.806048         2    ;  uncertainty k = 0.648461
        20        18        17        27     9        0.000000        0.840718         3    ;  uncertainty k = 0.199496
        20        18        17        27     9      180.000000        0.238884         4    ;  uncertainty k = 0.091169
        21        11        10        22     9        0.000000       -0.313148         1    ;  uncertainty k = 0.178665
        21        11        10        22     9      180.000000        7.363870         2    ;  uncertainty k = 0.444909
        21        11        10        22     9        0.000000        0.911403         3    ;  uncertainty k = 0.203230
        21        11        10        22     9      180.000000        1.105668         4    ;  uncertainty k = 0.213694
        21        11        12        23     9        0.000000       -0.204036         1    ;  uncertainty k = 0.278666
        21        11        12        23     9      180.000000        7.327102         2    ;  uncertainty k = 0.337954
        21        11        12        23     9        0.000000        0.954092         3    ;  uncertainty k = 0.263660
        21        11        12        23     9      180.000000        1.064323         4    ;  uncertainty k = 0.180515
        21        30        31        32     9        0.000000       -3.006137         1    ;  uncertainty k = 1.305388
        21        30        31        32     9      180.000000        0.274635         2    ;  uncertainty k = 0.591025
        21        30        31        32     9        0.000000        1.454462         3    ;  uncertainty k = 0.170978
        21        30        31        32     9      180.000000       -0.151166         4    ;  uncertainty k = 0.270934
        21        30        31        35     9        0.000000       -0.174637         1    ;  uncertainty k = 0.449780
        21        30        31        35     9      180.000000       -0.098078         2    ;  uncertainty k = 0.065049
        21        30        31        35     9        0.000000        1.388796         3    ;  uncertainty k = 0.234830
        21        30        31        35     9      180.000000        0.025697         4    ;  uncertainty k = 0.178477
        21        30        31        36     9        0.000000       -0.174637         1    ;  uncertainty k = 0.449780
        21        30        31        36     9      180.000000       -0.098078         2    ;  uncertainty k = 0.065049
        21        30        31        36     9        0.000000        1.388796         3    ;  uncertainty k = 0.234830
        21        30        31        36     9      180.000000        0.025697         4    ;  uncertainty k = 0.178477
        21        30        34        33     9        0.000000       -3.006138         1    ;  uncertainty k = 1.305387
        21        30        34        33     9      180.000000        0.274635         2    ;  uncertainty k = 0.591025
        21        30        34        33     9        0.000000        1.454462         3    ;  uncertainty k = 0.170978
        21        30        34        33     9      180.000000       -0.151166         4    ;  uncertainty k = 0.270934
        21        30        34        41     9        0.000000       -0.174636         1    ;  uncertainty k = 0.449780
        21        30        34        41     9      180.000000       -0.098077         2    ;  uncertainty k = 0.065049
        21        30        34        41     9        0.000000        1.388796         3    ;  uncertainty k = 0.234830
        21        30        34        41     9      180.000000        0.025697         4    ;  uncertainty k = 0.178477
        21        30        34        42     9        0.000000       -0.174636         1    ;  uncertainty k = 0.449780
        21        30        34        42     9      180.000000       -0.098077         2    ;  uncertainty k = 0.065049
        21        30        34        42     9        0.000000        1.388796         3    ;  uncertainty k = 0.234830
        21        30        34        42     9      180.000000        0.025697         4    ;  uncertainty k = 0.178477
        23        12        13        24     9        0.000000       -0.022023         1    ;  uncertainty k = 0.250459
        23        12        13        24     9      180.000000        7.629814         2    ;  uncertainty k = 0.350864
        23        12        13        24     9        0.000000       -0.384842         3    ;  uncertainty k = 0.261339
        23        12        13        24     9      180.000000        0.181664         4    ;  uncertainty k = 0.149583
        24        13        14        25     9        0.000000       -0.050276         1    ;  uncertainty k = 0.284721
        24        13        14        25     9      180.000000        7.668130         2    ;  uncertainty k = 0.364563
        24        13        14        25     9        0.000000       -0.453672         3    ;  uncertainty k = 0.297150
        24        13        14        25     9      180.000000        0.119261         4    ;  uncertainty k = 0.129266
        28        21        30        29     9        0.000000        1.333834         1    ;  uncertainty k = 0.678064
        28        21        30        29     9      180.000000       -2.997681         2    ;  uncertainty k = 0.382352
        28        21        30        29     9        0.000000       -0.082941         3    ;  uncertainty k = 0.203137
        28        21        30        29     9      180.000000        0.119582         4    ;  uncertainty k = 0.077397
        28        21        30        31     9        0.000000        3.798978         1    ;  uncertainty k = 0.562659
        28        21        30        31     9      180.000000       -2.106861         2    ;  uncertainty k = 0.285014
        28        21        30        31     9        0.000000        0.304140         3    ;  uncertainty k = 0.098200
        28        21        30        31     9      180.000000        0.063641         4    ;  uncertainty k = 0.087284
        28        21        30        34     9        0.000000        3.798977         1    ;  uncertainty k = 0.562658
        28        21        30        34     9      180.000000       -2.106861         2    ;  uncertainty k = 0.285014
        28        21        30        34     9        0.000000        0.304140         3    ;  uncertainty k = 0.098200
        28        21        30        34     9      180.000000        0.063641         4    ;  uncertainty k = 0.087284
        29        30        31        32     9        0.000000       -1.906840         1    ;  uncertainty k = 0.540357
        29        30        31        32     9      180.000000        0.771228         2    ;  uncertainty k = 0.152025
        29        30        31        32     9        0.000000        0.657299         3    ;  uncertainty k = 0.194437
        29        30        31        32     9      180.000000        0.007901         4    ;  uncertainty k = 0.048442
        29        30        31        35     9        0.000000        1.171900         1    ;  uncertainty k = 0.357319
        29        30        31        35     9      180.000000       -0.700403         2    ;  uncertainty k = 0.191916
        29        30        31        35     9        0.000000        0.621925         3    ;  uncertainty k = 0.024852
        29        30        31        35     9      180.000000        0.106405         4    ;  uncertainty k = 0.033651
        29        30        31        36     9        0.000000        1.171900         1    ;  uncertainty k = 0.357319
        29        30        31        36     9      180.000000       -0.700403         2    ;  uncertainty k = 0.191916
        29        30        31        36     9        0.000000        0.621925         3    ;  uncertainty k = 0.024852
        29        30        31        36     9      180.000000        0.106405         4    ;  uncertainty k = 0.033651
        29        30        34        33     9        0.000000       -1.906840         1    ;  uncertainty k = 0.540357
        29        30        34        33     9      180.000000        0.771228         2    ;  uncertainty k = 0.152025
        29        30        34        33     9        0.000000        0.657298         3    ;  uncertainty k = 0.194437
        29        30        34        33     9      180.000000        0.007901         4    ;  uncertainty k = 0.048442
        29        30        34        41     9        0.000000        1.171901         1    ;  uncertainty k = 0.357319
        29        30        34        41     9      180.000000       -0.700403         2    ;  uncertainty k = 0.191917
        29        30        34        41     9        0.000000        0.621924         3    ;  uncertainty k = 0.024852
        29        30        34        41     9      180.000000        0.106405         4    ;  uncertainty k = 0.033651
        29        30        34        42     9        0.000000        1.171901         1    ;  uncertainty k = 0.357319
        29        30        34        42     9      180.000000       -0.700403         2    ;  uncertainty k = 0.191917
        29        30        34        42     9        0.000000        0.621924         3    ;  uncertainty k = 0.024852
        29        30        34        42     9      180.000000        0.106405         4    ;  uncertainty k = 0.033651
        30        31        32        33     9        0.000000       -2.196221         1    ;  uncertainty k = 1.587204
        30        31        32        33     9      180.000000        6.731920         2    ;  uncertainty k = 0.434446
        30        31        32        33     9        0.000000        0.270247         3    ;  uncertainty k = 0.434842
        30        31        32        33     9      180.000000       -2.129615         4    ;  uncertainty k = 0.094158
        30        31        32        37     9        0.000000       -1.030204         1    ;  uncertainty k = 0.663721
        30        31        32        37     9      180.000000       -0.408507         2    ;  uncertainty k = 0.215049
        30        31        32        37     9        0.000000        0.656921         3    ;  uncertainty k = 0.188538
        30        31        32        37     9      180.000000        0.232516         4    ;  uncertainty k = 0.067925
        30        31        32        38     9        0.000000       -1.030204         1    ;  uncertainty k = 0.663721
        30        31        32        38     9      180.000000       -0.408507         2    ;  uncertainty k = 0.215049
        30        31        32        38     9        0.000000        0.656921         3    ;  uncertainty k = 0.188538
        30        31        32        38     9      180.000000        0.232516         4    ;  uncertainty k = 0.067925
        30        34        33        32     9        0.000000       -2.196221         1    ;  uncertainty k = 1.587203
        30        34        33        32     9      180.000000        6.731920         2    ;  uncertainty k = 0.434445
        30        34        33        32     9        0.000000        0.270247         3    ;  uncertainty k = 0.434842
        30        34        33        32     9      180.000000       -2.129615         4    ;  uncertainty k = 0.094157
        30        34        33        39     9        0.000000       -1.030204         1    ;  uncertainty k = 0.663721
        30        34        33        39     9      180.000000       -0.408507         2    ;  uncertainty k = 0.215049
        30        34        33        39     9        0.000000        0.656921         3    ;  uncertainty k = 0.188538
        30        34        33        39     9      180.000000        0.232516         4    ;  uncertainty k = 0.067925
        30        34        33        40     9        0.000000       -1.030204         1    ;  uncertainty k = 0.663721
        30        34        33        40     9      180.000000       -0.408507         2    ;  uncertainty k = 0.215049
        30        34        33        40     9        0.000000        0.656921         3    ;  uncertainty k = 0.188538
        30        34        33        40     9      180.000000        0.232516         4    ;  uncertainty k = 0.067925
        31        30        34        33     9        0.000000       -2.664605         1    ;  uncertainty k = 1.294661
        31        30        34        33     9      180.000000        4.880649         2    ;  uncertainty k = 0.508968
        31        30        34        33     9        0.000000        0.252991         3    ;  uncertainty k = 0.362414
        31        30        34        33     9      180.000000       -1.248288         4    ;  uncertainty k = 0.171419
        31        30        34        41     9        0.000000       -1.467335         1    ;  uncertainty k = 0.564106
        31        30        34        41     9      180.000000       -0.083247         2    ;  uncertainty k = 0.242020
        31        30        34        41     9        0.000000        0.512541         3    ;  uncertainty k = 0.140026
        31        30        34        41     9      180.000000        0.110338         4    ;  uncertainty k = 0.085429
        31        30        34        42     9        0.000000       -1.467335         1    ;  uncertainty k = 0.564106
        31        30        34        42     9      180.000000       -0.083247         2    ;  uncertainty k = 0.242020
        31        30        34        42     9        0.000000        0.512541         3    ;  uncertainty k = 0.140026
        31        30        34        42     9      180.000000        0.110338         4    ;  uncertainty k = 0.085429
        31        32        33        34     9        0.000000       -3.280749         1    ;  uncertainty k = 1.682894
        31        32        33        34     9      180.000000        4.826212         2    ;  uncertainty k = 0.334366
        31        32        33        34     9        0.000000        0.492781         3    ;  uncertainty k = 0.440492
        31        32        33        34     9      180.000000       -1.888656         4    ;  uncertainty k = 0.097148
        31        32        33        39     9        0.000000       -1.733423         1    ;  uncertainty k = 0.499960
        31        32        33        39     9      180.000000       -0.114805         2    ;  uncertainty k = 0.152197
        31        32        33        39     9        0.000000        0.892075         3    ;  uncertainty k = 0.174474
        31        32        33        39     9      180.000000        0.178674         4    ;  uncertainty k = 0.089889
        31        32        33        40     9        0.000000       -1.733423         1    ;  uncertainty k = 0.499960
        31        32        33        40     9      180.000000       -0.114805         2    ;  uncertainty k = 0.152197
        31        32        33        40     9        0.000000        0.892075         3    ;  uncertainty k = 0.174474
        31        32        33        40     9      180.000000        0.178674         4    ;  uncertainty k = 0.089889
        32        31        30        34     9        0.000000       -2.664605         1    ;  uncertainty k = 1.294660
        32        31        30        34     9      180.000000        4.880649         2    ;  uncertainty k = 0.508968
        32        31        30        34     9        0.000000        0.252990         3    ;  uncertainty k = 0.362414
        32        31        30        34     9      180.000000       -1.248288         4    ;  uncertainty k = 0.171420
        32        33        34        41     9        0.000000       -1.726246         1    ;  uncertainty k = 0.565918
        32        33        34        41     9      180.000000       -0.100677         2    ;  uncertainty k = 0.167783
        32        33        34        41     9        0.000000        0.913602         3    ;  uncertainty k = 0.193065
        32        33        34        41     9      180.000000        0.197027         4    ;  uncertainty k = 0.115867
        32        33        34        42     9        0.000000       -1.726246         1    ;  uncertainty k = 0.565918
        32        33        34        42     9      180.000000       -0.100677         2    ;  uncertainty k = 0.167783
        32        33        34        42     9        0.000000        0.913602         3    ;  uncertainty k = 0.193065
        32        33        34        42     9      180.000000        0.197027         4    ;  uncertainty k = 0.115867
        33        32        31        35     9        0.000000       -1.726245         1    ;  uncertainty k = 0.565918
        33        32        31        35     9      180.000000       -0.100677         2    ;  uncertainty k = 0.167783
        33        32        31        35     9        0.000000        0.913602         3    ;  uncertainty k = 0.193065
        33        32        31        35     9      180.000000        0.197027         4    ;  uncertainty k = 0.115867
        33        32        31        36     9        0.000000       -1.726245         1    ;  uncertainty k = 0.565918
        33        32        31        36     9      180.000000       -0.100677         2    ;  uncertainty k = 0.167783
        33        32        31        36     9        0.000000        0.913602         3    ;  uncertainty k = 0.193065
        33        32        31        36     9      180.000000        0.197027         4    ;  uncertainty k = 0.115867
        34        30        31        35     9        0.000000       -1.467335         1    ;  uncertainty k = 0.564105
        34        30        31        35     9      180.000000       -0.083247         2    ;  uncertainty k = 0.242021
        34        30        31        35     9        0.000000        0.512541         3    ;  uncertainty k = 0.140026
        34        30        31        35     9      180.000000        0.110338         4    ;  uncertainty k = 0.085429
        34        30        31        36     9        0.000000       -1.467335         1    ;  uncertainty k = 0.564105
        34        30        31        36     9      180.000000       -0.083247         2    ;  uncertainty k = 0.242021
        34        30        31        36     9        0.000000        0.512541         3    ;  uncertainty k = 0.140026
        34        30        31        36     9      180.000000        0.110338         4    ;  uncertainty k = 0.085429
        34        33        32        37     9        0.000000       -1.733423         1    ;  uncertainty k = 0.499960
        34        33        32        37     9      180.000000       -0.114806         2    ;  uncertainty k = 0.152197
        34        33        32        37     9        0.000000        0.892075         3    ;  uncertainty k = 0.174474
        34        33        32        37     9      180.000000        0.178674         4    ;  uncertainty k = 0.089889
        34        33        32        38     9        0.000000       -1.733423         1    ;  uncertainty k = 0.499960
        34        33        32        38     9      180.000000       -0.114806         2    ;  uncertainty k = 0.152197
        34        33        32        38     9        0.000000        0.892075         3    ;  uncertainty k = 0.174474
        34        33        32        38     9      180.000000        0.178674         4    ;  uncertainty k = 0.089889
        35        31        32        37     9        0.000000        1.689332         1    ;  uncertainty k = 0.487311
        35        31        32        37     9      180.000000       -0.131347         2    ;  uncertainty k = 0.081103
        35        31        32        37     9        0.000000        0.875532         3    ;  uncertainty k = 0.088998
        35        31        32        37     9      180.000000        0.081027         4    ;  uncertainty k = 0.022156
        35        31        32        38     9        0.000000        1.689332         1    ;  uncertainty k = 0.487311
        35        31        32        38     9      180.000000       -0.131347         2    ;  uncertainty k = 0.081103
        35        31        32        38     9        0.000000        0.875532         3    ;  uncertainty k = 0.088998
        35        31        32        38     9      180.000000        0.081027         4    ;  uncertainty k = 0.022156
        36        31        32        37     9        0.000000        1.689332         1    ;  uncertainty k = 0.487311
        36        31        32        37     9      180.000000       -0.131347         2    ;  uncertainty k = 0.081103
        36        31        32        37     9        0.000000        0.875532         3    ;  uncertainty k = 0.088998
        36        31        32        37     9      180.000000        0.081027         4    ;  uncertainty k = 0.022156
        36        31        32        38     9        0.000000        1.689332         1    ;  uncertainty k = 0.487311
        36        31        32        38     9      180.000000       -0.131347         2    ;  uncertainty k = 0.081103
        36        31        32        38     9        0.000000        0.875532         3    ;  uncertainty k = 0.088998
        36        31        32        38     9      180.000000        0.081027         4    ;  uncertainty k = 0.022156
        37        32        33        39     9        0.000000        1.582041         1    ;  uncertainty k = 0.414585
        37        32        33        39     9      180.000000       -0.098688         2    ;  uncertainty k = 0.129340
        37        32        33        39     9        0.000000        0.858874         3    ;  uncertainty k = 0.109066
        37        32        33        39     9      180.000000        0.078751         4    ;  uncertainty k = 0.039253
        37        32        33        40     9        0.000000        1.582041         1    ;  uncertainty k = 0.414585
        37        32        33        40     9      180.000000       -0.098688         2    ;  uncertainty k = 0.129340
        37        32        33        40     9        0.000000        0.858874         3    ;  uncertainty k = 0.109066
        37        32        33        40     9      180.000000        0.078751         4    ;  uncertainty k = 0.039253
        38        32        33        39     9        0.000000        1.582041         1    ;  uncertainty k = 0.414585
        38        32        33        39     9      180.000000       -0.098688         2    ;  uncertainty k = 0.129340
        38        32        33        39     9        0.000000        0.858874         3    ;  uncertainty k = 0.109066
        38        32        33        39     9      180.000000        0.078751         4    ;  uncertainty k = 0.039253
        38        32        33        40     9        0.000000        1.582041         1    ;  uncertainty k = 0.414585
        38        32        33        40     9      180.000000       -0.098688         2    ;  uncertainty k = 0.129340
        38        32        33        40     9        0.000000        0.858874         3    ;  uncertainty k = 0.109066
        38        32        33        40     9      180.000000        0.078751         4    ;  uncertainty k = 0.039253
        39        33        34        41     9        0.000000        1.689332         1    ;  uncertainty k = 0.487311
        39        33        34        41     9      180.000000       -0.131347         2    ;  uncertainty k = 0.081102
        39        33        34        41     9        0.000000        0.875532         3    ;  uncertainty k = 0.088998
        39        33        34        41     9      180.000000        0.081027         4    ;  uncertainty k = 0.022156
        39        33        34        42     9        0.000000        1.689332         1    ;  uncertainty k = 0.487311
        39        33        34        42     9      180.000000       -0.131347         2    ;  uncertainty k = 0.081102
        39        33        34        42     9        0.000000        0.875532         3    ;  uncertainty k = 0.088998
        39        33        34        42     9      180.000000        0.081027         4    ;  uncertainty k = 0.022156
        40        33        34        41     9        0.000000        1.689332         1    ;  uncertainty k = 0.487310
        40        33        34        41     9      180.000000       -0.131347         2    ;  uncertainty k = 0.081102
        40        33        34        41     9        0.000000        0.875532         3    ;  uncertainty k = 0.088998
        40        33        34        41     9      180.000000        0.081027         4    ;  uncertainty k = 0.022156
        40        33        34        42     9        0.000000        1.689332         1    ;  uncertainty k = 0.487310
        40        33        34        42     9      180.000000       -0.131347         2    ;  uncertainty k = 0.081102
        40        33        34        42     9        0.000000        0.875532         3    ;  uncertainty k = 0.088998
        40        33        34        42     9      180.000000        0.081027         4    ;  uncertainty k = 0.022156

[ dihedrals ] ; impropers
;       ai        aj        ak        al funct           phase               k        pn
         2         1         3         6     4      180.000000        2.833395         2    ;  uncertainty k = 1.376267
         2         3         6         1     4      180.000000        2.833395         2    ;  uncertainty k = 1.376267
         2         6         1         3     4      180.000000        2.833395         2    ;  uncertainty k = 1.376267
         3         2         4        16     4      180.000000        5.361893         2    ;  uncertainty k = 0.990709
         3         4        16         2     4      180.000000        5.361893         2    ;  uncertainty k = 0.990709
         3        16         2         4     4      180.000000        5.361893         2    ;  uncertainty k = 0.990709
         4         3         5        15     4      180.000000        2.498686         2    ;  uncertainty k = 0.371762
         4         5        15         3     4      180.000000        2.498686         2    ;  uncertainty k = 0.371762
         4        15         3         5     4      180.000000        2.498686         2    ;  uncertainty k = 0.371762
         5         1         4         9     4      180.000000        5.470820         2    ;  uncertainty k = 0.356106
         5         4         9         1     4      180.000000        5.470820         2    ;  uncertainty k = 0.356106
         5         9         1         4     4      180.000000        5.470820         2    ;  uncertainty k = 0.356106
         6         2         7         8     4      180.000000       66.076957         2    ;  uncertainty k = 0.057409
         6         7         8         2     4      180.000000       66.076957         2    ;  uncertainty k = 0.057409
         6         8         2         7     4      180.000000       66.076957         2    ;  uncertainty k = 0.057409
         9         5        10        14     4      180.000000       14.786530         2    ;  uncertainty k = 0.086186
         9        10        14         5     4      180.000000       14.786530         2    ;  uncertainty k = 0.086186
         9        14         5        10     4      180.000000       14.786530         2    ;  uncertainty k = 0.086186
        10         9        11        22     4      180.000000        2.213770         2    ;  uncertainty k = 0.389566
        10        11        22         9     4      180.000000        2.213770         2    ;  uncertainty k = 0.389566
        10        22         9        11     4      180.000000        2.213770         2    ;  uncertainty k = 0.389566
        11        10        12        21     4      180.000000       20.705127         2    ;  uncertainty k = 0.080388
        11        12        21        10     4      180.000000       20.705127         2    ;  uncertainty k = 0.080388
        11        21        10        12     4      180.000000       20.705127         2    ;  uncertainty k = 0.080388
        12        11        13        23     4      180.000000        2.361096         2    ;  uncertainty k = 0.295560
        12        13        23        11     4      180.000000        2.361096         2    ;  uncertainty k = 0.295560
        12        23        11        13     4      180.000000        2.361096         2    ;  uncertainty k = 0.295560
        13        12        14        24     4      180.000000        4.271036         2    ;  uncertainty k = 0.169331
        13        14        24        12     4      180.000000        4.271036         2    ;  uncertainty k = 0.169331
        13        24        12        14     4      180.000000        4.271036         2    ;  uncertainty k = 0.169331
        14         9        13        25     4      180.000000        3.322669         2    ;  uncertainty k = 0.203472
        14        13        25         9     4      180.000000        3.322669         2    ;  uncertainty k = 0.203472
        14        25         9        13     4      180.000000        3.322669         2    ;  uncertainty k = 0.203472
        18        17        19        20     4      180.000000       68.314311         2    ;  uncertainty k = 0.022612
        18        19        20        17     4      180.000000       68.314311         2    ;  uncertainty k = 0.022612
        18        20        17        19     4      180.000000       68.314311         2    ;  uncertainty k = 0.022612

[ pairs ]
;       ai        aj funct
         1         7     1
         1         8     1
         1        10     1
         1        14     1
         1        15     1
         1        16     1
         2         9     1
         2        15     1
         2        17     1
         3         7     1
         3         8     1
         3         9     1
         3        18     1
         3        26     1
         3        27     1
         4         6     1
         4        10     1
         4        14     1
         4        17     1
         5         6     1
         5        11     1
         5        13     1
         5        16     1
         5        22     1
         5        25     1
         6        16     1
         9        12     1
         9        15     1
         9        21     1
         9        24     1
        10        13     1
        10        23     1
        10        25     1
        10        28     1
        10        30     1
        11        14     1
        11        24     1
        11        29     1
        11        31     1
        11        34     1
        12        22     1
        12        25     1
        12        28     1
        12        30     1
        13        21     1
        14        22     1
        14        23     1
        15        16     1
        16        19     1
        16        20     1
        19        26     1
        19        27     1
        20        26     1
        20        27     1
        21        22     1
        21        23     1
        21        32     1
        21        33     1
        21        35     1
        21        36     1
        21        41     1
        21        42     1
        23        24     1
        24        25     1
        28        29     1
        28        31     1
        28        34     1
        29        32     1
        29        33     1
        29        35     1
        29        36     1
        29        41     1
        29        42     1
        30        37     1
        30        38     1
        30        39     1
        30        40     1
        31        39     1
        31        40     1
        31        41     1
        31        42     1
        32        41     1
        32        42     1
        33        35     1
        33        36     1
        34        35     1
        34        36     1
        34        37     1
        34        38     1
        35        37     1
        35        38     1
        36        37     1
        36        38     1
        37        39     1
        37        40     1
        38        39     1
        38        40     1
        39        41     1
        39        42     1
        40        41     1
        40        42     1
