; ITP file created by ByteFF-joint-25, 2026-02-17 09:29:32.800090

[ atomtypes ]
;name           bonded.type        at.num        mass        charge   ptype           sigma         epsilon
 s0bf                                  16      0.0000       0.00000       A     3.53165e-01     1.18204e+00    ;  uncertainty sigma = 0.000053, epsilon = 0.003055
 c1bf                                   6      0.0000       0.00000       A     3.31495e-01     4.13373e-01    ;  uncertainty sigma = 0.000032, epsilon = 0.002340
 c2bf                                   6      0.0000       0.00000       A     3.31500e-01     4.12069e-01    ;  uncertainty sigma = 0.000033, epsilon = 0.001338
 c3bf                                   6      0.0000       0.00000       A     3.31511e-01     4.13455e-01    ;  uncertainty sigma = 0.000012, epsilon = 0.000975
 c4bf                                   6      0.0000       0.00000       A     3.31514e-01     4.13061e-01    ;  uncertainty sigma = 0.000022, epsilon = 0.000877
 c5bf                                   6      0.0000       0.00000       A     3.31529e-01     4.13194e-01    ;  uncertainty sigma = 0.000055, epsilon = 0.002345
 o6bf                                   8      0.0000       0.00000       A     3.04804e-01     6.11836e-01    ;  uncertainty sigma = 0.000044, epsilon = 0.001672
 o7bf                                   8      0.0000       0.00000       A     3.04804e-01     6.11836e-01    ;  uncertainty sigma = 0.000044, epsilon = 0.001672
 c8bf                                   6      0.0000       0.00000       A     3.31502e-01     4.12993e-01    ;  uncertainty sigma = 0.000011, epsilon = 0.000429
 c9bf                                   6      0.0000       0.00000       A     3.31524e-01     4.13376e-01    ;  uncertainty sigma = 0.000005, epsilon = 0.000868
 c10bf                                  6      0.0000       0.00000       A     3.31507e-01     4.13225e-01    ;  uncertainty sigma = 0.000013, epsilon = 0.000870
 c11bf                                  6      0.0000       0.00000       A     3.31521e-01     4.13203e-01    ;  uncertainty sigma = 0.000002, epsilon = 0.000548
 c12bf                                  6      0.0000       0.00000       A     3.31522e-01     4.13513e-01    ;  uncertainty sigma = 0.000003, epsilon = 0.000666
 c13bf                                  6      0.0000       0.00000       A     3.31520e-01     4.13276e-01    ;  uncertainty sigma = 0.000003, epsilon = 0.000632
 br14bf                                35      0.0000       0.00000       A     3.61258e-01     1.64394e+00    ;  uncertainty sigma = 0.000027, epsilon = 0.006365
 o15bf                                  8      0.0000       0.00000       A     3.15802e-01     3.03913e-01    ;  uncertainty sigma = 0.000078, epsilon = 0.010291
 c16bf                                  6      0.0000       0.00000       A     3.39717e-01     4.50736e-01    ;  uncertainty sigma = 0.000028, epsilon = 0.002811
 c17bf                                  6      0.0000       0.00000       A     3.31523e-01     4.12941e-01    ;  uncertainty sigma = 0.000026, epsilon = 0.002863
 o18bf                                  8      0.0000       0.00000       A     3.04805e-01     6.12312e-01    ;  uncertainty sigma = 0.000022, epsilon = 0.002455
 o19bf                                  8      0.0000       0.00000       A     3.04805e-01     6.12312e-01    ;  uncertainty sigma = 0.000022, epsilon = 0.002455
 n20bf                                  7      0.0000       0.00000       A     3.27937e-01     6.44760e-01    ;  uncertainty sigma = 0.000035, epsilon = 0.001051
 c21bf                                  6      0.0000       0.00000       A     3.39795e-01     4.51339e-01    ;  uncertainty sigma = 0.000009, epsilon = 0.000809
 c22bf                                  6      0.0000       0.00000       A     3.39788e-01     4.51043e-01    ;  uncertainty sigma = 0.000008, epsilon = 0.000707
 c23bf                                  6      0.0000       0.00000       A     3.39778e-01     4.50893e-01    ;  uncertainty sigma = 0.000003, epsilon = 0.000829
 o24bf                                  8      0.0000       0.00000       A     3.15613e-01     3.03556e-01    ;  uncertainty sigma = 0.000019, epsilon = 0.001085
 c25bf                                  6      0.0000       0.00000       A     3.39778e-01     4.50893e-01    ;  uncertainty sigma = 0.000003, epsilon = 0.000829
 c26bf                                  6      0.0000       0.00000       A     3.39788e-01     4.51043e-01    ;  uncertainty sigma = 0.000008, epsilon = 0.000707
 h27bf                                  1      0.0000       0.00000       A     2.62548e-01     6.70805e-02    ;  uncertainty sigma = 0.000012, epsilon = 0.000580
 h28bf                                  1      0.0000       0.00000       A     2.62556e-01     6.70450e-02    ;  uncertainty sigma = 0.000012, epsilon = 0.000463
 h29bf                                  1      0.0000       0.00000       A     2.62563e-01     6.69897e-02    ;  uncertainty sigma = 0.000012, epsilon = 0.000446
 h30bf                                  1      0.0000       0.00000       A     2.62561e-01     6.70429e-02    ;  uncertainty sigma = 0.000012, epsilon = 0.000452
 h31bf                                  1      0.0000       0.00000       A     2.42291e-01     8.67021e-02    ;  uncertainty sigma = 0.000194, epsilon = 0.000950
 h32bf                                  1      0.0000       0.00000       A     2.42291e-01     8.67021e-02    ;  uncertainty sigma = 0.000194, epsilon = 0.000950
 h33bf                                  1      0.0000       0.00000       A     1.10678e-01     4.13568e-02    ;  uncertainty sigma = 0.000090, epsilon = 0.000744
 h34bf                                  1      0.0000       0.00000       A     2.42237e-01     8.69098e-02    ;  uncertainty sigma = 0.000025, epsilon = 0.000564
 h35bf                                  1      0.0000       0.00000       A     2.60021e-01     8.67662e-02    ;  uncertainty sigma = 0.000009, epsilon = 0.000445
 h36bf                                  1      0.0000       0.00000       A     2.60021e-01     8.67662e-02    ;  uncertainty sigma = 0.000009, epsilon = 0.000445
 h37bf                                  1      0.0000       0.00000       A     2.42188e-01     8.67184e-02    ;  uncertainty sigma = 0.000018, epsilon = 0.000739
 h38bf                                  1      0.0000       0.00000       A     2.42188e-01     8.67184e-02    ;  uncertainty sigma = 0.000018, epsilon = 0.000739
 h39bf                                  1      0.0000       0.00000       A     2.42188e-01     8.67184e-02    ;  uncertainty sigma = 0.000018, epsilon = 0.000739
 h40bf                                  1      0.0000       0.00000       A     2.42188e-01     8.67182e-02    ;  uncertainty sigma = 0.000018, epsilon = 0.000739
 h41bf                                  1      0.0000       0.00000       A     2.60021e-01     8.67664e-02    ;  uncertainty sigma = 0.000009, epsilon = 0.000445
 h42bf                                  1      0.0000       0.00000       A     2.60021e-01     8.67665e-02    ;  uncertainty sigma = 0.000009, epsilon = 0.000445

[ moleculetype ]
;name             nrexcl
 MOL                   3

[ atoms ]
;       nr            type      resi   res      atom      cgnr      charge          mass ; qtot
         1            s0bf         1   UNL        s0         1    -0.06026       32.0670 ; qtot   -0.060
         2            c1bf         1   UNL        c1         2    -0.15250       12.0110 ; qtot   -0.213
         3            c2bf         1   UNL        c2         3     0.12085       12.0110 ; qtot   -0.092
         4            c3bf         1   UNL        c3         4    -0.04845       12.0110 ; qtot   -0.140
         5            c4bf         1   UNL        c4         5    -0.04862       12.0110 ; qtot   -0.189
         6            c5bf         1   UNL        c5         6     0.93104       12.0110 ; qtot    0.742
         7            o6bf         1   UNL        o6         7    -0.81786       15.9990 ; qtot   -0.076
         8            o7bf         1   UNL        o7         8    -0.81786       15.9990 ; qtot   -0.894
         9            c8bf         1   UNL        c8         9     0.02218       12.0110 ; qtot   -0.871
        10            c9bf         1   UNL        c9        10    -0.18104       12.0110 ; qtot   -1.053
        11           c10bf         1   UNL       c10        11     0.16118       12.0110 ; qtot   -0.891
        12           c11bf         1   UNL       c11        12    -0.19079       12.0110 ; qtot   -1.082
        13           c12bf         1   UNL       c12        13    -0.09078       12.0110 ; qtot   -1.173
        14           c13bf         1   UNL       c13        14    -0.13415       12.0110 ; qtot   -1.307
        15          br14bf         1   UNL      br14        15    -0.09860       79.9040 ; qtot   -1.406
        16           o15bf         1   UNL       o15        16    -0.32674       15.9990 ; qtot   -1.732
        17           c16bf         1   UNL       c16        17    -0.04389       12.0110 ; qtot   -1.776
        18           c17bf         1   UNL       c17        18     0.91650       12.0110 ; qtot   -0.860
        19           o18bf         1   UNL       o18        19    -0.83281       15.9990 ; qtot   -1.693
        20           o19bf         1   UNL       o19        20    -0.83281       15.9990 ; qtot   -2.525
        21           n20bf         1   UNL       n20        21    -0.74913       14.0070 ; qtot   -3.275
        22           c21bf         1   UNL       c21        22     0.20873       12.0110 ; qtot   -3.066
        23           c22bf         1   UNL       c22        23    -0.12652       12.0110 ; qtot   -3.192
        24           c23bf         1   UNL       c23        24     0.13168       12.0110 ; qtot   -3.061
        25           o24bf         1   UNL       o24        25    -0.41527       15.9990 ; qtot   -3.476
        26           c25bf         1   UNL       c25        26     0.13168       12.0110 ; qtot   -3.344
        27           c26bf         1   UNL       c26        27    -0.12652       12.0110 ; qtot   -3.471
        28           h27bf         1   UNL       h27        28     0.13981        1.0080 ; qtot   -3.331
        29           h28bf         1   UNL       h28        29     0.13179        1.0080 ; qtot   -3.199
        30           h29bf         1   UNL       h29        30     0.13626        1.0080 ; qtot   -3.063
        31           h30bf         1   UNL       h30        31     0.14276        1.0080 ; qtot   -2.920
        32           h31bf         1   UNL       h31        32     0.02291        1.0080 ; qtot   -2.897
        33           h32bf         1   UNL       h32        33     0.02291        1.0080 ; qtot   -2.874
        34           h33bf         1   UNL       h33        34     0.40001        1.0080 ; qtot   -2.474
        35           h34bf         1   UNL       h34        35     0.05972        1.0080 ; qtot   -2.415
        36           h35bf         1   UNL       h35        36     0.05710        1.0080 ; qtot   -2.357
        37           h36bf         1   UNL       h36        37     0.05710        1.0080 ; qtot   -2.300
        38           h37bf         1   UNL       h37        38     0.04655        1.0080 ; qtot   -2.254
        39           h38bf         1   UNL       h38        39     0.04655        1.0080 ; qtot   -2.207
        40           h39bf         1   UNL       h39        40     0.04655        1.0080 ; qtot   -2.161
        41           h40bf         1   UNL       h40        41     0.04655        1.0080 ; qtot   -2.114
        42           h41bf         1   UNL       h41        42     0.05710        1.0080 ; qtot   -2.057
        43           h42bf         1   UNL       h42        43     0.05709        1.0080 ; qtot   -2.000

[ bonds ]
;       ai        aj funct               r               k
         1         2     1        0.174192   168649.560181    ;  uncertainty r = 0.000346, k = 32.148596
         1         5     1        0.174357   166232.447241    ;  uncertainty r = 0.000237, k = 14.888510
         2         3     1        0.138080   385642.911377    ;  uncertainty r = 0.000134, k = 36.968685
         2         6     1        0.154055   191773.233960    ;  uncertainty r = 0.000283, k = 45.899503
         3         4     1        0.143810   249799.356152    ;  uncertainty r = 0.000373, k = 34.755195
         3        16     1        0.136007   307552.652637    ;  uncertainty r = 0.000403, k = 36.149075
         4         5     1        0.137757   380537.379248    ;  uncertainty r = 0.000227, k = 7.612841
         4        15     1        0.190420   156686.726831    ;  uncertainty r = 0.000144, k = 29.636935
         5         9     1        0.146498   276255.265186    ;  uncertainty r = 0.000143, k = 7.998639
         6         7     1        0.126149   550576.911523    ;  uncertainty r = 0.000229, k = 9.262788
         6         8     1        0.126149   550576.911523    ;  uncertainty r = 0.000229, k = 9.262788
         9        10     1        0.139866   346656.581201    ;  uncertainty r = 0.000090, k = 3.370148
         9        14     1        0.140211   349325.336816    ;  uncertainty r = 0.000029, k = 3.652698
        10        11     1        0.140727   361666.272607    ;  uncertainty r = 0.000046, k = 6.105772
        10        28     1        0.108901   336801.478711    ;  uncertainty r = 0.000022, k = 2.489614
        11        12     1        0.140941   361928.257812    ;  uncertainty r = 0.000067, k = 7.751575
        11        21     1        0.139687   340289.975537    ;  uncertainty r = 0.000085, k = 9.031938
        12        13     1        0.139380   371821.742578    ;  uncertainty r = 0.000036, k = 2.429869
        12        29     1        0.108873   337023.140820    ;  uncertainty r = 0.000023, k = 0.936943
        13        14     1        0.139370   367208.565918    ;  uncertainty r = 0.000033, k = 1.516097
        13        30     1        0.108779   332374.620801    ;  uncertainty r = 0.000017, k = 1.550752
        14        31     1        0.108759   334843.242090    ;  uncertainty r = 0.000027, k = 0.771472
        16        17     1        0.144489   220596.573486    ;  uncertainty r = 0.000632, k = 19.356591
        17        18     1        0.155273   162501.513867    ;  uncertainty r = 0.000271, k = 66.063610
        17        32     1        0.109682   316919.485596    ;  uncertainty r = 0.000081, k = 8.518153
        17        33     1        0.109682   316919.485596    ;  uncertainty r = 0.000081, k = 8.518153
        18        19     1        0.126286   541570.585938    ;  uncertainty r = 0.000058, k = 12.189171
        18        20     1        0.126286   541570.585938    ;  uncertainty r = 0.000058, k = 12.189171
        21        22     1        0.146288   234752.712549    ;  uncertainty r = 0.000104, k = 6.770738
        21        34     1        0.101388   415346.834277    ;  uncertainty r = 0.000052, k = 2.324697
        22        23     1        0.153802   206355.651221    ;  uncertainty r = 0.000030, k = 3.125137
        22        27     1        0.153802   206355.651221    ;  uncertainty r = 0.000030, k = 3.125156
        22        35     1        0.109622   302718.120313    ;  uncertainty r = 0.000023, k = 3.491688
        23        24     1        0.153501   210110.883154    ;  uncertainty r = 0.000019, k = 2.866985
        23        36     1        0.109669   310903.657666    ;  uncertainty r = 0.000014, k = 0.928532
        23        37     1        0.109669   310903.657666    ;  uncertainty r = 0.000014, k = 0.928532
        24        25     1        0.142789   254488.480176    ;  uncertainty r = 0.000039, k = 2.801919
        24        38     1        0.109818   309244.818115    ;  uncertainty r = 0.000020, k = 0.854842
        24        39     1        0.109818   309244.818115    ;  uncertainty r = 0.000020, k = 0.854842
        25        26     1        0.142789   254488.480176    ;  uncertainty r = 0.000039, k = 2.801934
        26        27     1        0.153501   210110.883154    ;  uncertainty r = 0.000019, k = 2.866963
        26        40     1        0.109818   309244.843652    ;  uncertainty r = 0.000020, k = 0.854855
        26        41     1        0.109818   309244.818115    ;  uncertainty r = 0.000020, k = 0.854842
        27        42     1        0.109669   310903.657666    ;  uncertainty r = 0.000014, k = 0.928532
        27        43     1        0.109669   310903.657666    ;  uncertainty r = 0.000014, k = 0.928532

[ angles ]
;       ai        aj        ak funct           theta             cth
         1         2         3     1      112.357254      490.287825    ;  uncertainty theta = 0.005257, k = 0.446159
         1         2         6     1      115.451401      321.272126    ;  uncertainty theta = 0.011344, k = 0.278095
         1         5         4     1      111.659386      449.584992    ;  uncertainty theta = 0.002310, k = 0.394971
         1         5         9     1      118.728165      342.867040    ;  uncertainty theta = 0.007322, k = 0.153391
         2         1         5     1       93.409683     1113.970975    ;  uncertainty theta = 0.008532, k = 0.189168
         2         3         4     1      115.069199      491.410436    ;  uncertainty theta = 0.004813, k = 0.280924
         2         3        16     1      123.043716      386.336563    ;  uncertainty theta = 0.006879, k = 0.395881
         2         6         7     1      114.979454      369.254791    ;  uncertainty theta = 0.012630, k = 0.171059
         2         6         8     1      114.979454      369.254791    ;  uncertainty theta = 0.012630, k = 0.171059
         3         2         6     1      128.246002      305.353665    ;  uncertainty theta = 0.014744, k = 0.309527
         3         4         5     1      117.601578      512.725910    ;  uncertainty theta = 0.003379, k = 0.473085
         3         4        15     1      119.051048      364.447781    ;  uncertainty theta = 0.003204, k = 0.273279
         3        16        17     1      112.137527      461.556502    ;  uncertainty theta = 0.007449, k = 0.230739
         4         3        16     1      118.536453      394.142587    ;  uncertainty theta = 0.008837, k = 0.130964
         4         5         9     1      126.491371      327.557288    ;  uncertainty theta = 0.004316, k = 0.181971
         5         4        15     1      120.673264      351.209758    ;  uncertainty theta = 0.006817, k = 0.079938
         5         9        10     1      120.397461      415.443409    ;  uncertainty theta = 0.002814, k = 0.087126
         5         9        14     1      121.217979      420.375742    ;  uncertainty theta = 0.001875, k = 0.061522
         7         6         8     1      131.649750      807.008217    ;  uncertainty theta = 0.009047, k = 0.187853
         9        10        11     1      120.428894      536.832239    ;  uncertainty theta = 0.003964, k = 0.078432
         9        10        28     1      119.446228      281.459645    ;  uncertainty theta = 0.002184, k = 0.055595
         9        14        13     1      119.273636      529.780262    ;  uncertainty theta = 0.001628, k = 0.054049
         9        14        31     1      119.473221      279.687114    ;  uncertainty theta = 0.002433, k = 0.056230
        10         9        14     1      121.486282      396.733614    ;  uncertainty theta = 0.005023, k = 0.115979
        10        11        12     1      118.820084      368.448584    ;  uncertainty theta = 0.006898, k = 0.170009
        10        11        21     1      123.196167      559.130349    ;  uncertainty theta = 0.004769, k = 0.223733
        11        10        28     1      119.650734      276.539825    ;  uncertainty theta = 0.001696, k = 0.041192
        11        12        13     1      118.451317      533.334932    ;  uncertainty theta = 0.003729, k = 0.122588
        11        12        29     1      119.619423      267.231708    ;  uncertainty theta = 0.002416, k = 0.066386
        11        21        22     1      114.846573      428.489776    ;  uncertainty theta = 0.004102, k = 0.149264
        11        21        34     1      110.703209      371.426083    ;  uncertainty theta = 0.004228, k = 0.063042
        12        11        21     1      123.726707      591.510063    ;  uncertainty theta = 0.004610, k = 0.143571
        12        13        14     1      121.365150      506.111639    ;  uncertainty theta = 0.002455, k = 0.077037
        12        13        30     1      120.189308      280.032408    ;  uncertainty theta = 0.001024, k = 0.065623
        13        12        29     1      121.003220      294.864680    ;  uncertainty theta = 0.002261, k = 0.074534
        13        14        31     1      120.754356      296.535541    ;  uncertainty theta = 0.001263, k = 0.063263
        14        13        30     1      120.097679      281.198464    ;  uncertainty theta = 0.001024, k = 0.024519
        16        17        18     1      108.358414      484.414258    ;  uncertainty theta = 0.009599, k = 0.239378
        16        17        32     1      106.609215      413.715920    ;  uncertainty theta = 0.002333, k = 0.101205
        16        17        33     1      106.609215      413.715920    ;  uncertainty theta = 0.002333, k = 0.101205
        17        18        19     1      116.281067      425.507680    ;  uncertainty theta = 0.009799, k = 0.299635
        17        18        20     1      116.281067      425.507680    ;  uncertainty theta = 0.009799, k = 0.299635
        18        17        32     1      110.053444      352.214644    ;  uncertainty theta = 0.003968, k = 0.110269
        18        17        33     1      110.053444      352.214644    ;  uncertainty theta = 0.003968, k = 0.110269
        19        18        20     1      131.546265      818.159315    ;  uncertainty theta = 0.002374, k = 0.066126
        21        22        23     1      112.126389      610.671578    ;  uncertainty theta = 0.001818, k = 0.112176
        21        22        27     1      112.126389      610.671578    ;  uncertainty theta = 0.001818, k = 0.112176
        21        22        35     1      105.083420      431.459103    ;  uncertainty theta = 0.001100, k = 0.128062
        22        21        34     1      109.844887      366.658816    ;  uncertainty theta = 0.004168, k = 0.146068
        22        23        24     1      109.734802      569.977428    ;  uncertainty theta = 0.001859, k = 0.100285
        22        23        36     1      108.218063      387.621495    ;  uncertainty theta = 0.000683, k = 0.023988
        22        23        37     1      108.218063      387.621495    ;  uncertainty theta = 0.000683, k = 0.023988
        22        27        26     1      109.734802      569.977428    ;  uncertainty theta = 0.001859, k = 0.100284
        22        27        42     1      108.218063      387.621463    ;  uncertainty theta = 0.000683, k = 0.023988
        22        27        43     1      108.218063      387.621463    ;  uncertainty theta = 0.000683, k = 0.023988
        23        22        27     1      108.194031      587.587244    ;  uncertainty theta = 0.002068, k = 0.106726
        23        22        35     1      108.157394      407.378471    ;  uncertainty theta = 0.001519, k = 0.039440
        23        24        25     1      111.444130      716.034435    ;  uncertainty theta = 0.001279, k = 0.043964
        23        24        38     1      109.944687      408.966305    ;  uncertainty theta = 0.002124, k = 0.028933
        23        24        39     1      109.944687      408.966305    ;  uncertainty theta = 0.002124, k = 0.028933
        24        23        36     1      108.629005      396.630061    ;  uncertainty theta = 0.000684, k = 0.049443
        24        23        37     1      108.629005      396.630061    ;  uncertainty theta = 0.000684, k = 0.049443
        24        25        26     1      109.309448      562.168308    ;  uncertainty theta = 0.002274, k = 0.150711
        25        24        38     1      107.077614      463.773059    ;  uncertainty theta = 0.001757, k = 0.022995
        25        24        39     1      107.077614      463.773059    ;  uncertainty theta = 0.001757, k = 0.022995
        25        26        27     1      111.444130      716.034435    ;  uncertainty theta = 0.001279, k = 0.043964
        25        26        40     1      107.077614      463.773059    ;  uncertainty theta = 0.001757, k = 0.022996
        25        26        41     1      107.077614      463.773059    ;  uncertainty theta = 0.001757, k = 0.022996
        26        27        42     1      108.629005      396.630029    ;  uncertainty theta = 0.000684, k = 0.049443
        26        27        43     1      108.629005      396.630029    ;  uncertainty theta = 0.000684, k = 0.049443
        27        22        35     1      108.157394      407.378503    ;  uncertainty theta = 0.001519, k = 0.039439
        27        26        40     1      109.944687      408.966336    ;  uncertainty theta = 0.002124, k = 0.028933
        27        26        41     1      109.944687      408.966336    ;  uncertainty theta = 0.002124, k = 0.028933
        32        17        33     1      108.449623      321.244163    ;  uncertainty theta = 0.009962, k = 0.176306
        36        23        37     1      105.376053      311.744454    ;  uncertainty theta = 0.001353, k = 0.010548
        38        24        39     1      106.555054      320.243013    ;  uncertainty theta = 0.001313, k = 0.032691
        40        26        41     1      106.555054      320.243013    ;  uncertainty theta = 0.001313, k = 0.032691
        42        27        43     1      105.376053      311.744486    ;  uncertainty theta = 0.001353, k = 0.010548

[ dihedrals ] ; propers for gromacs 4.5 or higher, use funct 9
;       ai        aj        ak        al funct           phase               k        pn
         1         2         3         4     9        0.000000       -0.320833         1    ;  uncertainty k = 0.754080
         1         2         3         4     9      180.000000       17.555282         2    ;  uncertainty k = 0.424189
         1         2         3         4     9        0.000000       -2.376894         3    ;  uncertainty k = 1.115238
         1         2         3         4     9      180.000000        0.923152         4    ;  uncertainty k = 0.610957
         1         2         3        16     9        0.000000        0.376558         1    ;  uncertainty k = 1.230098
         1         2         3        16     9      180.000000       18.623043         2    ;  uncertainty k = 0.210713
         1         2         3        16     9        0.000000        1.608484         3    ;  uncertainty k = 0.452084
         1         2         3        16     9      180.000000        0.624278         4    ;  uncertainty k = 0.345564
         1         2         6         7     9        0.000000        0.648298         1    ;  uncertainty k = 2.496588
         1         2         6         7     9      180.000000        4.832235         2    ;  uncertainty k = 0.504618
         1         2         6         7     9        0.000000        0.188147         3    ;  uncertainty k = 0.527138
         1         2         6         7     9      180.000000        0.229089         4    ;  uncertainty k = 0.149777
         1         2         6         8     9        0.000000        0.648298         1    ;  uncertainty k = 2.496588
         1         2         6         8     9      180.000000        4.832235         2    ;  uncertainty k = 0.504618
         1         2         6         8     9        0.000000        0.188147         3    ;  uncertainty k = 0.527138
         1         2         6         8     9      180.000000        0.229089         4    ;  uncertainty k = 0.149777
         1         5         4         3     9        0.000000       -0.230943         1    ;  uncertainty k = 0.350057
         1         5         4         3     9      180.000000       15.958089         2    ;  uncertainty k = 0.404103
         1         5         4         3     9        0.000000       -2.380903         3    ;  uncertainty k = 0.809268
         1         5         4         3     9      180.000000        0.865666         4    ;  uncertainty k = 0.750586
         1         5         4        15     9        0.000000        0.242023         1    ;  uncertainty k = 0.389261
         1         5         4        15     9      180.000000       12.724293         2    ;  uncertainty k = 0.534639
         1         5         4        15     9        0.000000        2.310394         3    ;  uncertainty k = 0.489088
         1         5         4        15     9      180.000000        0.570757         4    ;  uncertainty k = 0.408314
         1         5         9        10     9        0.000000       -0.656981         1    ;  uncertainty k = 0.571836
         1         5         9        10     9      180.000000        3.252194         2    ;  uncertainty k = 0.077129
         1         5         9        10     9        0.000000        0.284571         3    ;  uncertainty k = 0.258066
         1         5         9        10     9      180.000000        0.122527         4    ;  uncertainty k = 0.130736
         1         5         9        14     9        0.000000       -0.233259         1    ;  uncertainty k = 0.548333
         1         5         9        14     9      180.000000        3.321067         2    ;  uncertainty k = 0.213032
         1         5         9        14     9        0.000000        0.471770         3    ;  uncertainty k = 0.250673
         1         5         9        14     9      180.000000        0.112740         4    ;  uncertainty k = 0.126557
         2         1         5         4     9        0.000000       -0.381502         1    ;  uncertainty k = 1.018320
         2         1         5         4     9      180.000000       14.624384         2    ;  uncertainty k = 0.929119
         2         1         5         4     9        0.000000       -6.005800         3    ;  uncertainty k = 1.036762
         2         1         5         4     9      180.000000        1.151585         4    ;  uncertainty k = 0.363309
         2         1         5         9     9        0.000000        0.589347         1    ;  uncertainty k = 1.308291
         2         1         5         9     9      180.000000       11.699598         2    ;  uncertainty k = 0.623079
         2         1         5         9     9        0.000000        0.979108         3    ;  uncertainty k = 1.167760
         2         1         5         9     9      180.000000       -0.045828         4    ;  uncertainty k = 0.492309
         2         3         4         5     9        0.000000       -0.163892         1    ;  uncertainty k = 0.802841
         2         3         4         5     9      180.000000        9.355372         2    ;  uncertainty k = 0.794784
         2         3         4         5     9        0.000000       -2.165171         3    ;  uncertainty k = 0.822975
         2         3         4         5     9      180.000000        0.987821         4    ;  uncertainty k = 0.358170
         2         3         4        15     9        0.000000        0.463445         1    ;  uncertainty k = 0.544884
         2         3         4        15     9      180.000000        7.807701         2    ;  uncertainty k = 0.817270
         2         3         4        15     9        0.000000        1.640989         3    ;  uncertainty k = 0.318182
         2         3         4        15     9      180.000000        0.389068         4    ;  uncertainty k = 0.234157
         2         3        16        17     9        0.000000        0.562638         1    ;  uncertainty k = 2.473037
         2         3        16        17     9      180.000000        4.453660         2    ;  uncertainty k = 1.236403
         2         3        16        17     9        0.000000       -0.243071         3    ;  uncertainty k = 0.584348
         2         3        16        17     9      180.000000        0.011309         4    ;  uncertainty k = 0.249195
         3         2         1         5     9        0.000000       -1.343735         1    ;  uncertainty k = 1.825069
         3         2         1         5     9      180.000000       12.410483         2    ;  uncertainty k = 0.765515
         3         2         1         5     9        0.000000       -3.924755         3    ;  uncertainty k = 1.286096
         3         2         1         5     9      180.000000        1.226932         4    ;  uncertainty k = 0.620813
         3         2         6         7     9        0.000000       -0.600971         1    ;  uncertainty k = 1.233380
         3         2         6         7     9      180.000000        2.750847         2    ;  uncertainty k = 0.470266
         3         2         6         7     9        0.000000        0.420307         3    ;  uncertainty k = 0.314900
         3         2         6         7     9      180.000000        0.072508         4    ;  uncertainty k = 0.103468
         3         2         6         8     9        0.000000       -0.600971         1    ;  uncertainty k = 1.233380
         3         2         6         8     9      180.000000        2.750847         2    ;  uncertainty k = 0.470266
         3         2         6         8     9        0.000000        0.420307         3    ;  uncertainty k = 0.314900
         3         2         6         8     9      180.000000        0.072508         4    ;  uncertainty k = 0.103468
         3         4         5         9     9        0.000000        0.194284         1    ;  uncertainty k = 0.219592
         3         4         5         9     9      180.000000       11.409582         2    ;  uncertainty k = 0.271107
         3         4         5         9     9        0.000000        1.980401         3    ;  uncertainty k = 0.456250
         3         4         5         9     9      180.000000        0.657823         4    ;  uncertainty k = 0.315054
         3        16        17        18     9        0.000000       -2.546996         1    ;  uncertainty k = 2.263476
         3        16        17        18     9      180.000000       -2.071281         2    ;  uncertainty k = 0.852216
         3        16        17        18     9        0.000000        0.377848         3    ;  uncertainty k = 0.447363
         3        16        17        18     9      180.000000        0.728091         4    ;  uncertainty k = 0.372243
         3        16        17        32     9        0.000000        1.943735         1    ;  uncertainty k = 0.725643
         3        16        17        32     9      180.000000       -1.013528         2    ;  uncertainty k = 0.770891
         3        16        17        32     9        0.000000        0.504468         3    ;  uncertainty k = 0.367188
         3        16        17        32     9      180.000000        0.022954         4    ;  uncertainty k = 0.163828
         3        16        17        33     9        0.000000        1.943735         1    ;  uncertainty k = 0.725643
         3        16        17        33     9      180.000000       -1.013528         2    ;  uncertainty k = 0.770891
         3        16        17        33     9        0.000000        0.504468         3    ;  uncertainty k = 0.367188
         3        16        17        33     9      180.000000        0.022954         4    ;  uncertainty k = 0.163828
         4         3         2         6     9        0.000000        0.750539         1    ;  uncertainty k = 1.420042
         4         3         2         6     9      180.000000        9.225337         2    ;  uncertainty k = 0.449657
         4         3         2         6     9        0.000000        2.146628         3    ;  uncertainty k = 0.096833
         4         3         2         6     9      180.000000        0.908103         4    ;  uncertainty k = 0.276689
         4         3        16        17     9        0.000000        4.003546         1    ;  uncertainty k = 2.209639
         4         3        16        17     9      180.000000        4.149396         2    ;  uncertainty k = 0.785914
         4         3        16        17     9        0.000000        0.594406         3    ;  uncertainty k = 0.772201
         4         3        16        17     9      180.000000       -0.129795         4    ;  uncertainty k = 0.090251
         4         5         9        10     9        0.000000        0.353515         1    ;  uncertainty k = 0.518464
         4         5         9        10     9      180.000000        2.904106         2    ;  uncertainty k = 0.313612
         4         5         9        10     9        0.000000        0.455749         3    ;  uncertainty k = 0.523304
         4         5         9        10     9      180.000000       -0.006953         4    ;  uncertainty k = 0.142758
         4         5         9        14     9        0.000000        0.468422         1    ;  uncertainty k = 0.543316
         4         5         9        14     9      180.000000        3.088237         2    ;  uncertainty k = 0.260629
         4         5         9        14     9        0.000000        0.475580         3    ;  uncertainty k = 0.388282
         4         5         9        14     9      180.000000       -0.025865         4    ;  uncertainty k = 0.122964
         5         1         2         6     9        0.000000        0.451497         1    ;  uncertainty k = 2.202869
         5         1         2         6     9      180.000000        8.209202         2    ;  uncertainty k = 0.569487
         5         1         2         6     9        0.000000        1.043882         3    ;  uncertainty k = 0.663821
         5         1         2         6     9      180.000000        0.550351         4    ;  uncertainty k = 0.309694
         5         4         3        16     9        0.000000        0.887263         1    ;  uncertainty k = 1.387606
         5         4         3        16     9      180.000000       11.850633         2    ;  uncertainty k = 0.768527
         5         4         3        16     9        0.000000        1.717065         3    ;  uncertainty k = 0.314044
         5         4         3        16     9      180.000000        0.438991         4    ;  uncertainty k = 0.459203
         5         9        10        11     9        0.000000        0.215495         1    ;  uncertainty k = 0.383663
         5         9        10        11     9      180.000000        8.822034         2    ;  uncertainty k = 0.578325
         5         9        10        11     9        0.000000        1.259536         3    ;  uncertainty k = 0.294337
         5         9        10        11     9      180.000000        1.579315         4    ;  uncertainty k = 0.186089
         5         9        10        28     9        0.000000       -0.118096         1    ;  uncertainty k = 0.464671
         5         9        10        28     9      180.000000        7.094356         2    ;  uncertainty k = 0.451824
         5         9        10        28     9        0.000000        0.693463         3    ;  uncertainty k = 0.250327
         5         9        10        28     9      180.000000        1.251162         4    ;  uncertainty k = 0.217118
         5         9        14        13     9        0.000000       -0.012159         1    ;  uncertainty k = 0.343542
         5         9        14        13     9      180.000000        9.008833         2    ;  uncertainty k = 0.493794
         5         9        14        13     9        0.000000        1.121536         3    ;  uncertainty k = 0.283096
         5         9        14        13     9      180.000000        1.726057         4    ;  uncertainty k = 0.162672
         5         9        14        31     9        0.000000       -0.167143         1    ;  uncertainty k = 0.574521
         5         9        14        31     9      180.000000        6.858649         2    ;  uncertainty k = 0.387138
         5         9        14        31     9        0.000000        0.754216         3    ;  uncertainty k = 0.222931
         5         9        14        31     9      180.000000        1.253932         4    ;  uncertainty k = 0.164620
         6         2         3        16     9        0.000000       -0.665249         1    ;  uncertainty k = 0.977507
         6         2         3        16     9      180.000000       11.691680         2    ;  uncertainty k = 0.581130
         6         2         3        16     9        0.000000        1.652052         3    ;  uncertainty k = 0.309495
         6         2         3        16     9      180.000000        0.410579         4    ;  uncertainty k = 0.549466
         9         5         4        15     9        0.000000        0.037386         1    ;  uncertainty k = 0.686408
         9         5         4        15     9      180.000000        8.650582         2    ;  uncertainty k = 0.563137
         9         5         4        15     9        0.000000        1.546341         3    ;  uncertainty k = 0.089957
         9         5         4        15     9      180.000000        0.838665         4    ;  uncertainty k = 0.167551
         9        10        11        12     9        0.000000       -0.074147         1    ;  uncertainty k = 0.332965
         9        10        11        12     9      180.000000        7.483719         2    ;  uncertainty k = 0.623420
         9        10        11        12     9        0.000000        0.428210         3    ;  uncertainty k = 0.279487
         9        10        11        12     9      180.000000        1.427985         4    ;  uncertainty k = 0.272185
         9        10        11        21     9        0.000000        0.206965         1    ;  uncertainty k = 0.779669
         9        10        11        21     9      180.000000        8.419518         2    ;  uncertainty k = 0.210665
         9        10        11        21     9        0.000000        0.944670         3    ;  uncertainty k = 0.200671
         9        10        11        21     9      180.000000        1.628586         4    ;  uncertainty k = 0.153594
         9        14        13        12     9        0.000000       -0.059272         1    ;  uncertainty k = 0.367616
         9        14        13        12     9      180.000000       14.573975         2    ;  uncertainty k = 0.295850
         9        14        13        12     9        0.000000       -1.019944         3    ;  uncertainty k = 0.445748
         9        14        13        12     9      180.000000        0.617677         4    ;  uncertainty k = 0.302018
         9        14        13        30     9        0.000000        0.069339         1    ;  uncertainty k = 0.069200
         9        14        13        30     9      180.000000        7.749906         2    ;  uncertainty k = 0.302242
         9        14        13        30     9        0.000000        1.324182         3    ;  uncertainty k = 0.264322
         9        14        13        30     9      180.000000        1.821714         4    ;  uncertainty k = 0.104858
        10         9        14        13     9        0.000000       -0.203690         1    ;  uncertainty k = 0.123253
        10         9        14        13     9      180.000000       11.480953         2    ;  uncertainty k = 0.260324
        10         9        14        13     9        0.000000       -0.404305         3    ;  uncertainty k = 0.248781
        10         9        14        13     9      180.000000        0.965820         4    ;  uncertainty k = 0.267591
        10         9        14        31     9        0.000000        0.150213         1    ;  uncertainty k = 0.316032
        10         9        14        31     9      180.000000        6.874749         2    ;  uncertainty k = 0.612333
        10         9        14        31     9        0.000000        1.482867         3    ;  uncertainty k = 0.213165
        10         9        14        31     9      180.000000        1.679697         4    ;  uncertainty k = 0.258977
        10        11        12        13     9        0.000000       -0.073711         1    ;  uncertainty k = 0.159132
        10        11        12        13     9      180.000000        7.945432         2    ;  uncertainty k = 0.728072
        10        11        12        13     9        0.000000        0.237869         3    ;  uncertainty k = 0.361995
        10        11        12        13     9      180.000000        1.328537         4    ;  uncertainty k = 0.358964
        10        11        12        29     9        0.000000        0.176091         1    ;  uncertainty k = 0.574540
        10        11        12        29     9      180.000000        5.845761         2    ;  uncertainty k = 0.726173
        10        11        12        29     9        0.000000        1.234506         3    ;  uncertainty k = 0.225381
        10        11        12        29     9      180.000000        1.458598         4    ;  uncertainty k = 0.177455
        10        11        21        22     9        0.000000        3.405083         1    ;  uncertainty k = 0.565767
        10        11        21        22     9      180.000000        6.499817         2    ;  uncertainty k = 0.143338
        10        11        21        22     9        0.000000        0.626934         3    ;  uncertainty k = 0.198493
        10        11        21        22     9      180.000000       -0.008662         4    ;  uncertainty k = 0.093677
        10        11        21        34     9        0.000000        4.579647         1    ;  uncertainty k = 0.510221
        10        11        21        34     9      180.000000        6.351470         2    ;  uncertainty k = 0.392598
        10        11        21        34     9        0.000000        0.757634         3    ;  uncertainty k = 0.298017
        10        11        21        34     9      180.000000       -0.349081         4    ;  uncertainty k = 0.043500
        11        10         9        14     9        0.000000       -0.102422         1    ;  uncertainty k = 0.211277
        11        10         9        14     9      180.000000       11.067682         2    ;  uncertainty k = 0.309326
        11        10         9        14     9        0.000000       -0.235295         3    ;  uncertainty k = 0.258684
        11        10         9        14     9      180.000000        0.977510         4    ;  uncertainty k = 0.143871
        11        12        13        14     9        0.000000       -0.191174         1    ;  uncertainty k = 0.296372
        11        12        13        14     9      180.000000       14.192922         2    ;  uncertainty k = 0.193875
        11        12        13        14     9        0.000000       -0.988808         3    ;  uncertainty k = 0.358747
        11        12        13        14     9      180.000000        0.689347         4    ;  uncertainty k = 0.215409
        11        12        13        30     9        0.000000        0.008744         1    ;  uncertainty k = 0.271105
        11        12        13        30     9      180.000000        7.906786         2    ;  uncertainty k = 0.355014
        11        12        13        30     9        0.000000        1.181554         3    ;  uncertainty k = 0.304013
        11        12        13        30     9      180.000000        1.549599         4    ;  uncertainty k = 0.193568
        11        21        22        23     9        0.000000       -0.241912         1    ;  uncertainty k = 0.285020
        11        21        22        23     9      180.000000       -0.189473         2    ;  uncertainty k = 0.280124
        11        21        22        23     9        0.000000        0.881385         3    ;  uncertainty k = 0.054598
        11        21        22        23     9      180.000000        0.300420         4    ;  uncertainty k = 0.071700
        11        21        22        27     9        0.000000       -0.241912         1    ;  uncertainty k = 0.285020
        11        21        22        27     9      180.000000       -0.189473         2    ;  uncertainty k = 0.280124
        11        21        22        27     9        0.000000        0.881385         3    ;  uncertainty k = 0.054598
        11        21        22        27     9      180.000000        0.300420         4    ;  uncertainty k = 0.071700
        11        21        22        35     9        0.000000       -1.620382         1    ;  uncertainty k = 0.476262
        11        21        22        35     9      180.000000       -1.104682         2    ;  uncertainty k = 0.434975
        11        21        22        35     9        0.000000        0.899489         3    ;  uncertainty k = 0.125613
        11        21        22        35     9      180.000000        0.297076         4    ;  uncertainty k = 0.053458
        12        11        10        28     9        0.000000        0.231149         1    ;  uncertainty k = 0.394154
        12        11        10        28     9      180.000000        5.904814         2    ;  uncertainty k = 0.574407
        12        11        10        28     9        0.000000        1.304281         3    ;  uncertainty k = 0.238157
        12        11        10        28     9      180.000000        1.559688         4    ;  uncertainty k = 0.176136
        12        11        21        22     9        0.000000        3.528041         1    ;  uncertainty k = 0.447796
        12        11        21        22     9      180.000000        6.342128         2    ;  uncertainty k = 0.174345
        12        11        21        22     9        0.000000        0.652783         3    ;  uncertainty k = 0.118280
        12        11        21        22     9      180.000000        0.010747         4    ;  uncertainty k = 0.095774
        12        11        21        34     9        0.000000        4.588702         1    ;  uncertainty k = 0.367948
        12        11        21        34     9      180.000000        6.173272         2    ;  uncertainty k = 0.261309
        12        11        21        34     9        0.000000        0.836043         3    ;  uncertainty k = 0.199685
        12        11        21        34     9      180.000000       -0.345393         4    ;  uncertainty k = 0.057063
        12        13        14        31     9        0.000000        0.088368         1    ;  uncertainty k = 0.180682
        12        13        14        31     9      180.000000        7.766930         2    ;  uncertainty k = 0.210467
        12        13        14        31     9        0.000000        1.340742         3    ;  uncertainty k = 0.259609
        12        13        14        31     9      180.000000        1.860457         4    ;  uncertainty k = 0.145823
        13        12        11        21     9        0.000000        0.119736         1    ;  uncertainty k = 0.554403
        13        12        11        21     9      180.000000        8.441853         2    ;  uncertainty k = 0.261291
        13        12        11        21     9        0.000000        1.022928         3    ;  uncertainty k = 0.254638
        13        12        11        21     9      180.000000        1.593010         4    ;  uncertainty k = 0.098559
        14         9        10        28     9        0.000000        0.230556         1    ;  uncertainty k = 0.246255
        14         9        10        28     9      180.000000        7.165952         2    ;  uncertainty k = 0.381940
        14         9        10        28     9        0.000000        1.531849         3    ;  uncertainty k = 0.214497
        14         9        10        28     9      180.000000        1.622865         4    ;  uncertainty k = 0.218540
        14        13        12        29     9        0.000000        0.141650         1    ;  uncertainty k = 0.102849
        14        13        12        29     9      180.000000        8.103568         2    ;  uncertainty k = 0.348066
        14        13        12        29     9        0.000000        1.502037         3    ;  uncertainty k = 0.296762
        14        13        12        29     9      180.000000        1.786260         4    ;  uncertainty k = 0.120930
        15         4         3        16     9        0.000000       -0.300934         1    ;  uncertainty k = 0.650861
        15         4         3        16     9      180.000000        9.165092         2    ;  uncertainty k = 0.275746
        15         4         3        16     9        0.000000        1.456381         3    ;  uncertainty k = 0.310393
        15         4         3        16     9      180.000000        0.631618         4    ;  uncertainty k = 0.388932
        16        17        18        19     9        0.000000        1.079222         1    ;  uncertainty k = 0.841475
        16        17        18        19     9      180.000000        5.864588         2    ;  uncertainty k = 0.515928
        16        17        18        19     9        0.000000        1.140649         3    ;  uncertainty k = 0.463168
        16        17        18        19     9      180.000000        0.279519         4    ;  uncertainty k = 0.238932
        16        17        18        20     9        0.000000        1.079222         1    ;  uncertainty k = 0.841475
        16        17        18        20     9      180.000000        5.864588         2    ;  uncertainty k = 0.515928
        16        17        18        20     9        0.000000        1.140649         3    ;  uncertainty k = 0.463168
        16        17        18        20     9      180.000000        0.279519         4    ;  uncertainty k = 0.238932
        19        18        17        32     9        0.000000       -2.498422         1    ;  uncertainty k = 1.124580
        19        18        17        32     9      180.000000        1.806048         2    ;  uncertainty k = 0.648461
        19        18        17        32     9        0.000000        0.840718         3    ;  uncertainty k = 0.199496
        19        18        17        32     9      180.000000        0.238884         4    ;  uncertainty k = 0.091169
        19        18        17        33     9        0.000000       -2.498422         1    ;  uncertainty k = 1.124580
        19        18        17        33     9      180.000000        1.806048         2    ;  uncertainty k = 0.648461
        19        18        17        33     9        0.000000        0.840718         3    ;  uncertainty k = 0.199496
        19        18        17        33     9      180.000000        0.238884         4    ;  uncertainty k = 0.091169
        20        18        17        32     9        0.000000       -2.498422         1    ;  uncertainty k = 1.124580
        20        18        17        32     9      180.000000        1.806048         2    ;  uncertainty k = 0.648461
        20        18        17        32     9        0.000000        0.840718         3    ;  uncertainty k = 0.199496
        20        18        17        32     9      180.000000        0.238884         4    ;  uncertainty k = 0.091169
        20        18        17        33     9        0.000000       -2.498422         1    ;  uncertainty k = 1.124580
        20        18        17        33     9      180.000000        1.806048         2    ;  uncertainty k = 0.648461
        20        18        17        33     9        0.000000        0.840718         3    ;  uncertainty k = 0.199496
        20        18        17        33     9      180.000000        0.238884         4    ;  uncertainty k = 0.091169
        21        11        10        28     9        0.000000       -0.342428         1    ;  uncertainty k = 0.176974
        21        11        10        28     9      180.000000        7.309304         2    ;  uncertainty k = 0.465725
        21        11        10        28     9        0.000000        0.900635         3    ;  uncertainty k = 0.203897
        21        11        10        28     9      180.000000        1.103103         4    ;  uncertainty k = 0.207444
        21        11        12        29     9        0.000000       -0.208307         1    ;  uncertainty k = 0.292070
        21        11        12        29     9      180.000000        7.246075         2    ;  uncertainty k = 0.345817
        21        11        12        29     9        0.000000        0.951013         3    ;  uncertainty k = 0.282251
        21        11        12        29     9      180.000000        1.062017         4    ;  uncertainty k = 0.186382
        21        22        23        24     9        0.000000       -4.602169         1    ;  uncertainty k = 1.327652
        21        22        23        24     9      180.000000        0.249264         2    ;  uncertainty k = 0.567926
        21        22        23        24     9        0.000000        1.024245         3    ;  uncertainty k = 0.332014
        21        22        23        24     9      180.000000       -0.078285         4    ;  uncertainty k = 0.171431
        21        22        23        36     9        0.000000       -0.637383         1    ;  uncertainty k = 0.198466
        21        22        23        36     9      180.000000       -0.450265         2    ;  uncertainty k = 0.149607
        21        22        23        36     9        0.000000        1.233631         3    ;  uncertainty k = 0.188942
        21        22        23        36     9      180.000000       -0.165920         4    ;  uncertainty k = 0.075367
        21        22        23        37     9        0.000000       -0.637383         1    ;  uncertainty k = 0.198466
        21        22        23        37     9      180.000000       -0.450265         2    ;  uncertainty k = 0.149607
        21        22        23        37     9        0.000000        1.233631         3    ;  uncertainty k = 0.188942
        21        22        23        37     9      180.000000       -0.165920         4    ;  uncertainty k = 0.075367
        21        22        27        26     9        0.000000       -4.602170         1    ;  uncertainty k = 1.327652
        21        22        27        26     9      180.000000        0.249264         2    ;  uncertainty k = 0.567926
        21        22        27        26     9        0.000000        1.024246         3    ;  uncertainty k = 0.332014
        21        22        27        26     9      180.000000       -0.078285         4    ;  uncertainty k = 0.171431
        21        22        27        42     9        0.000000       -0.637383         1    ;  uncertainty k = 0.198465
        21        22        27        42     9      180.000000       -0.450265         2    ;  uncertainty k = 0.149607
        21        22        27        42     9        0.000000        1.233631         3    ;  uncertainty k = 0.188942
        21        22        27        42     9      180.000000       -0.165920         4    ;  uncertainty k = 0.075367
        21        22        27        43     9        0.000000       -0.637383         1    ;  uncertainty k = 0.198465
        21        22        27        43     9      180.000000       -0.450265         2    ;  uncertainty k = 0.149607
        21        22        27        43     9        0.000000        1.233631         3    ;  uncertainty k = 0.188942
        21        22        27        43     9      180.000000       -0.165920         4    ;  uncertainty k = 0.075367
        22        23        24        25     9        0.000000       -1.383155         1    ;  uncertainty k = 1.231562
        22        23        24        25     9      180.000000       -3.863819         2    ;  uncertainty k = 0.728494
        22        23        24        25     9        0.000000        1.868910         3    ;  uncertainty k = 0.388697
        22        23        24        25     9      180.000000       -0.761738         4    ;  uncertainty k = 0.160297
        22        23        24        38     9        0.000000        3.563368         1    ;  uncertainty k = 1.127914
        22        23        24        38     9      180.000000       -2.786279         2    ;  uncertainty k = 0.482262
        22        23        24        38     9        0.000000       -0.107644         3    ;  uncertainty k = 0.213892
        22        23        24        38     9      180.000000        0.385935         4    ;  uncertainty k = 0.157070
        22        23        24        39     9        0.000000        3.563368         1    ;  uncertainty k = 1.127914
        22        23        24        39     9      180.000000       -2.786279         2    ;  uncertainty k = 0.482262
        22        23        24        39     9        0.000000       -0.107644         3    ;  uncertainty k = 0.213892
        22        23        24        39     9      180.000000        0.385935         4    ;  uncertainty k = 0.157070
        22        27        26        25     9        0.000000       -1.383155         1    ;  uncertainty k = 1.231563
        22        27        26        25     9      180.000000       -3.863819         2    ;  uncertainty k = 0.728494
        22        27        26        25     9        0.000000        1.868911         3    ;  uncertainty k = 0.388696
        22        27        26        25     9      180.000000       -0.761738         4    ;  uncertainty k = 0.160297
        22        27        26        40     9        0.000000        3.563368         1    ;  uncertainty k = 1.127915
        22        27        26        40     9      180.000000       -2.786280         2    ;  uncertainty k = 0.482262
        22        27        26        40     9        0.000000       -0.107644         3    ;  uncertainty k = 0.213892
        22        27        26        40     9      180.000000        0.385936         4    ;  uncertainty k = 0.157071
        22        27        26        41     9        0.000000        3.563368         1    ;  uncertainty k = 1.127915
        22        27        26        41     9      180.000000       -2.786279         2    ;  uncertainty k = 0.482263
        22        27        26        41     9        0.000000       -0.107644         3    ;  uncertainty k = 0.213892
        22        27        26        41     9      180.000000        0.385936         4    ;  uncertainty k = 0.157070
        23        22        21        34     9        0.000000        2.784295         1    ;  uncertainty k = 0.183038
        23        22        21        34     9      180.000000       -1.843056         2    ;  uncertainty k = 0.441924
        23        22        21        34     9        0.000000        0.200806         3    ;  uncertainty k = 0.107693
        23        22        21        34     9      180.000000        0.110398         4    ;  uncertainty k = 0.078513
        23        22        27        26     9        0.000000       -7.448288         1    ;  uncertainty k = 1.118935
        23        22        27        26     9      180.000000        1.000972         2    ;  uncertainty k = 0.705752
        23        22        27        26     9        0.000000        1.342546         3    ;  uncertainty k = 0.127605
        23        22        27        26     9      180.000000       -1.393429         4    ;  uncertainty k = 0.236142
        23        22        27        42     9        0.000000       -1.850865         1    ;  uncertainty k = 0.388174
        23        22        27        42     9      180.000000       -0.000836         2    ;  uncertainty k = 0.166242
        23        22        27        42     9        0.000000        0.283912         3    ;  uncertainty k = 0.128831
        23        22        27        42     9      180.000000       -0.131949         4    ;  uncertainty k = 0.067703
        23        22        27        43     9        0.000000       -1.850865         1    ;  uncertainty k = 0.388174
        23        22        27        43     9      180.000000       -0.000836         2    ;  uncertainty k = 0.166242
        23        22        27        43     9        0.000000        0.283912         3    ;  uncertainty k = 0.128831
        23        22        27        43     9      180.000000       -0.131949         4    ;  uncertainty k = 0.067703
        23        24        25        26     9        0.000000       -3.039260         1    ;  uncertainty k = 1.729156
        23        24        25        26     9      180.000000        0.099022         2    ;  uncertainty k = 1.153336
        23        24        25        26     9        0.000000        0.926163         3    ;  uncertainty k = 0.247942
        23        24        25        26     9      180.000000       -0.348545         4    ;  uncertainty k = 0.189616
        24        23        22        27     9        0.000000       -7.448287         1    ;  uncertainty k = 1.118935
        24        23        22        27     9      180.000000        1.000971         2    ;  uncertainty k = 0.705751
        24        23        22        27     9        0.000000        1.342546         3    ;  uncertainty k = 0.127605
        24        23        22        27     9      180.000000       -1.393429         4    ;  uncertainty k = 0.236142
        24        23        22        35     9        0.000000       -1.834236         1    ;  uncertainty k = 0.621700
        24        23        22        35     9      180.000000       -0.709064         2    ;  uncertainty k = 0.338298
        24        23        22        35     9        0.000000        0.022765         3    ;  uncertainty k = 0.119675
        24        23        22        35     9      180.000000       -0.128096         4    ;  uncertainty k = 0.101175
        24        25        26        27     9        0.000000       -3.039260         1    ;  uncertainty k = 1.729156
        24        25        26        27     9      180.000000        0.099021         2    ;  uncertainty k = 1.153336
        24        25        26        27     9        0.000000        0.926163         3    ;  uncertainty k = 0.247942
        24        25        26        27     9      180.000000       -0.348545         4    ;  uncertainty k = 0.189617
        24        25        26        40     9        0.000000       -5.435408         1    ;  uncertainty k = 1.705293
        24        25        26        40     9      180.000000        0.309317         2    ;  uncertainty k = 0.194051
        24        25        26        40     9        0.000000        0.745835         3    ;  uncertainty k = 0.129776
        24        25        26        40     9      180.000000       -0.529314         4    ;  uncertainty k = 0.148432
        24        25        26        41     9        0.000000       -5.435409         1    ;  uncertainty k = 1.705294
        24        25        26        41     9      180.000000        0.309317         2    ;  uncertainty k = 0.194051
        24        25        26        41     9        0.000000        0.745836         3    ;  uncertainty k = 0.129776
        24        25        26        41     9      180.000000       -0.529315         4    ;  uncertainty k = 0.148432
        25        24        23        36     9        0.000000       -1.741494         1    ;  uncertainty k = 0.525461
        25        24        23        36     9      180.000000       -0.147911         2    ;  uncertainty k = 0.207845
        25        24        23        36     9        0.000000        1.456723         3    ;  uncertainty k = 0.219103
        25        24        23        36     9      180.000000       -0.196821         4    ;  uncertainty k = 0.174253
        25        24        23        37     9        0.000000       -1.741494         1    ;  uncertainty k = 0.525461
        25        24        23        37     9      180.000000       -0.147911         2    ;  uncertainty k = 0.207845
        25        24        23        37     9        0.000000        1.456723         3    ;  uncertainty k = 0.219103
        25        24        23        37     9      180.000000       -0.196821         4    ;  uncertainty k = 0.174253
        25        26        27        42     9        0.000000       -1.741494         1    ;  uncertainty k = 0.525462
        25        26        27        42     9      180.000000       -0.147911         2    ;  uncertainty k = 0.207845
        25        26        27        42     9        0.000000        1.456724         3    ;  uncertainty k = 0.219103
        25        26        27        42     9      180.000000       -0.196821         4    ;  uncertainty k = 0.174253
        25        26        27        43     9        0.000000       -1.741494         1    ;  uncertainty k = 0.525462
        25        26        27        43     9      180.000000       -0.147911         2    ;  uncertainty k = 0.207845
        25        26        27        43     9        0.000000        1.456724         3    ;  uncertainty k = 0.219103
        25        26        27        43     9      180.000000       -0.196821         4    ;  uncertainty k = 0.174253
        26        25        24        38     9        0.000000       -5.435408         1    ;  uncertainty k = 1.705293
        26        25        24        38     9      180.000000        0.309317         2    ;  uncertainty k = 0.194052
        26        25        24        38     9        0.000000        0.745836         3    ;  uncertainty k = 0.129775
        26        25        24        38     9      180.000000       -0.529315         4    ;  uncertainty k = 0.148432
        26        25        24        39     9        0.000000       -5.435408         1    ;  uncertainty k = 1.705293
        26        25        24        39     9      180.000000        0.309317         2    ;  uncertainty k = 0.194052
        26        25        24        39     9        0.000000        0.745836         3    ;  uncertainty k = 0.129775
        26        25        24        39     9      180.000000       -0.529315         4    ;  uncertainty k = 0.148432
        26        27        22        35     9        0.000000       -1.834237         1    ;  uncertainty k = 0.621700
        26        27        22        35     9      180.000000       -0.709064         2    ;  uncertainty k = 0.338299
        26        27        22        35     9        0.000000        0.022765         3    ;  uncertainty k = 0.119675
        26        27        22        35     9      180.000000       -0.128096         4    ;  uncertainty k = 0.101175
        27        22        21        34     9        0.000000        2.784295         1    ;  uncertainty k = 0.183039
        27        22        21        34     9      180.000000       -1.843055         2    ;  uncertainty k = 0.441924
        27        22        21        34     9        0.000000        0.200806         3    ;  uncertainty k = 0.107693
        27        22        21        34     9      180.000000        0.110398         4    ;  uncertainty k = 0.078513
        27        22        23        36     9        0.000000       -1.850864         1    ;  uncertainty k = 0.388175
        27        22        23        36     9      180.000000       -0.000837         2    ;  uncertainty k = 0.166242
        27        22        23        36     9        0.000000        0.283912         3    ;  uncertainty k = 0.128831
        27        22        23        36     9      180.000000       -0.131949         4    ;  uncertainty k = 0.067703
        27        22        23        37     9        0.000000       -1.850864         1    ;  uncertainty k = 0.388175
        27        22        23        37     9      180.000000       -0.000837         2    ;  uncertainty k = 0.166242
        27        22        23        37     9        0.000000        0.283912         3    ;  uncertainty k = 0.128831
        27        22        23        37     9      180.000000       -0.131949         4    ;  uncertainty k = 0.067703
        29        12        13        30     9        0.000000       -0.030964         1    ;  uncertainty k = 0.241397
        29        12        13        30     9      180.000000        7.640900         2    ;  uncertainty k = 0.355361
        29        12        13        30     9        0.000000       -0.381487         3    ;  uncertainty k = 0.259502
        29        12        13        30     9      180.000000        0.184223         4    ;  uncertainty k = 0.153158
        30        13        14        31     9        0.000000       -0.050526         1    ;  uncertainty k = 0.285711
        30        13        14        31     9      180.000000        7.657891         2    ;  uncertainty k = 0.366062
        30        13        14        31     9        0.000000       -0.453043         3    ;  uncertainty k = 0.297900
        30        13        14        31     9      180.000000        0.118834         4    ;  uncertainty k = 0.128780
        34        21        22        35     9        0.000000        1.940276         1    ;  uncertainty k = 0.479459
        34        21        22        35     9      180.000000       -3.202218         2    ;  uncertainty k = 0.395604
        34        21        22        35     9        0.000000       -0.042713         3    ;  uncertainty k = 0.144783
        34        21        22        35     9      180.000000        0.156423         4    ;  uncertainty k = 0.067087
        35        22        23        36     9        0.000000        1.378190         1    ;  uncertainty k = 0.555422
        35        22        23        36     9      180.000000       -0.344133         2    ;  uncertainty k = 0.209375
        35        22        23        36     9        0.000000        0.038599         3    ;  uncertainty k = 0.108848
        35        22        23        36     9      180.000000        0.041618         4    ;  uncertainty k = 0.018529
        35        22        23        37     9        0.000000        1.378190         1    ;  uncertainty k = 0.555422
        35        22        23        37     9      180.000000       -0.344133         2    ;  uncertainty k = 0.209375
        35        22        23        37     9        0.000000        0.038599         3    ;  uncertainty k = 0.108848
        35        22        23        37     9      180.000000        0.041618         4    ;  uncertainty k = 0.018529
        35        22        27        42     9        0.000000        1.378190         1    ;  uncertainty k = 0.555422
        35        22        27        42     9      180.000000       -0.344133         2    ;  uncertainty k = 0.209375
        35        22        27        42     9        0.000000        0.038598         3    ;  uncertainty k = 0.108848
        35        22        27        42     9      180.000000        0.041618         4    ;  uncertainty k = 0.018529
        35        22        27        43     9        0.000000        1.378190         1    ;  uncertainty k = 0.555422
        35        22        27        43     9      180.000000       -0.344133         2    ;  uncertainty k = 0.209375
        35        22        27        43     9        0.000000        0.038598         3    ;  uncertainty k = 0.108848
        35        22        27        43     9      180.000000        0.041618         4    ;  uncertainty k = 0.018529
        36        23        24        38     9        0.000000       -0.239915         1    ;  uncertainty k = 0.383569
        36        23        24        38     9      180.000000        0.715587         2    ;  uncertainty k = 0.310140
        36        23        24        38     9        0.000000        0.115000         3    ;  uncertainty k = 0.045361
        36        23        24        38     9      180.000000       -0.325374         4    ;  uncertainty k = 0.069124
        36        23        24        39     9        0.000000       -0.239915         1    ;  uncertainty k = 0.383569
        36        23        24        39     9      180.000000        0.715587         2    ;  uncertainty k = 0.310140
        36        23        24        39     9        0.000000        0.115000         3    ;  uncertainty k = 0.045361
        36        23        24        39     9      180.000000       -0.325374         4    ;  uncertainty k = 0.069124
        37        23        24        38     9        0.000000       -0.239915         1    ;  uncertainty k = 0.383569
        37        23        24        38     9      180.000000        0.715587         2    ;  uncertainty k = 0.310140
        37        23        24        38     9        0.000000        0.115000         3    ;  uncertainty k = 0.045361
        37        23        24        38     9      180.000000       -0.325374         4    ;  uncertainty k = 0.069124
        37        23        24        39     9        0.000000       -0.239915         1    ;  uncertainty k = 0.383569
        37        23        24        39     9      180.000000        0.715587         2    ;  uncertainty k = 0.310140
        37        23        24        39     9        0.000000        0.115000         3    ;  uncertainty k = 0.045361
        37        23        24        39     9      180.000000       -0.325374         4    ;  uncertainty k = 0.069124
        40        26        27        42     9        0.000000       -0.239915         1    ;  uncertainty k = 0.383568
        40        26        27        42     9      180.000000        0.715586         2    ;  uncertainty k = 0.310140
        40        26        27        42     9        0.000000        0.115000         3    ;  uncertainty k = 0.045361
        40        26        27        42     9      180.000000       -0.325374         4    ;  uncertainty k = 0.069124
        40        26        27        43     9        0.000000       -0.239915         1    ;  uncertainty k = 0.383568
        40        26        27        43     9      180.000000        0.715586         2    ;  uncertainty k = 0.310140
        40        26        27        43     9        0.000000        0.115000         3    ;  uncertainty k = 0.045361
        40        26        27        43     9      180.000000       -0.325374         4    ;  uncertainty k = 0.069124
        41        26        27        42     9        0.000000       -0.239915         1    ;  uncertainty k = 0.383568
        41        26        27        42     9      180.000000        0.715587         2    ;  uncertainty k = 0.310140
        41        26        27        42     9        0.000000        0.115000         3    ;  uncertainty k = 0.045361
        41        26        27        42     9      180.000000       -0.325374         4    ;  uncertainty k = 0.069124
        41        26        27        43     9        0.000000       -0.239915         1    ;  uncertainty k = 0.383568
        41        26        27        43     9      180.000000        0.715587         2    ;  uncertainty k = 0.310140
        41        26        27        43     9        0.000000        0.115000         3    ;  uncertainty k = 0.045361
        41        26        27        43     9      180.000000       -0.325374         4    ;  uncertainty k = 0.069124

[ dihedrals ] ; impropers
;       ai        aj        ak        al funct           phase               k        pn
         2         1         3         6     4      180.000000        2.833395         2    ;  uncertainty k = 1.376267
         2         3         6         1     4      180.000000        2.833395         2    ;  uncertainty k = 1.376267
         2         6         1         3     4      180.000000        2.833395         2    ;  uncertainty k = 1.376267
         3         2         4        16     4      180.000000        5.361893         2    ;  uncertainty k = 0.990709
         3         4        16         2     4      180.000000        5.361893         2    ;  uncertainty k = 0.990709
         3        16         2         4     4      180.000000        5.361893         2    ;  uncertainty k = 0.990709
         4         3         5        15     4      180.000000        2.498686         2    ;  uncertainty k = 0.371762
         4         5        15         3     4      180.000000        2.498686         2    ;  uncertainty k = 0.371762
         4        15         3         5     4      180.000000        2.498686         2    ;  uncertainty k = 0.371762
         5         1         4         9     4      180.000000        5.470434         2    ;  uncertainty k = 0.356711
         5         4         9         1     4      180.000000        5.470434         2    ;  uncertainty k = 0.356711
         5         9         1         4     4      180.000000        5.470434         2    ;  uncertainty k = 0.356711
         6         2         7         8     4      180.000000       66.076957         2    ;  uncertainty k = 0.057409
         6         7         8         2     4      180.000000       66.076957         2    ;  uncertainty k = 0.057409
         6         8         2         7     4      180.000000       66.076957         2    ;  uncertainty k = 0.057409
         9         5        10        14     4      180.000000       14.801118         2    ;  uncertainty k = 0.086155
         9        10        14         5     4      180.000000       14.801118         2    ;  uncertainty k = 0.086155
         9        14         5        10     4      180.000000       14.801118         2    ;  uncertainty k = 0.086155
        10         9        11        28     4      180.000000        2.257831         2    ;  uncertainty k = 0.405434
        10        11        28         9     4      180.000000        2.257831         2    ;  uncertainty k = 0.405434
        10        28         9        11     4      180.000000        2.257831         2    ;  uncertainty k = 0.405434
        11        10        12        21     4      180.000000       20.837342         2    ;  uncertainty k = 0.085707
        11        12        21        10     4      180.000000       20.837342         2    ;  uncertainty k = 0.085707
        11        21        10        12     4      180.000000       20.837342         2    ;  uncertainty k = 0.085707
        12        11        13        29     4      180.000000        2.355811         2    ;  uncertainty k = 0.307570
        12        13        29        11     4      180.000000        2.355811         2    ;  uncertainty k = 0.307570
        12        29        11        13     4      180.000000        2.355811         2    ;  uncertainty k = 0.307570
        13        12        14        30     4      180.000000        4.269650         2    ;  uncertainty k = 0.170671
        13        14        30        12     4      180.000000        4.269650         2    ;  uncertainty k = 0.170671
        13        30        12        14     4      180.000000        4.269650         2    ;  uncertainty k = 0.170671
        14         9        13        31     4      180.000000        3.287673         2    ;  uncertainty k = 0.208425
        14        13        31         9     4      180.000000        3.287673         2    ;  uncertainty k = 0.208425
        14        31         9        13     4      180.000000        3.287673         2    ;  uncertainty k = 0.208425
        18        17        19        20     4      180.000000       68.314311         2    ;  uncertainty k = 0.022612
        18        19        20        17     4      180.000000       68.314311         2    ;  uncertainty k = 0.022612
        18        20        17        19     4      180.000000       68.314311         2    ;  uncertainty k = 0.022612

[ pairs ]
;       ai        aj funct
         1         7     1
         1         8     1
         1        10     1
         1        14     1
         1        15     1
         1        16     1
         2         9     1
         2        15     1
         2        17     1
         3         7     1
         3         8     1
         3         9     1
         3        18     1
         3        32     1
         3        33     1
         4         6     1
         4        10     1
         4        14     1
         4        17     1
         5         6     1
         5        11     1
         5        13     1
         5        16     1
         5        28     1
         5        31     1
         6        16     1
         9        12     1
         9        15     1
         9        21     1
         9        30     1
        10        13     1
        10        22     1
        10        29     1
        10        31     1
        10        34     1
        11        14     1
        11        23     1
        11        27     1
        11        30     1
        11        35     1
        12        22     1
        12        28     1
        12        31     1
        12        34     1
        13        21     1
        14        28     1
        14        29     1
        15        16     1
        16        19     1
        16        20     1
        19        32     1
        19        33     1
        20        32     1
        20        33     1
        21        24     1
        21        26     1
        21        28     1
        21        29     1
        21        36     1
        21        37     1
        21        42     1
        21        43     1
        22        25     1
        22        38     1
        22        39     1
        22        40     1
        22        41     1
        23        26     1
        23        34     1
        23        42     1
        23        43     1
        24        27     1
        24        35     1
        24        40     1
        24        41     1
        25        36     1
        25        37     1
        25        42     1
        25        43     1
        26        35     1
        26        38     1
        26        39     1
        27        34     1
        27        36     1
        27        37     1
        29        30     1
        30        31     1
        34        35     1
        35        36     1
        35        37     1
        35        42     1
        35        43     1
        36        38     1
        36        39     1
        37        38     1
        37        39     1
        40        42     1
        40        43     1
        41        42     1
        41        43     1
