; ITP file created by ByteFF-joint-25, 2026-02-17 09:26:53.897863

[ atomtypes ]
;name           bonded.type        at.num        mass        charge   ptype           sigma         epsilon
 s0bf                                  16      0.0000       0.00000       A     3.53165e-01     1.18204e+00    ;  uncertainty sigma = 0.000053, epsilon = 0.003055
 c1bf                                   6      0.0000       0.00000       A     3.31495e-01     4.13373e-01    ;  uncertainty sigma = 0.000032, epsilon = 0.002340
 c2bf                                   6      0.0000       0.00000       A     3.31500e-01     4.12069e-01    ;  uncertainty sigma = 0.000033, epsilon = 0.001338
 c3bf                                   6      0.0000       0.00000       A     3.31511e-01     4.13455e-01    ;  uncertainty sigma = 0.000012, epsilon = 0.000975
 c4bf                                   6      0.0000       0.00000       A     3.31514e-01     4.13061e-01    ;  uncertainty sigma = 0.000022, epsilon = 0.000877
 c5bf                                   6      0.0000       0.00000       A     3.31529e-01     4.13194e-01    ;  uncertainty sigma = 0.000055, epsilon = 0.002345
 o6bf                                   8      0.0000       0.00000       A     3.04804e-01     6.11836e-01    ;  uncertainty sigma = 0.000044, epsilon = 0.001672
 o7bf                                   8      0.0000       0.00000       A     3.04804e-01     6.11836e-01    ;  uncertainty sigma = 0.000044, epsilon = 0.001672
 c8bf                                   6      0.0000       0.00000       A     3.31501e-01     4.12994e-01    ;  uncertainty sigma = 0.000011, epsilon = 0.000434
 c9bf                                   6      0.0000       0.00000       A     3.31536e-01     4.13432e-01    ;  uncertainty sigma = 0.000006, epsilon = 0.000407
 c10bf                                  6      0.0000       0.00000       A     3.31547e-01     4.13242e-01    ;  uncertainty sigma = 0.000019, epsilon = 0.000995
 c11bf                                  6      0.0000       0.00000       A     3.31529e-01     4.13413e-01    ;  uncertainty sigma = 0.000005, epsilon = 0.000648
 c12bf                                  6      0.0000       0.00000       A     3.31524e-01     4.13504e-01    ;  uncertainty sigma = 0.000003, epsilon = 0.000683
 c13bf                                  6      0.0000       0.00000       A     3.31520e-01     4.13276e-01    ;  uncertainty sigma = 0.000003, epsilon = 0.000632
 br14bf                                35      0.0000       0.00000       A     3.61258e-01     1.64394e+00    ;  uncertainty sigma = 0.000027, epsilon = 0.006365
 o15bf                                  8      0.0000       0.00000       A     3.15802e-01     3.03913e-01    ;  uncertainty sigma = 0.000078, epsilon = 0.010291
 c16bf                                  6      0.0000       0.00000       A     3.39717e-01     4.50736e-01    ;  uncertainty sigma = 0.000028, epsilon = 0.002811
 c17bf                                  6      0.0000       0.00000       A     3.31523e-01     4.12941e-01    ;  uncertainty sigma = 0.000026, epsilon = 0.002863
 o18bf                                  8      0.0000       0.00000       A     3.04805e-01     6.12312e-01    ;  uncertainty sigma = 0.000022, epsilon = 0.002455
 o19bf                                  8      0.0000       0.00000       A     3.04805e-01     6.12312e-01    ;  uncertainty sigma = 0.000022, epsilon = 0.002455
 n20bf                                  7      0.0000       0.00000       A     3.26979e-01     4.89929e-01    ;  uncertainty sigma = 0.000032, epsilon = 0.001070
 h21bf                                  1      0.0000       0.00000       A     2.62548e-01     6.70331e-02    ;  uncertainty sigma = 0.000013, epsilon = 0.000580
 h22bf                                  1      0.0000       0.00000       A     2.62558e-01     6.70546e-02    ;  uncertainty sigma = 0.000013, epsilon = 0.000516
 h23bf                                  1      0.0000       0.00000       A     2.62563e-01     6.69897e-02    ;  uncertainty sigma = 0.000012, epsilon = 0.000446
 h24bf                                  1      0.0000       0.00000       A     2.62561e-01     6.70429e-02    ;  uncertainty sigma = 0.000012, epsilon = 0.000452
 h25bf                                  1      0.0000       0.00000       A     2.42291e-01     8.67021e-02    ;  uncertainty sigma = 0.000194, epsilon = 0.000950
 h26bf                                  1      0.0000       0.00000       A     2.42291e-01     8.67021e-02    ;  uncertainty sigma = 0.000194, epsilon = 0.000950
 h27bf                                  1      0.0000       0.00000       A     1.10650e-01     4.17631e-02    ;  uncertainty sigma = 0.000097, epsilon = 0.001084
 c28bf                                  6      0.0000       0.00000       A     3.31480e-01     4.12622e-01    ;  uncertainty sigma = 0.000025, epsilon = 0.001566
 o29bf                                  8      0.0000       0.00000       A     3.04794e-01     6.12841e-01    ;  uncertainty sigma = 0.000016, epsilon = 0.001939
 n30bf                                  7      0.0000       0.00000       A     3.26945e-01     4.89824e-01    ;  uncertainty sigma = 0.000029, epsilon = 0.001293
 h31bf                                  1      0.0000       0.00000       A     1.10675e-01     4.09376e-02    ;  uncertainty sigma = 0.000105, epsilon = 0.001039
 c32bf                                  6      0.0000       0.00000       A     3.39771e-01     4.51174e-01    ;  uncertainty sigma = 0.000008, epsilon = 0.001198
 h33bf                                  1      0.0000       0.00000       A     2.42235e-01     8.70707e-02    ;  uncertainty sigma = 0.000051, epsilon = 0.000482
 c34bf                                  6      0.0000       0.00000       A     3.39774e-01     4.50901e-01    ;  uncertainty sigma = 0.000006, epsilon = 0.000670
 h35bf                                  1      0.0000       0.00000       A     2.60028e-01     8.68262e-02    ;  uncertainty sigma = 0.000009, epsilon = 0.000386
 h36bf                                  1      0.0000       0.00000       A     2.60028e-01     8.68262e-02    ;  uncertainty sigma = 0.000009, epsilon = 0.000386
 h37bf                                  1      0.0000       0.00000       A     2.60028e-01     8.68262e-02    ;  uncertainty sigma = 0.000009, epsilon = 0.000386
 c38bf                                  6      0.0000       0.00000       A     3.39774e-01     4.50901e-01    ;  uncertainty sigma = 0.000006, epsilon = 0.000670
 h39bf                                  1      0.0000       0.00000       A     2.60028e-01     8.68262e-02    ;  uncertainty sigma = 0.000009, epsilon = 0.000386
 h40bf                                  1      0.0000       0.00000       A     2.60028e-01     8.68262e-02    ;  uncertainty sigma = 0.000009, epsilon = 0.000386
 h41bf                                  1      0.0000       0.00000       A     2.60028e-01     8.68261e-02    ;  uncertainty sigma = 0.000009, epsilon = 0.000386

[ moleculetype ]
;name             nrexcl
 MOL                   3

[ atoms ]
;       nr            type      resi   res      atom      cgnr      charge          mass ; qtot
         1            s0bf         1   UNL        s0         1    -0.06026       32.0670 ; qtot   -0.060
         2            c1bf         1   UNL        c1         2    -0.15250       12.0110 ; qtot   -0.213
         3            c2bf         1   UNL        c2         3     0.12085       12.0110 ; qtot   -0.092
         4            c3bf         1   UNL        c3         4    -0.04845       12.0110 ; qtot   -0.140
         5            c4bf         1   UNL        c4         5    -0.04819       12.0110 ; qtot   -0.189
         6            c5bf         1   UNL        c5         6     0.93104       12.0110 ; qtot    0.742
         7            o6bf         1   UNL        o6         7    -0.81786       15.9990 ; qtot   -0.075
         8            o7bf         1   UNL        o7         8    -0.81786       15.9990 ; qtot   -0.893
         9            c8bf         1   UNL        c8         9     0.01916       12.0110 ; qtot   -0.874
        10            c9bf         1   UNL        c9        10    -0.15955       12.0110 ; qtot   -1.034
        11           c10bf         1   UNL       c10        11     0.08741       12.0110 ; qtot   -0.946
        12           c11bf         1   UNL       c11        12    -0.16450       12.0110 ; qtot   -1.111
        13           c12bf         1   UNL       c12        13    -0.09755       12.0110 ; qtot   -1.208
        14           c13bf         1   UNL       c13        14    -0.13744       12.0110 ; qtot   -1.346
        15          br14bf         1   UNL      br14        15    -0.09860       79.9040 ; qtot   -1.444
        16           o15bf         1   UNL       o15        16    -0.32674       15.9990 ; qtot   -1.771
        17           c16bf         1   UNL       c16        17    -0.04389       12.0110 ; qtot   -1.815
        18           c17bf         1   UNL       c17        18     0.91650       12.0110 ; qtot   -0.898
        19           o18bf         1   UNL       o18        19    -0.83281       15.9990 ; qtot   -1.731
        20           o19bf         1   UNL       o19        20    -0.83281       15.9990 ; qtot   -2.564
        21           n20bf         1   UNL       n20        21    -0.49001       14.0070 ; qtot   -3.054
        22           h21bf         1   UNL       h21        22     0.15665        1.0080 ; qtot   -2.897
        23           h22bf         1   UNL       h22        23     0.15184        1.0080 ; qtot   -2.746
        24           h23bf         1   UNL       h23        24     0.13564        1.0080 ; qtot   -2.610
        25           h24bf         1   UNL       h24        25     0.14276        1.0080 ; qtot   -2.467
        26           h25bf         1   UNL       h25        26     0.02291        1.0080 ; qtot   -2.444
        27           h26bf         1   UNL       h26        27     0.02291        1.0080 ; qtot   -2.421
        28           h27bf         1   UNL       h27        28     0.31716        1.0080 ; qtot   -2.104
        29           c28bf         1   UNL       c28        29     0.77581       12.0110 ; qtot   -1.328
        30           o29bf         1   UNL       o29        30    -0.61614       15.9990 ; qtot   -1.945
        31           n30bf         1   UNL       n30        31    -0.57277       14.0070 ; qtot   -2.517
        32           h31bf         1   UNL       h31        32     0.30331        1.0080 ; qtot   -2.214
        33           c32bf         1   UNL       c32        33     0.11089       12.0110 ; qtot   -2.103
        34           h33bf         1   UNL       h33        34     0.06773        1.0080 ; qtot   -2.035
        35           c34bf         1   UNL       c34        35    -0.10803       12.0110 ; qtot   -2.143
        36           h35bf         1   UNL       h35        36     0.04190        1.0080 ; qtot   -2.101
        37           h36bf         1   UNL       h36        37     0.04190        1.0080 ; qtot   -2.060
        38           h37bf         1   UNL       h37        38     0.04190        1.0080 ; qtot   -2.018
        39           c38bf         1   UNL       c38        39    -0.10803       12.0110 ; qtot   -2.126
        40           h39bf         1   UNL       h39        40     0.04190        1.0080 ; qtot   -2.084
        41           h40bf         1   UNL       h40        41     0.04190        1.0080 ; qtot   -2.042
        42           h41bf         1   UNL       h41        42     0.04192        1.0080 ; qtot   -2.000

[ bonds ]
;       ai        aj funct               r               k
         1         2     1        0.174192   168649.560181    ;  uncertainty r = 0.000346, k = 32.148596
         1         5     1        0.174357   166232.447241    ;  uncertainty r = 0.000237, k = 14.888510
         2         3     1        0.138080   385642.911377    ;  uncertainty r = 0.000134, k = 36.968685
         2         6     1        0.154055   191773.233960    ;  uncertainty r = 0.000283, k = 45.899503
         3         4     1        0.143810   249799.356152    ;  uncertainty r = 0.000373, k = 34.755195
         3        16     1        0.136007   307552.652637    ;  uncertainty r = 0.000403, k = 36.149075
         4         5     1        0.137757   380537.379248    ;  uncertainty r = 0.000227, k = 7.612841
         4        15     1        0.190420   156686.726831    ;  uncertainty r = 0.000144, k = 29.636935
         5         9     1        0.146512   276484.001074    ;  uncertainty r = 0.000140, k = 8.275699
         6         7     1        0.126149   550576.911523    ;  uncertainty r = 0.000229, k = 9.262788
         6         8     1        0.126149   550576.911523    ;  uncertainty r = 0.000229, k = 9.262788
         9        10     1        0.139886   342531.214404    ;  uncertainty r = 0.000122, k = 2.557408
         9        14     1        0.140217   349501.287500    ;  uncertainty r = 0.000027, k = 3.618530
        10        11     1        0.139988   347432.909326    ;  uncertainty r = 0.000047, k = 3.452638
        10        22     1        0.108757   335709.231006    ;  uncertainty r = 0.000024, k = 2.647791
        11        12     1        0.140252   353114.482031    ;  uncertainty r = 0.000052, k = 2.025022
        11        21     1        0.141106   328319.174609    ;  uncertainty r = 0.000066, k = 4.133441
        12        13     1        0.139387   370838.997998    ;  uncertainty r = 0.000034, k = 2.870083
        12        23     1        0.108690   336235.806201    ;  uncertainty r = 0.000009, k = 2.545315
        13        14     1        0.139378   367329.535205    ;  uncertainty r = 0.000030, k = 1.881443
        13        24     1        0.108779   332372.475684    ;  uncertainty r = 0.000014, k = 1.522704
        14        25     1        0.108759   334843.242090    ;  uncertainty r = 0.000027, k = 0.771472
        16        17     1        0.144489   220596.573486    ;  uncertainty r = 0.000632, k = 19.356591
        17        18     1        0.155273   162501.513867    ;  uncertainty r = 0.000271, k = 66.063610
        17        26     1        0.109682   316919.485596    ;  uncertainty r = 0.000081, k = 8.518153
        17        27     1        0.109682   316919.485596    ;  uncertainty r = 0.000081, k = 8.518153
        18        19     1        0.126286   541570.585938    ;  uncertainty r = 0.000058, k = 12.189171
        18        20     1        0.126286   541570.585938    ;  uncertainty r = 0.000058, k = 12.189171
        21        28     1        0.101785   428000.369824    ;  uncertainty r = 0.000060, k = 1.542976
        21        29     1        0.140018   416752.345703    ;  uncertainty r = 0.000098, k = 15.151675
        29        30     1        0.123958   886230.241797    ;  uncertainty r = 0.000145, k = 12.509211
        29        31     1        0.138650   368606.033154    ;  uncertainty r = 0.000154, k = 11.441676
        31        32     1        0.101664   421754.631299    ;  uncertainty r = 0.000064, k = 4.964227
        31        33     1        0.146901   254754.985449    ;  uncertainty r = 0.000096, k = 9.860821
        33        34     1        0.109331   307847.146582    ;  uncertainty r = 0.000063, k = 3.106543
        33        35     1        0.153570   219009.595361    ;  uncertainty r = 0.000020, k = 4.557634
        33        39     1        0.153570   219009.595361    ;  uncertainty r = 0.000020, k = 4.557634
        35        36     1        0.109621   310816.295215    ;  uncertainty r = 0.000016, k = 1.627803
        35        37     1        0.109621   310816.295215    ;  uncertainty r = 0.000016, k = 1.627803
        35        38     1        0.109621   310816.295215    ;  uncertainty r = 0.000016, k = 1.627803
        39        40     1        0.109621   310816.295215    ;  uncertainty r = 0.000016, k = 1.627826
        39        41     1        0.109621   310816.295215    ;  uncertainty r = 0.000016, k = 1.627798
        39        42     1        0.109621   310816.295215    ;  uncertainty r = 0.000016, k = 1.627805

[ angles ]
;       ai        aj        ak funct           theta             cth
         1         2         3     1      112.357254      490.287825    ;  uncertainty theta = 0.005257, k = 0.446159
         1         2         6     1      115.451401      321.272126    ;  uncertainty theta = 0.011344, k = 0.278095
         1         5         4     1      111.659386      449.584992    ;  uncertainty theta = 0.002310, k = 0.394971
         1         5         9     1      118.743629      342.105332    ;  uncertainty theta = 0.007439, k = 0.158122
         2         1         5     1       93.409683     1113.970975    ;  uncertainty theta = 0.008532, k = 0.189168
         2         3         4     1      115.069199      491.410436    ;  uncertainty theta = 0.004813, k = 0.280924
         2         3        16     1      123.043716      386.336563    ;  uncertainty theta = 0.006879, k = 0.395881
         2         6         7     1      114.979454      369.254791    ;  uncertainty theta = 0.012630, k = 0.171059
         2         6         8     1      114.979454      369.254791    ;  uncertainty theta = 0.012630, k = 0.171059
         3         2         6     1      128.246002      305.353665    ;  uncertainty theta = 0.014744, k = 0.309527
         3         4         5     1      117.601578      512.725910    ;  uncertainty theta = 0.003379, k = 0.473085
         3         4        15     1      119.051048      364.447781    ;  uncertainty theta = 0.003204, k = 0.273279
         3        16        17     1      112.137527      461.556502    ;  uncertainty theta = 0.007449, k = 0.230739
         4         3        16     1      118.536453      394.142587    ;  uncertainty theta = 0.008837, k = 0.130964
         4         5         9     1      126.542969      327.867372    ;  uncertainty theta = 0.004382, k = 0.182532
         5         4        15     1      120.673264      351.209758    ;  uncertainty theta = 0.006817, k = 0.079938
         5         9        10     1      120.221390      417.614830    ;  uncertainty theta = 0.002939, k = 0.118249
         5         9        14     1      121.195702      420.117339    ;  uncertainty theta = 0.001861, k = 0.070317
         7         6         8     1      131.649750      807.008217    ;  uncertainty theta = 0.009047, k = 0.187853
         9        10        11     1      120.358192      522.942542    ;  uncertainty theta = 0.003656, k = 0.068928
         9        10        22     1      119.979576      285.681408    ;  uncertainty theta = 0.002002, k = 0.089871
         9        14        13     1      119.256271      529.901468    ;  uncertainty theta = 0.001553, k = 0.054364
         9        14        25     1      119.517700      279.527092    ;  uncertainty theta = 0.002370, k = 0.060327
        10         9        14     1      120.984581      396.073033    ;  uncertainty theta = 0.004103, k = 0.161286
        10        11        12     1      120.174355      375.669361    ;  uncertainty theta = 0.007561, k = 0.086686
        10        11        21     1      119.559860      535.215102    ;  uncertainty theta = 0.005240, k = 0.134938
        11        10        22     1      119.032532      273.523829    ;  uncertainty theta = 0.001345, k = 0.064128
        11        12        13     1      118.498917      511.818672    ;  uncertainty theta = 0.001442, k = 0.097360
        11        12        23     1      118.932175      268.275729    ;  uncertainty theta = 0.000696, k = 0.039191
        11        21        28     1      114.340256      299.131931    ;  uncertainty theta = 0.005129, k = 0.415017
        11        21        29     1      118.998802      400.943151    ;  uncertainty theta = 0.007414, k = 0.046774
        12        11        21     1      120.240517      545.086727    ;  uncertainty theta = 0.005207, k = 0.088594
        12        13        14     1      120.910721      499.359468    ;  uncertainty theta = 0.002095, k = 0.080237
        12        13        24     1      119.820412      279.895306    ;  uncertainty theta = 0.001205, k = 0.045846
        13        12        23     1      121.109985      318.572822    ;  uncertainty theta = 0.001307, k = 0.114186
        13        14        25     1      120.788986      296.778750    ;  uncertainty theta = 0.001122, k = 0.065456
        14        13        24     1      120.083252      281.235685    ;  uncertainty theta = 0.000949, k = 0.026108
        16        17        18     1      108.358414      484.414258    ;  uncertainty theta = 0.009599, k = 0.239378
        16        17        26     1      106.609215      413.715920    ;  uncertainty theta = 0.002333, k = 0.101205
        16        17        27     1      106.609215      413.715920    ;  uncertainty theta = 0.002333, k = 0.101205
        17        18        19     1      116.281067      425.507680    ;  uncertainty theta = 0.009799, k = 0.299635
        17        18        20     1      116.281067      425.507680    ;  uncertainty theta = 0.009799, k = 0.299635
        18        17        26     1      110.053444      352.214644    ;  uncertainty theta = 0.003968, k = 0.110269
        18        17        27     1      110.053444      352.214644    ;  uncertainty theta = 0.003968, k = 0.110269
        19        18        20     1      131.546265      818.159315    ;  uncertainty theta = 0.002374, k = 0.066126
        21        29        30     1      124.555199      693.507257    ;  uncertainty theta = 0.003860, k = 0.054264
        21        29        31     1      113.823692      618.033160    ;  uncertainty theta = 0.004213, k = 0.079357
        26        17        27     1      108.449631      321.244163    ;  uncertainty theta = 0.009962, k = 0.176306
        28        21        29     1      115.950485      313.688084    ;  uncertainty theta = 0.002134, k = 0.188192
        29        31        32     1      114.594742      315.852386    ;  uncertainty theta = 0.002962, k = 0.122326
        29        31        33     1      116.408401      421.295844    ;  uncertainty theta = 0.004484, k = 0.086167
        30        29        31     1      125.854935      739.148009    ;  uncertainty theta = 0.003788, k = 0.114085
        31        33        34     1      104.547363      435.456682    ;  uncertainty theta = 0.002022, k = 0.082712
        31        33        35     1      110.508286      641.097384    ;  uncertainty theta = 0.001329, k = 0.141740
        31        33        39     1      110.508286      641.097384    ;  uncertainty theta = 0.001329, k = 0.141739
        32        31        33     1      111.767960      333.668573    ;  uncertainty theta = 0.002821, k = 0.113683
        33        35        36     1      107.673584      403.386733    ;  uncertainty theta = 0.001722, k = 0.061355
        33        35        37     1      107.673584      403.386733    ;  uncertainty theta = 0.001722, k = 0.061355
        33        35        38     1      107.673584      403.386733    ;  uncertainty theta = 0.001722, k = 0.061355
        33        39        40     1      107.673584      403.386733    ;  uncertainty theta = 0.001722, k = 0.061355
        33        39        41     1      107.673569      403.386733    ;  uncertainty theta = 0.001722, k = 0.061355
        33        39        42     1      107.673569      403.386733    ;  uncertainty theta = 0.001722, k = 0.061355
        34        33        35     1      107.374878      405.308880    ;  uncertainty theta = 0.001573, k = 0.045117
        34        33        39     1      107.374878      405.308848    ;  uncertainty theta = 0.001573, k = 0.045117
        35        33        39     1      110.804672      584.528984    ;  uncertainty theta = 0.001735, k = 0.103785
        36        35        37     1      105.351479      316.247796    ;  uncertainty theta = 0.001605, k = 0.020124
        36        35        38     1      105.351479      316.247796    ;  uncertainty theta = 0.001605, k = 0.020124
        37        35        38     1      105.351479      316.247796    ;  uncertainty theta = 0.001605, k = 0.020124
        40        39        41     1      105.351479      316.247796    ;  uncertainty theta = 0.001605, k = 0.020124
        40        39        42     1      105.351479      316.247796    ;  uncertainty theta = 0.001605, k = 0.020123
        41        39        42     1      105.351479      316.247796    ;  uncertainty theta = 0.001605, k = 0.020124

[ dihedrals ] ; propers for gromacs 4.5 or higher, use funct 9
;       ai        aj        ak        al funct           phase               k        pn
         1         2         3         4     9        0.000000       -0.320833         1    ;  uncertainty k = 0.754080
         1         2         3         4     9      180.000000       17.555282         2    ;  uncertainty k = 0.424189
         1         2         3         4     9        0.000000       -2.376894         3    ;  uncertainty k = 1.115238
         1         2         3         4     9      180.000000        0.923152         4    ;  uncertainty k = 0.610957
         1         2         3        16     9        0.000000        0.376558         1    ;  uncertainty k = 1.230098
         1         2         3        16     9      180.000000       18.623043         2    ;  uncertainty k = 0.210713
         1         2         3        16     9        0.000000        1.608484         3    ;  uncertainty k = 0.452084
         1         2         3        16     9      180.000000        0.624278         4    ;  uncertainty k = 0.345564
         1         2         6         7     9        0.000000        0.648298         1    ;  uncertainty k = 2.496588
         1         2         6         7     9      180.000000        4.832235         2    ;  uncertainty k = 0.504618
         1         2         6         7     9        0.000000        0.188147         3    ;  uncertainty k = 0.527138
         1         2         6         7     9      180.000000        0.229089         4    ;  uncertainty k = 0.149777
         1         2         6         8     9        0.000000        0.648298         1    ;  uncertainty k = 2.496588
         1         2         6         8     9      180.000000        4.832235         2    ;  uncertainty k = 0.504618
         1         2         6         8     9        0.000000        0.188147         3    ;  uncertainty k = 0.527138
         1         2         6         8     9      180.000000        0.229089         4    ;  uncertainty k = 0.149777
         1         5         4         3     9        0.000000       -0.230943         1    ;  uncertainty k = 0.350057
         1         5         4         3     9      180.000000       15.958089         2    ;  uncertainty k = 0.404103
         1         5         4         3     9        0.000000       -2.380903         3    ;  uncertainty k = 0.809268
         1         5         4         3     9      180.000000        0.865666         4    ;  uncertainty k = 0.750586
         1         5         4        15     9        0.000000        0.242023         1    ;  uncertainty k = 0.389261
         1         5         4        15     9      180.000000       12.724293         2    ;  uncertainty k = 0.534639
         1         5         4        15     9        0.000000        2.310394         3    ;  uncertainty k = 0.489088
         1         5         4        15     9      180.000000        0.570757         4    ;  uncertainty k = 0.408314
         1         5         9        10     9        0.000000       -0.474779         1    ;  uncertainty k = 0.418464
         1         5         9        10     9      180.000000        3.294062         2    ;  uncertainty k = 0.076878
         1         5         9        10     9        0.000000        0.351201         3    ;  uncertainty k = 0.243081
         1         5         9        10     9      180.000000        0.149304         4    ;  uncertainty k = 0.135050
         1         5         9        14     9        0.000000       -0.213944         1    ;  uncertainty k = 0.541414
         1         5         9        14     9      180.000000        3.329723         2    ;  uncertainty k = 0.238002
         1         5         9        14     9        0.000000        0.475158         3    ;  uncertainty k = 0.251909
         1         5         9        14     9      180.000000        0.111308         4    ;  uncertainty k = 0.126160
         2         1         5         4     9        0.000000       -0.381502         1    ;  uncertainty k = 1.018320
         2         1         5         4     9      180.000000       14.624384         2    ;  uncertainty k = 0.929119
         2         1         5         4     9        0.000000       -6.005800         3    ;  uncertainty k = 1.036762
         2         1         5         4     9      180.000000        1.151585         4    ;  uncertainty k = 0.363309
         2         1         5         9     9        0.000000        0.634750         1    ;  uncertainty k = 1.300799
         2         1         5         9     9      180.000000       11.655227         2    ;  uncertainty k = 0.619935
         2         1         5         9     9        0.000000        0.976157         3    ;  uncertainty k = 1.170238
         2         1         5         9     9      180.000000       -0.041024         4    ;  uncertainty k = 0.486609
         2         3         4         5     9        0.000000       -0.163892         1    ;  uncertainty k = 0.802841
         2         3         4         5     9      180.000000        9.355372         2    ;  uncertainty k = 0.794784
         2         3         4         5     9        0.000000       -2.165171         3    ;  uncertainty k = 0.822975
         2         3         4         5     9      180.000000        0.987821         4    ;  uncertainty k = 0.358170
         2         3         4        15     9        0.000000        0.463445         1    ;  uncertainty k = 0.544884
         2         3         4        15     9      180.000000        7.807701         2    ;  uncertainty k = 0.817270
         2         3         4        15     9        0.000000        1.640989         3    ;  uncertainty k = 0.318182
         2         3         4        15     9      180.000000        0.389068         4    ;  uncertainty k = 0.234157
         2         3        16        17     9        0.000000        0.562638         1    ;  uncertainty k = 2.473037
         2         3        16        17     9      180.000000        4.453660         2    ;  uncertainty k = 1.236403
         2         3        16        17     9        0.000000       -0.243071         3    ;  uncertainty k = 0.584348
         2         3        16        17     9      180.000000        0.011309         4    ;  uncertainty k = 0.249195
         3         2         1         5     9        0.000000       -1.343735         1    ;  uncertainty k = 1.825069
         3         2         1         5     9      180.000000       12.410483         2    ;  uncertainty k = 0.765515
         3         2         1         5     9        0.000000       -3.924755         3    ;  uncertainty k = 1.286096
         3         2         1         5     9      180.000000        1.226932         4    ;  uncertainty k = 0.620813
         3         2         6         7     9        0.000000       -0.600971         1    ;  uncertainty k = 1.233380
         3         2         6         7     9      180.000000        2.750847         2    ;  uncertainty k = 0.470266
         3         2         6         7     9        0.000000        0.420307         3    ;  uncertainty k = 0.314900
         3         2         6         7     9      180.000000        0.072508         4    ;  uncertainty k = 0.103468
         3         2         6         8     9        0.000000       -0.600971         1    ;  uncertainty k = 1.233380
         3         2         6         8     9      180.000000        2.750847         2    ;  uncertainty k = 0.470266
         3         2         6         8     9        0.000000        0.420307         3    ;  uncertainty k = 0.314900
         3         2         6         8     9      180.000000        0.072508         4    ;  uncertainty k = 0.103468
         3         4         5         9     9        0.000000        0.206053         1    ;  uncertainty k = 0.214193
         3         4         5         9     9      180.000000       11.437435         2    ;  uncertainty k = 0.269987
         3         4         5         9     9        0.000000        1.975109         3    ;  uncertainty k = 0.453655
         3         4         5         9     9      180.000000        0.656640         4    ;  uncertainty k = 0.316124
         3        16        17        18     9        0.000000       -2.546996         1    ;  uncertainty k = 2.263476
         3        16        17        18     9      180.000000       -2.071281         2    ;  uncertainty k = 0.852216
         3        16        17        18     9        0.000000        0.377848         3    ;  uncertainty k = 0.447363
         3        16        17        18     9      180.000000        0.728091         4    ;  uncertainty k = 0.372243
         3        16        17        26     9        0.000000        1.943735         1    ;  uncertainty k = 0.725643
         3        16        17        26     9      180.000000       -1.013528         2    ;  uncertainty k = 0.770891
         3        16        17        26     9        0.000000        0.504468         3    ;  uncertainty k = 0.367188
         3        16        17        26     9      180.000000        0.022954         4    ;  uncertainty k = 0.163828
         3        16        17        27     9        0.000000        1.943735         1    ;  uncertainty k = 0.725643
         3        16        17        27     9      180.000000       -1.013528         2    ;  uncertainty k = 0.770891
         3        16        17        27     9        0.000000        0.504468         3    ;  uncertainty k = 0.367188
         3        16        17        27     9      180.000000        0.022954         4    ;  uncertainty k = 0.163828
         4         3         2         6     9        0.000000        0.750539         1    ;  uncertainty k = 1.420042
         4         3         2         6     9      180.000000        9.225337         2    ;  uncertainty k = 0.449657
         4         3         2         6     9        0.000000        2.146628         3    ;  uncertainty k = 0.096833
         4         3         2         6     9      180.000000        0.908103         4    ;  uncertainty k = 0.276689
         4         3        16        17     9        0.000000        4.003546         1    ;  uncertainty k = 2.209639
         4         3        16        17     9      180.000000        4.149396         2    ;  uncertainty k = 0.785914
         4         3        16        17     9        0.000000        0.594406         3    ;  uncertainty k = 0.772201
         4         3        16        17     9      180.000000       -0.129795         4    ;  uncertainty k = 0.090251
         4         5         9        10     9        0.000000        0.495880         1    ;  uncertainty k = 0.338373
         4         5         9        10     9      180.000000        3.051242         2    ;  uncertainty k = 0.251924
         4         5         9        10     9        0.000000        0.465420         3    ;  uncertainty k = 0.507936
         4         5         9        10     9      180.000000        0.011763         4    ;  uncertainty k = 0.114262
         4         5         9        14     9        0.000000        0.472376         1    ;  uncertainty k = 0.563434
         4         5         9        14     9      180.000000        3.094093         2    ;  uncertainty k = 0.272670
         4         5         9        14     9        0.000000        0.477061         3    ;  uncertainty k = 0.386712
         4         5         9        14     9      180.000000       -0.024678         4    ;  uncertainty k = 0.124685
         5         1         2         6     9        0.000000        0.451497         1    ;  uncertainty k = 2.202869
         5         1         2         6     9      180.000000        8.209202         2    ;  uncertainty k = 0.569487
         5         1         2         6     9        0.000000        1.043882         3    ;  uncertainty k = 0.663821
         5         1         2         6     9      180.000000        0.550351         4    ;  uncertainty k = 0.309694
         5         4         3        16     9        0.000000        0.887263         1    ;  uncertainty k = 1.387606
         5         4         3        16     9      180.000000       11.850633         2    ;  uncertainty k = 0.768527
         5         4         3        16     9        0.000000        1.717065         3    ;  uncertainty k = 0.314044
         5         4         3        16     9      180.000000        0.438991         4    ;  uncertainty k = 0.459203
         5         9        10        11     9        0.000000        0.154111         1    ;  uncertainty k = 0.239928
         5         9        10        11     9      180.000000        8.386185         2    ;  uncertainty k = 0.748527
         5         9        10        11     9        0.000000        1.310755         3    ;  uncertainty k = 0.373920
         5         9        10        11     9      180.000000        1.688415         4    ;  uncertainty k = 0.156642
         5         9        10        22     9        0.000000       -0.175096         1    ;  uncertainty k = 0.423297
         5         9        10        22     9      180.000000        7.062656         2    ;  uncertainty k = 0.411058
         5         9        10        22     9        0.000000        0.737818         3    ;  uncertainty k = 0.239218
         5         9        10        22     9      180.000000        1.252521         4    ;  uncertainty k = 0.190706
         5         9        14        13     9        0.000000        0.000208         1    ;  uncertainty k = 0.352601
         5         9        14        13     9      180.000000        8.999778         2    ;  uncertainty k = 0.483884
         5         9        14        13     9        0.000000        1.126075         3    ;  uncertainty k = 0.284053
         5         9        14        13     9      180.000000        1.726652         4    ;  uncertainty k = 0.166110
         5         9        14        25     9        0.000000       -0.167551         1    ;  uncertainty k = 0.572212
         5         9        14        25     9      180.000000        6.857422         2    ;  uncertainty k = 0.373088
         5         9        14        25     9        0.000000        0.757356         3    ;  uncertainty k = 0.226238
         5         9        14        25     9      180.000000        1.251405         4    ;  uncertainty k = 0.166929
         6         2         3        16     9        0.000000       -0.665249         1    ;  uncertainty k = 0.977507
         6         2         3        16     9      180.000000       11.691680         2    ;  uncertainty k = 0.581130
         6         2         3        16     9        0.000000        1.652052         3    ;  uncertainty k = 0.309495
         6         2         3        16     9      180.000000        0.410579         4    ;  uncertainty k = 0.549466
         9         5         4        15     9        0.000000        0.039778         1    ;  uncertainty k = 0.682298
         9         5         4        15     9      180.000000        8.647905         2    ;  uncertainty k = 0.565831
         9         5         4        15     9        0.000000        1.537070         3    ;  uncertainty k = 0.088387
         9         5         4        15     9      180.000000        0.835150         4    ;  uncertainty k = 0.165388
         9        10        11        12     9        0.000000       -0.100195         1    ;  uncertainty k = 0.216908
         9        10        11        12     9      180.000000        9.452816         2    ;  uncertainty k = 0.467296
         9        10        11        12     9        0.000000        0.175834         3    ;  uncertainty k = 0.173769
         9        10        11        12     9      180.000000        1.210952         4    ;  uncertainty k = 0.318163
         9        10        11        21     9        0.000000       -0.071838         1    ;  uncertainty k = 0.430691
         9        10        11        21     9      180.000000       10.529738         2    ;  uncertainty k = 0.473782
         9        10        11        21     9        0.000000        1.222625         3    ;  uncertainty k = 0.365429
         9        10        11        21     9      180.000000        1.625518         4    ;  uncertainty k = 0.289121
         9        14        13        12     9        0.000000       -0.114763         1    ;  uncertainty k = 0.200183
         9        14        13        12     9      180.000000       14.829703         2    ;  uncertainty k = 0.428404
         9        14        13        12     9        0.000000       -1.034917         3    ;  uncertainty k = 0.303204
         9        14        13        12     9      180.000000        0.564860         4    ;  uncertainty k = 0.299550
         9        14        13        24     9        0.000000        0.072135         1    ;  uncertainty k = 0.069467
         9        14        13        24     9      180.000000        7.747807         2    ;  uncertainty k = 0.303594
         9        14        13        24     9        0.000000        1.328020         3    ;  uncertainty k = 0.275578
         9        14        13        24     9      180.000000        1.821017         4    ;  uncertainty k = 0.104489
        10         9        14        13     9        0.000000       -0.290993         1    ;  uncertainty k = 0.108067
        10         9        14        13     9      180.000000       11.647719         2    ;  uncertainty k = 0.343553
        10         9        14        13     9        0.000000       -0.498501         3    ;  uncertainty k = 0.136486
        10         9        14        13     9      180.000000        0.906182         4    ;  uncertainty k = 0.243379
        10         9        14        25     9        0.000000        0.078397         1    ;  uncertainty k = 0.288544
        10         9        14        25     9      180.000000        7.019759         2    ;  uncertainty k = 0.608198
        10         9        14        25     9        0.000000        1.437406         3    ;  uncertainty k = 0.221441
        10         9        14        25     9      180.000000        1.639851         4    ;  uncertainty k = 0.274366
        10        11        12        13     9        0.000000       -0.168548         1    ;  uncertainty k = 0.151960
        10        11        12        13     9      180.000000        9.595854         2    ;  uncertainty k = 0.377655
        10        11        12        13     9        0.000000        0.013002         3    ;  uncertainty k = 0.103057
        10        11        12        13     9      180.000000        1.237868         4    ;  uncertainty k = 0.229729
        10        11        12        23     9        0.000000        0.135380         1    ;  uncertainty k = 0.422571
        10        11        12        23     9      180.000000        6.793088         2    ;  uncertainty k = 0.443901
        10        11        12        23     9        0.000000        1.292531         3    ;  uncertainty k = 0.327639
        10        11        12        23     9      180.000000        1.526885         4    ;  uncertainty k = 0.139203
        10        11        21        28     9        0.000000        0.928656         1    ;  uncertainty k = 0.953192
        10        11        21        28     9      180.000000        3.796885         2    ;  uncertainty k = 0.364158
        10        11        21        28     9        0.000000        0.608500         3    ;  uncertainty k = 0.201855
        10        11        21        28     9      180.000000        0.133838         4    ;  uncertainty k = 0.080614
        10        11        21        29     9        0.000000        0.896190         1    ;  uncertainty k = 0.657391
        10        11        21        29     9      180.000000        4.387456         2    ;  uncertainty k = 0.378747
        10        11        21        29     9        0.000000        0.979503         3    ;  uncertainty k = 0.211947
        10        11        21        29     9      180.000000        0.322131         4    ;  uncertainty k = 0.073368
        11        10         9        14     9        0.000000       -0.135438         1    ;  uncertainty k = 0.172742
        11        10         9        14     9      180.000000       10.868409         2    ;  uncertainty k = 0.273544
        11        10         9        14     9        0.000000       -0.118185         3    ;  uncertainty k = 0.119628
        11        10         9        14     9      180.000000        1.053660         4    ;  uncertainty k = 0.187326
        11        12        13        14     9        0.000000       -0.244529         1    ;  uncertainty k = 0.267142
        11        12        13        14     9      180.000000       14.169316         2    ;  uncertainty k = 0.120609
        11        12        13        14     9        0.000000       -0.848213         3    ;  uncertainty k = 0.387023
        11        12        13        14     9      180.000000        0.751178         4    ;  uncertainty k = 0.236572
        11        12        13        24     9        0.000000       -0.007345         1    ;  uncertainty k = 0.228516
        11        12        13        24     9      180.000000        8.101303         2    ;  uncertainty k = 0.506373
        11        12        13        24     9        0.000000        1.263016         3    ;  uncertainty k = 0.273163
        11        12        13        24     9      180.000000        1.652859         4    ;  uncertainty k = 0.073833
        11        21        29        30     9        0.000000        5.934500         1    ;  uncertainty k = 0.948852
        11        21        29        30     9      180.000000        8.555609         2    ;  uncertainty k = 0.322943
        11        21        29        30     9        0.000000        1.394115         3    ;  uncertainty k = 0.156057
        11        21        29        30     9      180.000000       -0.373262         4    ;  uncertainty k = 0.057547
        11        21        29        31     9        0.000000        6.505686         1    ;  uncertainty k = 0.446125
        11        21        29        31     9      180.000000        5.346035         2    ;  uncertainty k = 0.786651
        11        21        29        31     9        0.000000        0.368342         3    ;  uncertainty k = 0.161553
        11        21        29        31     9      180.000000       -0.043089         4    ;  uncertainty k = 0.290261
        12        11        10        22     9        0.000000        0.223514         1    ;  uncertainty k = 0.336805
        12        11        10        22     9      180.000000        6.938638         2    ;  uncertainty k = 0.428672
        12        11        10        22     9        0.000000        1.318765         3    ;  uncertainty k = 0.278067
        12        11        10        22     9      180.000000        1.587970         4    ;  uncertainty k = 0.176501
        12        11        21        28     9        0.000000        0.462680         1    ;  uncertainty k = 0.958487
        12        11        21        28     9      180.000000        3.733589         2    ;  uncertainty k = 0.194798
        12        11        21        28     9        0.000000        0.563739         3    ;  uncertainty k = 0.135887
        12        11        21        28     9      180.000000        0.182603         4    ;  uncertainty k = 0.065350
        12        11        21        29     9        0.000000        1.268112         1    ;  uncertainty k = 0.772485
        12        11        21        29     9      180.000000        4.241684         2    ;  uncertainty k = 0.213075
        12        11        21        29     9        0.000000        0.990836         3    ;  uncertainty k = 0.221458
        12        11        21        29     9      180.000000        0.311934         4    ;  uncertainty k = 0.055013
        12        13        14        25     9        0.000000        0.106754         1    ;  uncertainty k = 0.253546
        12        13        14        25     9      180.000000        7.844379         2    ;  uncertainty k = 0.255195
        12        13        14        25     9        0.000000        1.387628         3    ;  uncertainty k = 0.250114
        12        13        14        25     9      180.000000        1.842626         4    ;  uncertainty k = 0.123141
        13        12        11        21     9        0.000000        0.000677         1    ;  uncertainty k = 0.240323
        13        12        11        21     9      180.000000       10.391199         2    ;  uncertainty k = 0.545169
        13        12        11        21     9        0.000000        1.147947         3    ;  uncertainty k = 0.448567
        13        12        11        21     9      180.000000        1.684941         4    ;  uncertainty k = 0.281812
        14         9        10        22     9        0.000000        0.218984         1    ;  uncertainty k = 0.202246
        14         9        10        22     9      180.000000        7.083084         2    ;  uncertainty k = 0.521650
        14         9        10        22     9        0.000000        1.580127         3    ;  uncertainty k = 0.139107
        14         9        10        22     9      180.000000        1.691452         4    ;  uncertainty k = 0.229405
        14        13        12        23     9        0.000000        0.079844         1    ;  uncertainty k = 0.053340
        14        13        12        23     9      180.000000        7.970340         2    ;  uncertainty k = 0.345127
        14        13        12        23     9        0.000000        1.521764         3    ;  uncertainty k = 0.239773
        14        13        12        23     9      180.000000        1.856003         4    ;  uncertainty k = 0.164728
        15         4         3        16     9        0.000000       -0.300934         1    ;  uncertainty k = 0.650861
        15         4         3        16     9      180.000000        9.165092         2    ;  uncertainty k = 0.275746
        15         4         3        16     9        0.000000        1.456381         3    ;  uncertainty k = 0.310393
        15         4         3        16     9      180.000000        0.631618         4    ;  uncertainty k = 0.388932
        16        17        18        19     9        0.000000        1.079222         1    ;  uncertainty k = 0.841475
        16        17        18        19     9      180.000000        5.864588         2    ;  uncertainty k = 0.515928
        16        17        18        19     9        0.000000        1.140649         3    ;  uncertainty k = 0.463168
        16        17        18        19     9      180.000000        0.279519         4    ;  uncertainty k = 0.238932
        16        17        18        20     9        0.000000        1.079222         1    ;  uncertainty k = 0.841475
        16        17        18        20     9      180.000000        5.864588         2    ;  uncertainty k = 0.515928
        16        17        18        20     9        0.000000        1.140649         3    ;  uncertainty k = 0.463168
        16        17        18        20     9      180.000000        0.279519         4    ;  uncertainty k = 0.238932
        19        18        17        26     9        0.000000       -2.498422         1    ;  uncertainty k = 1.124580
        19        18        17        26     9      180.000000        1.806048         2    ;  uncertainty k = 0.648461
        19        18        17        26     9        0.000000        0.840718         3    ;  uncertainty k = 0.199496
        19        18        17        26     9      180.000000        0.238884         4    ;  uncertainty k = 0.091169
        19        18        17        27     9        0.000000       -2.498422         1    ;  uncertainty k = 1.124580
        19        18        17        27     9      180.000000        1.806048         2    ;  uncertainty k = 0.648461
        19        18        17        27     9        0.000000        0.840718         3    ;  uncertainty k = 0.199496
        19        18        17        27     9      180.000000        0.238884         4    ;  uncertainty k = 0.091169
        20        18        17        26     9        0.000000       -2.498422         1    ;  uncertainty k = 1.124580
        20        18        17        26     9      180.000000        1.806048         2    ;  uncertainty k = 0.648461
        20        18        17        26     9        0.000000        0.840718         3    ;  uncertainty k = 0.199496
        20        18        17        26     9      180.000000        0.238884         4    ;  uncertainty k = 0.091169
        20        18        17        27     9        0.000000       -2.498422         1    ;  uncertainty k = 1.124580
        20        18        17        27     9      180.000000        1.806048         2    ;  uncertainty k = 0.648461
        20        18        17        27     9        0.000000        0.840718         3    ;  uncertainty k = 0.199496
        20        18        17        27     9      180.000000        0.238884         4    ;  uncertainty k = 0.091169
        21        11        10        22     9        0.000000       -0.063298         1    ;  uncertainty k = 0.234984
        21        11        10        22     9      180.000000        8.162642         2    ;  uncertainty k = 0.461574
        21        11        10        22     9        0.000000        0.744440         3    ;  uncertainty k = 0.212394
        21        11        10        22     9      180.000000        1.249351         4    ;  uncertainty k = 0.223975
        21        11        12        23     9        0.000000       -0.115222         1    ;  uncertainty k = 0.242022
        21        11        12        23     9      180.000000        8.075635         2    ;  uncertainty k = 0.521246
        21        11        12        23     9        0.000000        0.773841         3    ;  uncertainty k = 0.260530
        21        11        12        23     9      180.000000        1.174676         4    ;  uncertainty k = 0.217807
        21        29        31        32     9        0.000000        3.071608         1    ;  uncertainty k = 0.729227
        21        29        31        32     9      180.000000        5.172516         2    ;  uncertainty k = 0.670801
        21        29        31        32     9        0.000000        1.203602         3    ;  uncertainty k = 0.360134
        21        29        31        32     9      180.000000       -0.238141         4    ;  uncertainty k = 0.394789
        21        29        31        33     9        0.000000       10.462300         1    ;  uncertainty k = 0.943091
        21        29        31        33     9      180.000000        8.867754         2    ;  uncertainty k = 0.319900
        21        29        31        33     9        0.000000        1.195191         3    ;  uncertainty k = 0.349600
        21        29        31        33     9      180.000000       -0.379778         4    ;  uncertainty k = 0.290759
        23        12        13        24     9        0.000000       -0.133342         1    ;  uncertainty k = 0.447641
        23        12        13        24     9      180.000000        7.940261         2    ;  uncertainty k = 0.378901
        23        12        13        24     9        0.000000       -0.436908         3    ;  uncertainty k = 0.317693
        23        12        13        24     9      180.000000        0.186253         4    ;  uncertainty k = 0.150284
        24        13        14        25     9        0.000000       -0.046742         1    ;  uncertainty k = 0.293740
        24        13        14        25     9      180.000000        7.666904         2    ;  uncertainty k = 0.370555
        24        13        14        25     9        0.000000       -0.445849         3    ;  uncertainty k = 0.296099
        24        13        14        25     9      180.000000        0.120483         4    ;  uncertainty k = 0.125144
        28        21        29        30     9        0.000000        1.424570         1    ;  uncertainty k = 0.663457
        28        21        29        30     9      180.000000        9.428584         2    ;  uncertainty k = 0.330019
        28        21        29        30     9        0.000000        2.011174         3    ;  uncertainty k = 0.193845
        28        21        29        30     9      180.000000       -0.220609         4    ;  uncertainty k = 0.274844
        28        21        29        31     9        0.000000        0.560789         1    ;  uncertainty k = 0.719722
        28        21        29        31     9      180.000000        4.725805         2    ;  uncertainty k = 0.668056
        28        21        29        31     9        0.000000        0.671187         3    ;  uncertainty k = 0.190951
        28        21        29        31     9      180.000000       -0.192568         4    ;  uncertainty k = 0.148201
        29        31        33        34     9        0.000000        1.099880         1    ;  uncertainty k = 0.493465
        29        31        33        34     9      180.000000       -1.506665         2    ;  uncertainty k = 0.438460
        29        31        33        34     9        0.000000        0.088299         3    ;  uncertainty k = 0.156495
        29        31        33        34     9      180.000000        0.316849         4    ;  uncertainty k = 0.092996
        29        31        33        35     9        0.000000       -0.225073         1    ;  uncertainty k = 0.488443
        29        31        33        35     9      180.000000       -0.264993         2    ;  uncertainty k = 0.223384
        29        31        33        35     9        0.000000        0.613035         3    ;  uncertainty k = 0.112978
        29        31        33        35     9      180.000000        0.293031         4    ;  uncertainty k = 0.077758
        29        31        33        39     9        0.000000       -0.225072         1    ;  uncertainty k = 0.488443
        29        31        33        39     9      180.000000       -0.264993         2    ;  uncertainty k = 0.223384
        29        31        33        39     9        0.000000        0.613034         3    ;  uncertainty k = 0.112977
        29        31        33        39     9      180.000000        0.293031         4    ;  uncertainty k = 0.077758
        30        29        31        32     9        0.000000        2.956444         1    ;  uncertainty k = 0.771947
        30        29        31        32     9      180.000000       11.977457         2    ;  uncertainty k = 0.242214
        30        29        31        32     9        0.000000        1.646541         3    ;  uncertainty k = 0.259461
        30        29        31        32     9      180.000000       -0.435544         4    ;  uncertainty k = 0.211167
        30        29        31        33     9        0.000000        8.291125         1    ;  uncertainty k = 0.965676
        30        29        31        33     9      180.000000        9.471924         2    ;  uncertainty k = 0.224304
        30        29        31        33     9        0.000000        1.060057         3    ;  uncertainty k = 0.261786
        30        29        31        33     9      180.000000        0.046995         4    ;  uncertainty k = 0.079117
        31        33        35        36     9        0.000000       -1.444776         1    ;  uncertainty k = 0.532021
        31        33        35        36     9      180.000000       -1.808711         2    ;  uncertainty k = 0.466480
        31        33        35        36     9        0.000000        1.395931         3    ;  uncertainty k = 0.059059
        31        33        35        36     9      180.000000       -0.277608         4    ;  uncertainty k = 0.086389
        31        33        35        37     9        0.000000       -1.444776         1    ;  uncertainty k = 0.532021
        31        33        35        37     9      180.000000       -1.808711         2    ;  uncertainty k = 0.466480
        31        33        35        37     9        0.000000        1.395931         3    ;  uncertainty k = 0.059059
        31        33        35        37     9      180.000000       -0.277608         4    ;  uncertainty k = 0.086389
        31        33        35        38     9        0.000000       -1.444776         1    ;  uncertainty k = 0.532021
        31        33        35        38     9      180.000000       -1.808711         2    ;  uncertainty k = 0.466480
        31        33        35        38     9        0.000000        1.395931         3    ;  uncertainty k = 0.059059
        31        33        35        38     9      180.000000       -0.277608         4    ;  uncertainty k = 0.086389
        31        33        39        40     9        0.000000       -1.444776         1    ;  uncertainty k = 0.532022
        31        33        39        40     9      180.000000       -1.808710         2    ;  uncertainty k = 0.466480
        31        33        39        40     9        0.000000        1.395930         3    ;  uncertainty k = 0.059059
        31        33        39        40     9      180.000000       -0.277608         4    ;  uncertainty k = 0.086389
        31        33        39        41     9        0.000000       -1.444776         1    ;  uncertainty k = 0.532022
        31        33        39        41     9      180.000000       -1.808711         2    ;  uncertainty k = 0.466480
        31        33        39        41     9        0.000000        1.395931         3    ;  uncertainty k = 0.059059
        31        33        39        41     9      180.000000       -0.277608         4    ;  uncertainty k = 0.086389
        31        33        39        42     9        0.000000       -1.444776         1    ;  uncertainty k = 0.532022
        31        33        39        42     9      180.000000       -1.808711         2    ;  uncertainty k = 0.466480
        31        33        39        42     9        0.000000        1.395931         3    ;  uncertainty k = 0.059059
        31        33        39        42     9      180.000000       -0.277608         4    ;  uncertainty k = 0.086389
        32        31        33        34     9        0.000000        1.363622         1    ;  uncertainty k = 0.620863
        32        31        33        34     9      180.000000       -1.441637         2    ;  uncertainty k = 0.295036
        32        31        33        34     9        0.000000        0.146822         3    ;  uncertainty k = 0.197837
        32        31        33        34     9      180.000000        0.106406         4    ;  uncertainty k = 0.089703
        32        31        33        35     9        0.000000        0.692259         1    ;  uncertainty k = 0.580363
        32        31        33        35     9      180.000000       -1.378827         2    ;  uncertainty k = 0.251277
        32        31        33        35     9        0.000000        0.294574         3    ;  uncertainty k = 0.140581
        32        31        33        35     9      180.000000        0.064669         4    ;  uncertainty k = 0.052808
        32        31        33        39     9        0.000000        0.692259         1    ;  uncertainty k = 0.580363
        32        31        33        39     9      180.000000       -1.378827         2    ;  uncertainty k = 0.251277
        32        31        33        39     9        0.000000        0.294574         3    ;  uncertainty k = 0.140582
        32        31        33        39     9      180.000000        0.064669         4    ;  uncertainty k = 0.052808
        34        33        35        36     9        0.000000        1.039381         1    ;  uncertainty k = 0.405380
        34        33        35        36     9      180.000000       -1.127893         2    ;  uncertainty k = 0.139015
        34        33        35        36     9        0.000000        0.324642         3    ;  uncertainty k = 0.057133
        34        33        35        36     9      180.000000       -0.066386         4    ;  uncertainty k = 0.055908
        34        33        35        37     9        0.000000        1.039381         1    ;  uncertainty k = 0.405380
        34        33        35        37     9      180.000000       -1.127893         2    ;  uncertainty k = 0.139015
        34        33        35        37     9        0.000000        0.324642         3    ;  uncertainty k = 0.057133
        34        33        35        37     9      180.000000       -0.066386         4    ;  uncertainty k = 0.055908
        34        33        35        38     9        0.000000        1.039381         1    ;  uncertainty k = 0.405380
        34        33        35        38     9      180.000000       -1.127893         2    ;  uncertainty k = 0.139015
        34        33        35        38     9        0.000000        0.324642         3    ;  uncertainty k = 0.057133
        34        33        35        38     9      180.000000       -0.066386         4    ;  uncertainty k = 0.055908
        34        33        39        40     9        0.000000        1.039381         1    ;  uncertainty k = 0.405381
        34        33        39        40     9      180.000000       -1.127893         2    ;  uncertainty k = 0.139015
        34        33        39        40     9        0.000000        0.324642         3    ;  uncertainty k = 0.057132
        34        33        39        40     9      180.000000       -0.066386         4    ;  uncertainty k = 0.055908
        34        33        39        41     9        0.000000        1.039381         1    ;  uncertainty k = 0.405381
        34        33        39        41     9      180.000000       -1.127893         2    ;  uncertainty k = 0.139015
        34        33        39        41     9        0.000000        0.324642         3    ;  uncertainty k = 0.057132
        34        33        39        41     9      180.000000       -0.066386         4    ;  uncertainty k = 0.055908
        34        33        39        42     9        0.000000        1.039381         1    ;  uncertainty k = 0.405381
        34        33        39        42     9      180.000000       -1.127893         2    ;  uncertainty k = 0.139015
        34        33        39        42     9        0.000000        0.324642         3    ;  uncertainty k = 0.057132
        34        33        39        42     9      180.000000       -0.066386         4    ;  uncertainty k = 0.055908
        35        33        39        40     9        0.000000       -1.610502         1    ;  uncertainty k = 0.307258
        35        33        39        40     9      180.000000        0.015530         2    ;  uncertainty k = 0.117296
        35        33        39        40     9        0.000000        1.022659         3    ;  uncertainty k = 0.056340
        35        33        39        40     9      180.000000       -0.102110         4    ;  uncertainty k = 0.041340
        35        33        39        41     9        0.000000       -1.610502         1    ;  uncertainty k = 0.307258
        35        33        39        41     9      180.000000        0.015530         2    ;  uncertainty k = 0.117296
        35        33        39        41     9        0.000000        1.022659         3    ;  uncertainty k = 0.056340
        35        33        39        41     9      180.000000       -0.102110         4    ;  uncertainty k = 0.041340
        35        33        39        42     9        0.000000       -1.610502         1    ;  uncertainty k = 0.307258
        35        33        39        42     9      180.000000        0.015530         2    ;  uncertainty k = 0.117296
        35        33        39        42     9        0.000000        1.022659         3    ;  uncertainty k = 0.056340
        35        33        39        42     9      180.000000       -0.102110         4    ;  uncertainty k = 0.041340
        36        35        33        39     9        0.000000       -1.610501         1    ;  uncertainty k = 0.307257
        36        35        33        39     9      180.000000        0.015531         2    ;  uncertainty k = 0.117295
        36        35        33        39     9        0.000000        1.022659         3    ;  uncertainty k = 0.056340
        36        35        33        39     9      180.000000       -0.102110         4    ;  uncertainty k = 0.041340
        37        35        33        39     9        0.000000       -1.610501         1    ;  uncertainty k = 0.307257
        37        35        33        39     9      180.000000        0.015531         2    ;  uncertainty k = 0.117295
        37        35        33        39     9        0.000000        1.022659         3    ;  uncertainty k = 0.056340
        37        35        33        39     9      180.000000       -0.102110         4    ;  uncertainty k = 0.041340
        38        35        33        39     9        0.000000       -1.610501         1    ;  uncertainty k = 0.307257
        38        35        33        39     9      180.000000        0.015531         2    ;  uncertainty k = 0.117295
        38        35        33        39     9        0.000000        1.022659         3    ;  uncertainty k = 0.056340
        38        35        33        39     9      180.000000       -0.102110         4    ;  uncertainty k = 0.041340

[ dihedrals ] ; impropers
;       ai        aj        ak        al funct           phase               k        pn
         2         1         3         6     4      180.000000        2.833395         2    ;  uncertainty k = 1.376267
         2         3         6         1     4      180.000000        2.833395         2    ;  uncertainty k = 1.376267
         2         6         1         3     4      180.000000        2.833395         2    ;  uncertainty k = 1.376267
         3         2         4        16     4      180.000000        5.361893         2    ;  uncertainty k = 0.990709
         3         4        16         2     4      180.000000        5.361893         2    ;  uncertainty k = 0.990709
         3        16         2         4     4      180.000000        5.361893         2    ;  uncertainty k = 0.990709
         4         3         5        15     4      180.000000        2.498686         2    ;  uncertainty k = 0.371762
         4         5        15         3     4      180.000000        2.498686         2    ;  uncertainty k = 0.371762
         4        15         3         5     4      180.000000        2.498686         2    ;  uncertainty k = 0.371762
         5         1         4         9     4      180.000000        5.473351         2    ;  uncertainty k = 0.359616
         5         4         9         1     4      180.000000        5.473351         2    ;  uncertainty k = 0.359616
         5         9         1         4     4      180.000000        5.473351         2    ;  uncertainty k = 0.359616
         6         2         7         8     4      180.000000       66.076957         2    ;  uncertainty k = 0.057409
         6         7         8         2     4      180.000000       66.076957         2    ;  uncertainty k = 0.057409
         6         8         2         7     4      180.000000       66.076957         2    ;  uncertainty k = 0.057409
         9         5        10        14     4      180.000000       14.265638         2    ;  uncertainty k = 0.102637
         9        10        14         5     4      180.000000       14.265638         2    ;  uncertainty k = 0.102637
         9        14         5        10     4      180.000000       14.265638         2    ;  uncertainty k = 0.102637
        10         9        11        22     4      180.000000        2.814136         2    ;  uncertainty k = 0.297401
        10        11        22         9     4      180.000000        2.814136         2    ;  uncertainty k = 0.297401
        10        22         9        11     4      180.000000        2.814136         2    ;  uncertainty k = 0.297401
        11        10        12        21     4      180.000000       18.510963         2    ;  uncertainty k = 0.064040
        11        12        21        10     4      180.000000       18.510963         2    ;  uncertainty k = 0.064040
        11        21        10        12     4      180.000000       18.510963         2    ;  uncertainty k = 0.064040
        12        11        13        23     4      180.000000        2.905799         2    ;  uncertainty k = 0.313828
        12        13        23        11     4      180.000000        2.905799         2    ;  uncertainty k = 0.313828
        12        23        11        13     4      180.000000        2.905799         2    ;  uncertainty k = 0.313828
        13        12        14        24     4      180.000000        3.915134         2    ;  uncertainty k = 0.137552
        13        14        24        12     4      180.000000        3.915134         2    ;  uncertainty k = 0.137552
        13        24        12        14     4      180.000000        3.915134         2    ;  uncertainty k = 0.137552
        14         9        13        25     4      180.000000        3.142268         2    ;  uncertainty k = 0.169617
        14        13        25         9     4      180.000000        3.142268         2    ;  uncertainty k = 0.169617
        14        25         9        13     4      180.000000        3.142268         2    ;  uncertainty k = 0.169617
        18        17        19        20     4      180.000000       68.314311         2    ;  uncertainty k = 0.022612
        18        19        20        17     4      180.000000       68.314311         2    ;  uncertainty k = 0.022612
        18        20        17        19     4      180.000000       68.314311         2    ;  uncertainty k = 0.022612
        21        11        28        29     4      180.000000        0.496628         2    ;  uncertainty k = 0.664221
        21        28        29        11     4      180.000000        0.496628         2    ;  uncertainty k = 0.664221
        21        29        11        28     4      180.000000        0.496628         2    ;  uncertainty k = 0.664221
        29        21        30        31     4      180.000000       61.935013         2    ;  uncertainty k = 0.030790
        29        30        31        21     4      180.000000       61.935013         2    ;  uncertainty k = 0.030790
        29        31        21        30     4      180.000000       61.935013         2    ;  uncertainty k = 0.030790
        31        29        32        33     4      180.000000        0.288298         2    ;  uncertainty k = 0.644654
        31        32        33        29     4      180.000000        0.288298         2    ;  uncertainty k = 0.644654
        31        33        29        32     4      180.000000        0.288298         2    ;  uncertainty k = 0.644654

[ pairs ]
;       ai        aj funct
         1         7     1
         1         8     1
         1        10     1
         1        14     1
         1        15     1
         1        16     1
         2         9     1
         2        15     1
         2        17     1
         3         7     1
         3         8     1
         3         9     1
         3        18     1
         3        26     1
         3        27     1
         4         6     1
         4        10     1
         4        14     1
         4        17     1
         5         6     1
         5        11     1
         5        13     1
         5        16     1
         5        22     1
         5        25     1
         6        16     1
         9        12     1
         9        15     1
         9        21     1
         9        24     1
        10        13     1
        10        23     1
        10        25     1
        10        28     1
        10        29     1
        11        14     1
        11        24     1
        11        30     1
        11        31     1
        12        22     1
        12        25     1
        12        28     1
        12        29     1
        13        21     1
        14        22     1
        14        23     1
        15        16     1
        16        19     1
        16        20     1
        19        26     1
        19        27     1
        20        26     1
        20        27     1
        21        22     1
        21        23     1
        21        32     1
        21        33     1
        23        24     1
        24        25     1
        28        30     1
        28        31     1
        29        34     1
        29        35     1
        29        39     1
        30        32     1
        30        33     1
        31        36     1
        31        37     1
        31        38     1
        31        40     1
        31        41     1
        31        42     1
        32        34     1
        32        35     1
        32        39     1
        34        36     1
        34        37     1
        34        38     1
        34        40     1
        34        41     1
        34        42     1
        35        40     1
        35        41     1
        35        42     1
        36        39     1
        37        39     1
        38        39     1
