; ITP file created by ByteFF-joint-25, 2026-02-17 09:29:27.302372

[ atomtypes ]
;name           bonded.type        at.num        mass        charge   ptype           sigma         epsilon
 s0bf                                  16      0.0000       0.00000       A     3.53165e-01     1.18204e+00    ;  uncertainty sigma = 0.000053, epsilon = 0.003055
 c1bf                                   6      0.0000       0.00000       A     3.31495e-01     4.13373e-01    ;  uncertainty sigma = 0.000032, epsilon = 0.002340
 c2bf                                   6      0.0000       0.00000       A     3.31500e-01     4.12069e-01    ;  uncertainty sigma = 0.000033, epsilon = 0.001338
 c3bf                                   6      0.0000       0.00000       A     3.31511e-01     4.13455e-01    ;  uncertainty sigma = 0.000012, epsilon = 0.000975
 c4bf                                   6      0.0000       0.00000       A     3.31514e-01     4.13061e-01    ;  uncertainty sigma = 0.000022, epsilon = 0.000877
 c5bf                                   6      0.0000       0.00000       A     3.31529e-01     4.13194e-01    ;  uncertainty sigma = 0.000055, epsilon = 0.002345
 o6bf                                   8      0.0000       0.00000       A     3.04804e-01     6.11836e-01    ;  uncertainty sigma = 0.000044, epsilon = 0.001672
 o7bf                                   8      0.0000       0.00000       A     3.04804e-01     6.11836e-01    ;  uncertainty sigma = 0.000044, epsilon = 0.001672
 c8bf                                   6      0.0000       0.00000       A     3.31502e-01     4.13002e-01    ;  uncertainty sigma = 0.000011, epsilon = 0.000418
 c9bf                                   6      0.0000       0.00000       A     3.31525e-01     4.13404e-01    ;  uncertainty sigma = 0.000005, epsilon = 0.000848
 c10bf                                  6      0.0000       0.00000       A     3.31509e-01     4.13342e-01    ;  uncertainty sigma = 0.000014, epsilon = 0.000763
 c11bf                                  6      0.0000       0.00000       A     3.31520e-01     4.13221e-01    ;  uncertainty sigma = 0.000003, epsilon = 0.000562
 c12bf                                  6      0.0000       0.00000       A     3.31523e-01     4.13519e-01    ;  uncertainty sigma = 0.000003, epsilon = 0.000672
 c13bf                                  6      0.0000       0.00000       A     3.31520e-01     4.13276e-01    ;  uncertainty sigma = 0.000003, epsilon = 0.000632
 br14bf                                35      0.0000       0.00000       A     3.61258e-01     1.64394e+00    ;  uncertainty sigma = 0.000027, epsilon = 0.006365
 o15bf                                  8      0.0000       0.00000       A     3.15802e-01     3.03913e-01    ;  uncertainty sigma = 0.000078, epsilon = 0.010291
 c16bf                                  6      0.0000       0.00000       A     3.39717e-01     4.50736e-01    ;  uncertainty sigma = 0.000028, epsilon = 0.002811
 c17bf                                  6      0.0000       0.00000       A     3.31523e-01     4.12941e-01    ;  uncertainty sigma = 0.000026, epsilon = 0.002863
 o18bf                                  8      0.0000       0.00000       A     3.04805e-01     6.12312e-01    ;  uncertainty sigma = 0.000022, epsilon = 0.002455
 o19bf                                  8      0.0000       0.00000       A     3.04805e-01     6.12312e-01    ;  uncertainty sigma = 0.000022, epsilon = 0.002455
 n20bf                                  7      0.0000       0.00000       A     3.27951e-01     6.44631e-01    ;  uncertainty sigma = 0.000061, epsilon = 0.001634
 h21bf                                  1      0.0000       0.00000       A     2.62547e-01     6.70704e-02    ;  uncertainty sigma = 0.000012, epsilon = 0.000580
 h22bf                                  1      0.0000       0.00000       A     2.62556e-01     6.70456e-02    ;  uncertainty sigma = 0.000012, epsilon = 0.000472
 h23bf                                  1      0.0000       0.00000       A     2.62563e-01     6.69897e-02    ;  uncertainty sigma = 0.000012, epsilon = 0.000446
 h24bf                                  1      0.0000       0.00000       A     2.62561e-01     6.70429e-02    ;  uncertainty sigma = 0.000012, epsilon = 0.000452
 h25bf                                  1      0.0000       0.00000       A     2.42291e-01     8.67021e-02    ;  uncertainty sigma = 0.000194, epsilon = 0.000950
 h26bf                                  1      0.0000       0.00000       A     2.42291e-01     8.67021e-02    ;  uncertainty sigma = 0.000194, epsilon = 0.000950
 h27bf                                  1      0.0000       0.00000       A     1.10692e-01     4.11203e-02    ;  uncertainty sigma = 0.000146, epsilon = 0.001175
 h28bf                                  1      0.0000       0.00000       A     2.42160e-01     8.70432e-02    ;  uncertainty sigma = 0.000084, epsilon = 0.002075
 c29bf                                  6      0.0000       0.00000       A     3.39761e-01     4.51378e-01    ;  uncertainty sigma = 0.000008, epsilon = 0.001141
 c30bf                                  6      0.0000       0.00000       A     3.39784e-01     4.51267e-01    ;  uncertainty sigma = 0.000008, epsilon = 0.000577
 c31bf                                  6      0.0000       0.00000       A     3.39790e-01     4.50864e-01    ;  uncertainty sigma = 0.000004, epsilon = 0.000561
 c32bf                                  6      0.0000       0.00000       A     3.39779e-01     4.50877e-01    ;  uncertainty sigma = 0.000004, epsilon = 0.000642
 c33bf                                  6      0.0000       0.00000       A     3.39779e-01     4.50877e-01    ;  uncertainty sigma = 0.000004, epsilon = 0.000642
 c34bf                                  6      0.0000       0.00000       A     3.39790e-01     4.50864e-01    ;  uncertainty sigma = 0.000004, epsilon = 0.000561
 c35bf                                  6      0.0000       0.00000       A     3.39784e-01     4.51267e-01    ;  uncertainty sigma = 0.000008, epsilon = 0.000577
 h36bf                                  1      0.0000       0.00000       A     2.60017e-01     8.66990e-02    ;  uncertainty sigma = 0.000013, epsilon = 0.001031
 h37bf                                  1      0.0000       0.00000       A     2.60017e-01     8.66990e-02    ;  uncertainty sigma = 0.000013, epsilon = 0.001031
 h38bf                                  1      0.0000       0.00000       A     2.60020e-01     8.68816e-02    ;  uncertainty sigma = 0.000006, epsilon = 0.000619
 h39bf                                  1      0.0000       0.00000       A     2.60020e-01     8.68816e-02    ;  uncertainty sigma = 0.000006, epsilon = 0.000619
 h40bf                                  1      0.0000       0.00000       A     2.60031e-01     8.67483e-02    ;  uncertainty sigma = 0.000010, epsilon = 0.000559
 h41bf                                  1      0.0000       0.00000       A     2.60031e-01     8.67483e-02    ;  uncertainty sigma = 0.000010, epsilon = 0.000559
 h42bf                                  1      0.0000       0.00000       A     2.60031e-01     8.67483e-02    ;  uncertainty sigma = 0.000010, epsilon = 0.000559
 h43bf                                  1      0.0000       0.00000       A     2.60031e-01     8.67483e-02    ;  uncertainty sigma = 0.000010, epsilon = 0.000559
 h44bf                                  1      0.0000       0.00000       A     2.60020e-01     8.68816e-02    ;  uncertainty sigma = 0.000006, epsilon = 0.000619
 h45bf                                  1      0.0000       0.00000       A     2.60020e-01     8.68816e-02    ;  uncertainty sigma = 0.000006, epsilon = 0.000619
 h46bf                                  1      0.0000       0.00000       A     2.60017e-01     8.66990e-02    ;  uncertainty sigma = 0.000013, epsilon = 0.001031
 h47bf                                  1      0.0000       0.00000       A     2.60017e-01     8.66990e-02    ;  uncertainty sigma = 0.000013, epsilon = 0.001031

[ moleculetype ]
;name             nrexcl
 MOL                   3

[ atoms ]
;       nr            type      resi   res      atom      cgnr      charge          mass ; qtot
         1            s0bf         1   UNL        s0         1    -0.06026       32.0670 ; qtot   -0.060
         2            c1bf         1   UNL        c1         2    -0.15250       12.0110 ; qtot   -0.213
         3            c2bf         1   UNL        c2         3     0.12085       12.0110 ; qtot   -0.092
         4            c3bf         1   UNL        c3         4    -0.04845       12.0110 ; qtot   -0.140
         5            c4bf         1   UNL        c4         5    -0.04840       12.0110 ; qtot   -0.189
         6            c5bf         1   UNL        c5         6     0.93104       12.0110 ; qtot    0.742
         7            o6bf         1   UNL        o6         7    -0.81786       15.9990 ; qtot   -0.076
         8            o7bf         1   UNL        o7         8    -0.81786       15.9990 ; qtot   -0.893
         9            c8bf         1   UNL        c8         9     0.02198       12.0110 ; qtot   -0.871
        10            c9bf         1   UNL        c9        10    -0.18190       12.0110 ; qtot   -1.053
        11           c10bf         1   UNL       c10        11     0.16545       12.0110 ; qtot   -0.888
        12           c11bf         1   UNL       c11        12    -0.19152       12.0110 ; qtot   -1.079
        13           c12bf         1   UNL       c12        13    -0.09069       12.0110 ; qtot   -1.170
        14           c13bf         1   UNL       c13        14    -0.13547       12.0110 ; qtot   -1.306
        15          br14bf         1   UNL      br14        15    -0.09860       79.9040 ; qtot   -1.404
        16           o15bf         1   UNL       o15        16    -0.32674       15.9990 ; qtot   -1.731
        17           c16bf         1   UNL       c16        17    -0.04389       12.0110 ; qtot   -1.775
        18           c17bf         1   UNL       c17        18     0.91650       12.0110 ; qtot   -0.858
        19           o18bf         1   UNL       o18        19    -0.83281       15.9990 ; qtot   -1.691
        20           o19bf         1   UNL       o19        20    -0.83281       15.9990 ; qtot   -2.524
        21           n20bf         1   UNL       n20        21    -0.75591       14.0070 ; qtot   -3.280
        22           h21bf         1   UNL       h21        22     0.14000        1.0080 ; qtot   -3.140
        23           h22bf         1   UNL       h22        23     0.13198        1.0080 ; qtot   -3.008
        24           h23bf         1   UNL       h23        24     0.13590        1.0080 ; qtot   -2.872
        25           h24bf         1   UNL       h24        25     0.14276        1.0080 ; qtot   -2.729
        26           h25bf         1   UNL       h25        26     0.02291        1.0080 ; qtot   -2.706
        27           h26bf         1   UNL       h26        27     0.02291        1.0080 ; qtot   -2.683
        28           h27bf         1   UNL       h27        28     0.39795        1.0080 ; qtot   -2.285
        29           h28bf         1   UNL       h28        29     0.05278        1.0080 ; qtot   -2.233
        30           c29bf         1   UNL       c29        30     0.21224       12.0110 ; qtot   -2.020
        31           c30bf         1   UNL       c30        31    -0.08506       12.0110 ; qtot   -2.105
        32           c31bf         1   UNL       c31        32    -0.06897       12.0110 ; qtot   -2.174
        33           c32bf         1   UNL       c32        33    -0.07248       12.0110 ; qtot   -2.247
        34           c33bf         1   UNL       c33        34    -0.07248       12.0110 ; qtot   -2.319
        35           c34bf         1   UNL       c34        35    -0.06897       12.0110 ; qtot   -2.388
        36           c35bf         1   UNL       c35        36    -0.08506       12.0110 ; qtot   -2.473
        37           h36bf         1   UNL       h36        37     0.04399        1.0080 ; qtot   -2.429
        38           h37bf         1   UNL       h37        38     0.04399        1.0080 ; qtot   -2.385
        39           h38bf         1   UNL       h38        39     0.03801        1.0080 ; qtot   -2.347
        40           h39bf         1   UNL       h39        40     0.03801        1.0080 ; qtot   -2.309
        41           h40bf         1   UNL       h40        41     0.03636        1.0080 ; qtot   -2.273
        42           h41bf         1   UNL       h41        42     0.03636        1.0080 ; qtot   -2.237
        43           h42bf         1   UNL       h42        43     0.03636        1.0080 ; qtot   -2.200
        44           h43bf         1   UNL       h43        44     0.03636        1.0080 ; qtot   -2.164
        45           h44bf         1   UNL       h44        45     0.03801        1.0080 ; qtot   -2.126
        46           h45bf         1   UNL       h45        46     0.03801        1.0080 ; qtot   -2.088
        47           h46bf         1   UNL       h46        47     0.04399        1.0080 ; qtot   -2.044
        48           h47bf         1   UNL       h47        48     0.04399        1.0080 ; qtot   -2.000

[ bonds ]
;       ai        aj funct               r               k
         1         2     1        0.174192   168649.560181    ;  uncertainty r = 0.000346, k = 32.148596
         1         5     1        0.174357   166232.447241    ;  uncertainty r = 0.000237, k = 14.888510
         2         3     1        0.138080   385642.911377    ;  uncertainty r = 0.000134, k = 36.968685
         2         6     1        0.154055   191773.233960    ;  uncertainty r = 0.000283, k = 45.899503
         3         4     1        0.143810   249799.356152    ;  uncertainty r = 0.000373, k = 34.755195
         3        16     1        0.136007   307552.652637    ;  uncertainty r = 0.000403, k = 36.149075
         4         5     1        0.137757   380537.379248    ;  uncertainty r = 0.000227, k = 7.612841
         4        15     1        0.190420   156686.726831    ;  uncertainty r = 0.000144, k = 29.636935
         5         9     1        0.146505   276351.718848    ;  uncertainty r = 0.000141, k = 8.032348
         6         7     1        0.126149   550576.911523    ;  uncertainty r = 0.000229, k = 9.262788
         6         8     1        0.126149   550576.911523    ;  uncertainty r = 0.000229, k = 9.262788
         9        10     1        0.139867   346568.529248    ;  uncertainty r = 0.000084, k = 3.014189
         9        14     1        0.140214   349359.096875    ;  uncertainty r = 0.000028, k = 3.627148
        10        11     1        0.140743   360342.505469    ;  uncertainty r = 0.000062, k = 7.512719
        10        22     1        0.108894   336721.598633    ;  uncertainty r = 0.000018, k = 2.646477
        11        12     1        0.140953   360651.249121    ;  uncertainty r = 0.000066, k = 9.783147
        11        21     1        0.139672   340660.135938    ;  uncertainty r = 0.000093, k = 5.845513
        12        13     1        0.139377   371926.061670    ;  uncertainty r = 0.000036, k = 2.199305
        12        23     1        0.108865   336999.646680    ;  uncertainty r = 0.000020, k = 1.072041
        13        14     1        0.139376   367183.437402    ;  uncertainty r = 0.000033, k = 1.559911
        13        24     1        0.108780   332391.986035    ;  uncertainty r = 0.000017, k = 1.548039
        14        25     1        0.108759   334843.242090    ;  uncertainty r = 0.000027, k = 0.771472
        16        17     1        0.144489   220596.573486    ;  uncertainty r = 0.000632, k = 19.356591
        17        18     1        0.155273   162501.513867    ;  uncertainty r = 0.000271, k = 66.063610
        17        26     1        0.109682   316919.485596    ;  uncertainty r = 0.000081, k = 8.518153
        17        27     1        0.109682   316919.485596    ;  uncertainty r = 0.000081, k = 8.518153
        18        19     1        0.126286   541570.585938    ;  uncertainty r = 0.000058, k = 12.189171
        18        20     1        0.126286   541570.585938    ;  uncertainty r = 0.000058, k = 12.189171
        21        28     1        0.101347   413140.530176    ;  uncertainty r = 0.000069, k = 2.036711
        21        30     1        0.146681   233703.750244    ;  uncertainty r = 0.000200, k = 10.724940
        29        30     1        0.109723   300805.109912    ;  uncertainty r = 0.000079, k = 2.794987
        30        31     1        0.154203   202030.775757    ;  uncertainty r = 0.000054, k = 5.534191
        30        36     1        0.154203   202030.775757    ;  uncertainty r = 0.000054, k = 5.534191
        31        32     1        0.153781   208205.048682    ;  uncertainty r = 0.000068, k = 2.415670
        31        37     1        0.109692   308753.381982    ;  uncertainty r = 0.000035, k = 0.912746
        31        38     1        0.109692   308753.381982    ;  uncertainty r = 0.000035, k = 0.912746
        32        33     1        0.153994   209491.365649    ;  uncertainty r = 0.000034, k = 4.127540
        32        39     1        0.109723   307320.622461    ;  uncertainty r = 0.000004, k = 2.227629
        32        40     1        0.109723   307320.622461    ;  uncertainty r = 0.000004, k = 2.227629
        33        34     1        0.153927   210670.082007    ;  uncertainty r = 0.000044, k = 5.783826
        33        41     1        0.109771   307047.579688    ;  uncertainty r = 0.000021, k = 1.574406
        33        42     1        0.109771   307047.579688    ;  uncertainty r = 0.000021, k = 1.574406
        34        35     1        0.153994   209491.365649    ;  uncertainty r = 0.000034, k = 4.127540
        34        43     1        0.109771   307047.579688    ;  uncertainty r = 0.000021, k = 1.574406
        34        44     1        0.109771   307047.579688    ;  uncertainty r = 0.000021, k = 1.574406
        35        36     1        0.153781   208205.048682    ;  uncertainty r = 0.000068, k = 2.415670
        35        45     1        0.109723   307320.622461    ;  uncertainty r = 0.000004, k = 2.227629
        35        46     1        0.109723   307320.622461    ;  uncertainty r = 0.000004, k = 2.227629
        36        47     1        0.109692   308753.381982    ;  uncertainty r = 0.000035, k = 0.912746
        36        48     1        0.109692   308753.381982    ;  uncertainty r = 0.000035, k = 0.912746

[ angles ]
;       ai        aj        ak funct           theta             cth
         1         2         3     1      112.357254      490.287825    ;  uncertainty theta = 0.005257, k = 0.446159
         1         2         6     1      115.451401      321.272126    ;  uncertainty theta = 0.011344, k = 0.278095
         1         5         4     1      111.659386      449.584992    ;  uncertainty theta = 0.002310, k = 0.394971
         1         5         9     1      118.737808      342.691217    ;  uncertainty theta = 0.007366, k = 0.153545
         2         1         5     1       93.409683     1113.970975    ;  uncertainty theta = 0.008532, k = 0.189168
         2         3         4     1      115.069199      491.410436    ;  uncertainty theta = 0.004813, k = 0.280924
         2         3        16     1      123.043716      386.336563    ;  uncertainty theta = 0.006879, k = 0.395881
         2         6         7     1      114.979454      369.254791    ;  uncertainty theta = 0.012630, k = 0.171059
         2         6         8     1      114.979454      369.254791    ;  uncertainty theta = 0.012630, k = 0.171059
         3         2         6     1      128.246002      305.353665    ;  uncertainty theta = 0.014744, k = 0.309527
         3         4         5     1      117.601578      512.725910    ;  uncertainty theta = 0.003379, k = 0.473085
         3         4        15     1      119.051048      364.447781    ;  uncertainty theta = 0.003204, k = 0.273279
         3        16        17     1      112.137527      461.556502    ;  uncertainty theta = 0.007449, k = 0.230739
         4         3        16     1      118.536453      394.142587    ;  uncertainty theta = 0.008837, k = 0.130964
         4         5         9     1      126.512131      327.690272    ;  uncertainty theta = 0.004313, k = 0.182712
         5         4        15     1      120.673264      351.209758    ;  uncertainty theta = 0.006817, k = 0.079938
         5         9        10     1      120.386353      415.618690    ;  uncertainty theta = 0.002928, k = 0.090542
         5         9        14     1      121.210312      420.234777    ;  uncertainty theta = 0.001860, k = 0.063600
         7         6         8     1      131.649750      807.008217    ;  uncertainty theta = 0.009047, k = 0.187853
         9        10        11     1      120.389709      536.012817    ;  uncertainty theta = 0.004661, k = 0.078858
         9        10        22     1      119.462585      281.657653    ;  uncertainty theta = 0.002061, k = 0.054356
         9        14        13     1      119.261185      529.710067    ;  uncertainty theta = 0.001598, k = 0.053033
         9        14        25     1      119.489883      279.695095    ;  uncertainty theta = 0.002380, k = 0.057903
        10         9        14     1      121.468582      396.658663    ;  uncertainty theta = 0.004831, k = 0.111818
        10        11        12     1      118.693344      368.509235    ;  uncertainty theta = 0.006963, k = 0.183753
        10        11        21     1      123.241043      561.927876    ;  uncertainty theta = 0.005719, k = 0.249614
        11        10        22     1      119.708023      275.881702    ;  uncertainty theta = 0.001717, k = 0.044949
        11        12        13     1      118.426346      532.799259    ;  uncertainty theta = 0.003777, k = 0.108628
        11        12        23     1      119.695641      266.243646    ;  uncertainty theta = 0.002338, k = 0.081034
        11        21        28     1      110.646255      367.195382    ;  uncertainty theta = 0.003899, k = 0.049733
        11        21        30     1      115.240189      430.093251    ;  uncertainty theta = 0.003389, k = 0.181912
        12        11        21     1      123.767616      589.520978    ;  uncertainty theta = 0.005675, k = 0.146456
        12        13        14     1      121.334534      505.582861    ;  uncertainty theta = 0.002364, k = 0.080522
        12        13        24     1      120.178612      279.980472    ;  uncertainty theta = 0.001077, k = 0.063702
        13        12        23     1      121.017372      295.164071    ;  uncertainty theta = 0.002296, k = 0.070508
        13        14        25     1      120.771133      296.576880    ;  uncertainty theta = 0.001229, k = 0.064308
        14        13        24     1      120.093826      281.166894    ;  uncertainty theta = 0.001007, k = 0.025222
        16        17        18     1      108.358414      484.414258    ;  uncertainty theta = 0.009599, k = 0.239378
        16        17        26     1      106.609215      413.715920    ;  uncertainty theta = 0.002333, k = 0.101205
        16        17        27     1      106.609215      413.715920    ;  uncertainty theta = 0.002333, k = 0.101205
        17        18        19     1      116.281067      425.507680    ;  uncertainty theta = 0.009799, k = 0.299635
        17        18        20     1      116.281067      425.507680    ;  uncertainty theta = 0.009799, k = 0.299635
        18        17        26     1      110.053444      352.214644    ;  uncertainty theta = 0.003968, k = 0.110269
        18        17        27     1      110.053444      352.214644    ;  uncertainty theta = 0.003968, k = 0.110269
        19        18        20     1      131.546265      818.159315    ;  uncertainty theta = 0.002374, k = 0.066126
        21        30        29     1      104.720810      439.383236    ;  uncertainty theta = 0.003912, k = 0.182591
        21        30        31     1      110.869522      642.173645    ;  uncertainty theta = 0.002539, k = 0.221523
        21        30        36     1      110.869522      642.173645    ;  uncertainty theta = 0.002539, k = 0.221523
        26        17        27     1      108.449631      321.244163    ;  uncertainty theta = 0.009962, k = 0.176306
        28        21        30     1      110.088928      362.454514    ;  uncertainty theta = 0.003587, k = 0.124272
        29        30        31     1      106.908852      405.688744    ;  uncertainty theta = 0.002155, k = 0.051274
        29        30        36     1      106.908852      405.688744    ;  uncertainty theta = 0.002155, k = 0.051274
        30        31        32     1      112.372887      574.457403    ;  uncertainty theta = 0.002149, k = 0.139128
        30        31        37     1      107.300400      389.956193    ;  uncertainty theta = 0.002168, k = 0.077443
        30        31        38     1      107.300400      389.956193    ;  uncertainty theta = 0.002168, k = 0.077443
        30        36        35     1      112.372887      574.457403    ;  uncertainty theta = 0.002149, k = 0.139128
        30        36        47     1      107.300400      389.956193    ;  uncertainty theta = 0.002168, k = 0.077443
        30        36        48     1      107.300400      389.956193    ;  uncertainty theta = 0.002168, k = 0.077443
        31        30        36     1      111.584190      607.355010    ;  uncertainty theta = 0.001458, k = 0.115746
        31        32        33     1      112.464462      607.829042    ;  uncertainty theta = 0.002080, k = 0.068660
        31        32        39     1      107.891640      396.228267    ;  uncertainty theta = 0.002152, k = 0.051821
        31        32        40     1      107.891640      396.228267    ;  uncertainty theta = 0.002152, k = 0.051821
        32        31        37     1      108.379288      398.277875    ;  uncertainty theta = 0.002084, k = 0.039136
        32        31        38     1      108.379288      398.277875    ;  uncertainty theta = 0.002084, k = 0.039136
        32        33        34     1      112.206039      613.174598    ;  uncertainty theta = 0.000753, k = 0.089318
        32        33        41     1      108.096214      396.372775    ;  uncertainty theta = 0.001803, k = 0.027985
        32        33        42     1      108.096214      396.372775    ;  uncertainty theta = 0.001803, k = 0.027985
        33        32        39     1      108.156517      400.477259    ;  uncertainty theta = 0.001529, k = 0.043170
        33        32        40     1      108.156517      400.477259    ;  uncertainty theta = 0.001529, k = 0.043170
        33        34        35     1      112.206039      613.174598    ;  uncertainty theta = 0.000753, k = 0.089318
        33        34        43     1      108.112572      400.295530    ;  uncertainty theta = 0.001736, k = 0.023108
        33        34        44     1      108.112572      400.295530    ;  uncertainty theta = 0.001736, k = 0.023108
        34        33        41     1      108.112572      400.295530    ;  uncertainty theta = 0.001736, k = 0.023108
        34        33        42     1      108.112572      400.295530    ;  uncertainty theta = 0.001736, k = 0.023108
        34        35        36     1      112.464462      607.829042    ;  uncertainty theta = 0.002080, k = 0.068660
        34        35        45     1      108.156517      400.477259    ;  uncertainty theta = 0.001529, k = 0.043170
        34        35        46     1      108.156517      400.477259    ;  uncertainty theta = 0.001529, k = 0.043170
        35        34        43     1      108.096214      396.372775    ;  uncertainty theta = 0.001803, k = 0.027985
        35        34        44     1      108.096214      396.372775    ;  uncertainty theta = 0.001803, k = 0.027985
        35        36        47     1      108.379288      398.277843    ;  uncertainty theta = 0.002084, k = 0.039136
        35        36        48     1      108.379288      398.277843    ;  uncertainty theta = 0.002084, k = 0.039136
        36        35        45     1      107.891640      396.228267    ;  uncertainty theta = 0.002152, k = 0.051821
        36        35        46     1      107.891640      396.228267    ;  uncertainty theta = 0.002152, k = 0.051821
        37        31        38     1      105.150650      320.617482    ;  uncertainty theta = 0.002328, k = 0.039911
        39        32        40     1      104.777267      321.998497    ;  uncertainty theta = 0.002683, k = 0.018007
        41        33        42     1      104.796486      320.800392    ;  uncertainty theta = 0.003306, k = 0.018071
        43        34        44     1      104.796486      320.800392    ;  uncertainty theta = 0.003306, k = 0.018071
        45        35        46     1      104.777267      321.998497    ;  uncertainty theta = 0.002683, k = 0.018007
        47        36        48     1      105.150650      320.617482    ;  uncertainty theta = 0.002328, k = 0.039911

[ dihedrals ] ; propers for gromacs 4.5 or higher, use funct 9
;       ai        aj        ak        al funct           phase               k        pn
         1         2         3         4     9        0.000000       -0.320833         1    ;  uncertainty k = 0.754080
         1         2         3         4     9      180.000000       17.555282         2    ;  uncertainty k = 0.424189
         1         2         3         4     9        0.000000       -2.376894         3    ;  uncertainty k = 1.115238
         1         2         3         4     9      180.000000        0.923152         4    ;  uncertainty k = 0.610957
         1         2         3        16     9        0.000000        0.376558         1    ;  uncertainty k = 1.230098
         1         2         3        16     9      180.000000       18.623043         2    ;  uncertainty k = 0.210713
         1         2         3        16     9        0.000000        1.608484         3    ;  uncertainty k = 0.452084
         1         2         3        16     9      180.000000        0.624278         4    ;  uncertainty k = 0.345564
         1         2         6         7     9        0.000000        0.648298         1    ;  uncertainty k = 2.496588
         1         2         6         7     9      180.000000        4.832235         2    ;  uncertainty k = 0.504618
         1         2         6         7     9        0.000000        0.188147         3    ;  uncertainty k = 0.527138
         1         2         6         7     9      180.000000        0.229089         4    ;  uncertainty k = 0.149777
         1         2         6         8     9        0.000000        0.648298         1    ;  uncertainty k = 2.496588
         1         2         6         8     9      180.000000        4.832235         2    ;  uncertainty k = 0.504618
         1         2         6         8     9        0.000000        0.188147         3    ;  uncertainty k = 0.527138
         1         2         6         8     9      180.000000        0.229089         4    ;  uncertainty k = 0.149777
         1         5         4         3     9        0.000000       -0.230943         1    ;  uncertainty k = 0.350057
         1         5         4         3     9      180.000000       15.958089         2    ;  uncertainty k = 0.404103
         1         5         4         3     9        0.000000       -2.380903         3    ;  uncertainty k = 0.809268
         1         5         4         3     9      180.000000        0.865666         4    ;  uncertainty k = 0.750586
         1         5         4        15     9        0.000000        0.242023         1    ;  uncertainty k = 0.389261
         1         5         4        15     9      180.000000       12.724293         2    ;  uncertainty k = 0.534639
         1         5         4        15     9        0.000000        2.310394         3    ;  uncertainty k = 0.489088
         1         5         4        15     9      180.000000        0.570757         4    ;  uncertainty k = 0.408314
         1         5         9        10     9        0.000000       -0.642711         1    ;  uncertainty k = 0.574201
         1         5         9        10     9      180.000000        3.253661         2    ;  uncertainty k = 0.078526
         1         5         9        10     9        0.000000        0.285679         3    ;  uncertainty k = 0.258282
         1         5         9        10     9      180.000000        0.123727         4    ;  uncertainty k = 0.129510
         1         5         9        14     9        0.000000       -0.227164         1    ;  uncertainty k = 0.546274
         1         5         9        14     9      180.000000        3.324757         2    ;  uncertainty k = 0.223354
         1         5         9        14     9        0.000000        0.472346         3    ;  uncertainty k = 0.251117
         1         5         9        14     9      180.000000        0.111598         4    ;  uncertainty k = 0.125991
         2         1         5         4     9        0.000000       -0.381502         1    ;  uncertainty k = 1.018320
         2         1         5         4     9      180.000000       14.624384         2    ;  uncertainty k = 0.929119
         2         1         5         4     9        0.000000       -6.005800         3    ;  uncertainty k = 1.036762
         2         1         5         4     9      180.000000        1.151585         4    ;  uncertainty k = 0.363309
         2         1         5         9     9        0.000000        0.597404         1    ;  uncertainty k = 1.306533
         2         1         5         9     9      180.000000       11.683132         2    ;  uncertainty k = 0.620655
         2         1         5         9     9        0.000000        0.977157         3    ;  uncertainty k = 1.167698
         2         1         5         9     9      180.000000       -0.044596         4    ;  uncertainty k = 0.491213
         2         3         4         5     9        0.000000       -0.163892         1    ;  uncertainty k = 0.802841
         2         3         4         5     9      180.000000        9.355372         2    ;  uncertainty k = 0.794784
         2         3         4         5     9        0.000000       -2.165171         3    ;  uncertainty k = 0.822975
         2         3         4         5     9      180.000000        0.987821         4    ;  uncertainty k = 0.358170
         2         3         4        15     9        0.000000        0.463445         1    ;  uncertainty k = 0.544884
         2         3         4        15     9      180.000000        7.807701         2    ;  uncertainty k = 0.817270
         2         3         4        15     9        0.000000        1.640989         3    ;  uncertainty k = 0.318182
         2         3         4        15     9      180.000000        0.389068         4    ;  uncertainty k = 0.234157
         2         3        16        17     9        0.000000        0.562638         1    ;  uncertainty k = 2.473037
         2         3        16        17     9      180.000000        4.453660         2    ;  uncertainty k = 1.236403
         2         3        16        17     9        0.000000       -0.243071         3    ;  uncertainty k = 0.584348
         2         3        16        17     9      180.000000        0.011309         4    ;  uncertainty k = 0.249195
         3         2         1         5     9        0.000000       -1.343735         1    ;  uncertainty k = 1.825069
         3         2         1         5     9      180.000000       12.410483         2    ;  uncertainty k = 0.765515
         3         2         1         5     9        0.000000       -3.924755         3    ;  uncertainty k = 1.286096
         3         2         1         5     9      180.000000        1.226932         4    ;  uncertainty k = 0.620813
         3         2         6         7     9        0.000000       -0.600971         1    ;  uncertainty k = 1.233380
         3         2         6         7     9      180.000000        2.750847         2    ;  uncertainty k = 0.470266
         3         2         6         7     9        0.000000        0.420307         3    ;  uncertainty k = 0.314900
         3         2         6         7     9      180.000000        0.072508         4    ;  uncertainty k = 0.103468
         3         2         6         8     9        0.000000       -0.600971         1    ;  uncertainty k = 1.233380
         3         2         6         8     9      180.000000        2.750847         2    ;  uncertainty k = 0.470266
         3         2         6         8     9        0.000000        0.420307         3    ;  uncertainty k = 0.314900
         3         2         6         8     9      180.000000        0.072508         4    ;  uncertainty k = 0.103468
         3         4         5         9     9        0.000000        0.196272         1    ;  uncertainty k = 0.215966
         3         4         5         9     9      180.000000       11.416028         2    ;  uncertainty k = 0.268172
         3         4         5         9     9        0.000000        1.979651         3    ;  uncertainty k = 0.456485
         3         4         5         9     9      180.000000        0.657748         4    ;  uncertainty k = 0.314353
         3        16        17        18     9        0.000000       -2.546996         1    ;  uncertainty k = 2.263476
         3        16        17        18     9      180.000000       -2.071281         2    ;  uncertainty k = 0.852216
         3        16        17        18     9        0.000000        0.377848         3    ;  uncertainty k = 0.447363
         3        16        17        18     9      180.000000        0.728091         4    ;  uncertainty k = 0.372243
         3        16        17        26     9        0.000000        1.943735         1    ;  uncertainty k = 0.725643
         3        16        17        26     9      180.000000       -1.013528         2    ;  uncertainty k = 0.770891
         3        16        17        26     9        0.000000        0.504468         3    ;  uncertainty k = 0.367188
         3        16        17        26     9      180.000000        0.022954         4    ;  uncertainty k = 0.163828
         3        16        17        27     9        0.000000        1.943735         1    ;  uncertainty k = 0.725643
         3        16        17        27     9      180.000000       -1.013528         2    ;  uncertainty k = 0.770891
         3        16        17        27     9        0.000000        0.504468         3    ;  uncertainty k = 0.367188
         3        16        17        27     9      180.000000        0.022954         4    ;  uncertainty k = 0.163828
         4         3         2         6     9        0.000000        0.750539         1    ;  uncertainty k = 1.420042
         4         3         2         6     9      180.000000        9.225337         2    ;  uncertainty k = 0.449657
         4         3         2         6     9        0.000000        2.146628         3    ;  uncertainty k = 0.096833
         4         3         2         6     9      180.000000        0.908103         4    ;  uncertainty k = 0.276689
         4         3        16        17     9        0.000000        4.003546         1    ;  uncertainty k = 2.209639
         4         3        16        17     9      180.000000        4.149396         2    ;  uncertainty k = 0.785914
         4         3        16        17     9        0.000000        0.594406         3    ;  uncertainty k = 0.772201
         4         3        16        17     9      180.000000       -0.129795         4    ;  uncertainty k = 0.090251
         4         5         9        10     9        0.000000        0.343737         1    ;  uncertainty k = 0.503323
         4         5         9        10     9      180.000000        2.911033         2    ;  uncertainty k = 0.321630
         4         5         9        10     9        0.000000        0.456004         3    ;  uncertainty k = 0.527247
         4         5         9        10     9      180.000000       -0.006489         4    ;  uncertainty k = 0.145350
         4         5         9        14     9        0.000000        0.466278         1    ;  uncertainty k = 0.543087
         4         5         9        14     9      180.000000        3.088773         2    ;  uncertainty k = 0.266244
         4         5         9        14     9        0.000000        0.477021         3    ;  uncertainty k = 0.387253
         4         5         9        14     9      180.000000       -0.026062         4    ;  uncertainty k = 0.123287
         5         1         2         6     9        0.000000        0.451497         1    ;  uncertainty k = 2.202869
         5         1         2         6     9      180.000000        8.209202         2    ;  uncertainty k = 0.569487
         5         1         2         6     9        0.000000        1.043882         3    ;  uncertainty k = 0.663821
         5         1         2         6     9      180.000000        0.550351         4    ;  uncertainty k = 0.309694
         5         4         3        16     9        0.000000        0.887263         1    ;  uncertainty k = 1.387606
         5         4         3        16     9      180.000000       11.850633         2    ;  uncertainty k = 0.768527
         5         4         3        16     9        0.000000        1.717065         3    ;  uncertainty k = 0.314044
         5         4         3        16     9      180.000000        0.438991         4    ;  uncertainty k = 0.459203
         5         9        10        11     9        0.000000        0.209923         1    ;  uncertainty k = 0.366810
         5         9        10        11     9      180.000000        8.879615         2    ;  uncertainty k = 0.564305
         5         9        10        11     9        0.000000        1.252681         3    ;  uncertainty k = 0.307627
         5         9        10        11     9      180.000000        1.569285         4    ;  uncertainty k = 0.176674
         5         9        10        22     9        0.000000       -0.139508         1    ;  uncertainty k = 0.456336
         5         9        10        22     9      180.000000        7.090825         2    ;  uncertainty k = 0.460399
         5         9        10        22     9        0.000000        0.691097         3    ;  uncertainty k = 0.253114
         5         9        10        22     9      180.000000        1.247903         4    ;  uncertainty k = 0.214601
         5         9        14        13     9        0.000000       -0.009512         1    ;  uncertainty k = 0.345680
         5         9        14        13     9      180.000000        9.005498         2    ;  uncertainty k = 0.493026
         5         9        14        13     9        0.000000        1.123242         3    ;  uncertainty k = 0.284835
         5         9        14        13     9      180.000000        1.726388         4    ;  uncertainty k = 0.163851
         5         9        14        25     9        0.000000       -0.164610         1    ;  uncertainty k = 0.575780
         5         9        14        25     9      180.000000        6.858045         2    ;  uncertainty k = 0.382043
         5         9        14        25     9        0.000000        0.755380         3    ;  uncertainty k = 0.223906
         5         9        14        25     9      180.000000        1.253380         4    ;  uncertainty k = 0.164936
         6         2         3        16     9        0.000000       -0.665249         1    ;  uncertainty k = 0.977507
         6         2         3        16     9      180.000000       11.691680         2    ;  uncertainty k = 0.581130
         6         2         3        16     9        0.000000        1.652052         3    ;  uncertainty k = 0.309495
         6         2         3        16     9      180.000000        0.410579         4    ;  uncertainty k = 0.549466
         9         5         4        15     9        0.000000        0.038244         1    ;  uncertainty k = 0.687399
         9         5         4        15     9      180.000000        8.650139         2    ;  uncertainty k = 0.564609
         9         5         4        15     9        0.000000        1.543830         3    ;  uncertainty k = 0.089338
         9         5         4        15     9      180.000000        0.837717         4    ;  uncertainty k = 0.166376
         9        10        11        12     9        0.000000       -0.058962         1    ;  uncertainty k = 0.305310
         9        10        11        12     9      180.000000        7.564747         2    ;  uncertainty k = 0.611805
         9        10        11        12     9        0.000000        0.430466         3    ;  uncertainty k = 0.266133
         9        10        11        12     9      180.000000        1.414068         4    ;  uncertainty k = 0.271192
         9        10        11        21     9        0.000000        0.200796         1    ;  uncertainty k = 0.734476
         9        10        11        21     9      180.000000        8.542028         2    ;  uncertainty k = 0.245502
         9        10        11        21     9        0.000000        0.960448         3    ;  uncertainty k = 0.209648
         9        10        11        21     9      180.000000        1.604902         4    ;  uncertainty k = 0.140020
         9        14        13        12     9        0.000000       -0.050137         1    ;  uncertainty k = 0.361734
         9        14        13        12     9      180.000000       14.588351         2    ;  uncertainty k = 0.293709
         9        14        13        12     9        0.000000       -1.029113         3    ;  uncertainty k = 0.452661
         9        14        13        12     9      180.000000        0.616491         4    ;  uncertainty k = 0.299765
         9        14        13        24     9        0.000000        0.069425         1    ;  uncertainty k = 0.068879
         9        14        13        24     9      180.000000        7.748086         2    ;  uncertainty k = 0.305209
         9        14        13        24     9        0.000000        1.324366         3    ;  uncertainty k = 0.268205
         9        14        13        24     9      180.000000        1.820758         4    ;  uncertainty k = 0.104821
        10         9        14        13     9        0.000000       -0.200314         1    ;  uncertainty k = 0.122354
        10         9        14        13     9      180.000000       11.522406         2    ;  uncertainty k = 0.259831
        10         9        14        13     9        0.000000       -0.411528         3    ;  uncertainty k = 0.248224
        10         9        14        13     9      180.000000        0.960697         4    ;  uncertainty k = 0.269272
        10         9        14        25     9        0.000000        0.150214         1    ;  uncertainty k = 0.305656
        10         9        14        25     9      180.000000        6.890737         2    ;  uncertainty k = 0.611493
        10         9        14        25     9        0.000000        1.483302         3    ;  uncertainty k = 0.216725
        10         9        14        25     9      180.000000        1.680013         4    ;  uncertainty k = 0.259778
        10        11        12        13     9        0.000000       -0.074341         1    ;  uncertainty k = 0.162429
        10        11        12        13     9      180.000000        8.011943         2    ;  uncertainty k = 0.692714
        10        11        12        13     9        0.000000        0.238470         3    ;  uncertainty k = 0.355059
        10        11        12        13     9      180.000000        1.314799         4    ;  uncertainty k = 0.356376
        10        11        12        23     9        0.000000        0.193040         1    ;  uncertainty k = 0.592409
        10        11        12        23     9      180.000000        5.877948         2    ;  uncertainty k = 0.730235
        10        11        12        23     9        0.000000        1.228492         3    ;  uncertainty k = 0.234215
        10        11        12        23     9      180.000000        1.445345         4    ;  uncertainty k = 0.190435
        10        11        21        28     9        0.000000        4.625504         1    ;  uncertainty k = 0.430488
        10        11        21        28     9      180.000000        6.378719         2    ;  uncertainty k = 0.417445
        10        11        21        28     9        0.000000        0.789750         3    ;  uncertainty k = 0.272809
        10        11        21        28     9      180.000000       -0.345646         4    ;  uncertainty k = 0.073142
        10        11        21        30     9        0.000000        3.335121         1    ;  uncertainty k = 0.711265
        10        11        21        30     9      180.000000        6.682340         2    ;  uncertainty k = 0.218012
        10        11        21        30     9        0.000000        0.694654         3    ;  uncertainty k = 0.196624
        10        11        21        30     9      180.000000       -0.005206         4    ;  uncertainty k = 0.071685
        11        10         9        14     9        0.000000       -0.097740         1    ;  uncertainty k = 0.231564
        11        10         9        14     9      180.000000       11.117321         2    ;  uncertainty k = 0.279233
        11        10         9        14     9        0.000000       -0.234030         3    ;  uncertainty k = 0.268875
        11        10         9        14     9      180.000000        0.974840         4    ;  uncertainty k = 0.136497
        11        12        13        14     9        0.000000       -0.198084         1    ;  uncertainty k = 0.313677
        11        12        13        14     9      180.000000       14.223584         2    ;  uncertainty k = 0.177432
        11        12        13        14     9        0.000000       -0.984631         3    ;  uncertainty k = 0.356688
        11        12        13        14     9      180.000000        0.687505         4    ;  uncertainty k = 0.204807
        11        12        13        24     9        0.000000        0.008614         1    ;  uncertainty k = 0.265498
        11        12        13        24     9      180.000000        7.911420         2    ;  uncertainty k = 0.362395
        11        12        13        24     9        0.000000        1.187978         3    ;  uncertainty k = 0.307674
        11        12        13        24     9      180.000000        1.554607         4    ;  uncertainty k = 0.196007
        11        21        30        29     9        0.000000       -1.226763         1    ;  uncertainty k = 0.580411
        11        21        30        29     9      180.000000       -1.226747         2    ;  uncertainty k = 0.716118
        11        21        30        29     9        0.000000        0.860828         3    ;  uncertainty k = 0.088076
        11        21        30        29     9      180.000000        0.309750         4    ;  uncertainty k = 0.130316
        11        21        30        31     9        0.000000        0.183983         1    ;  uncertainty k = 0.463830
        11        21        30        31     9      180.000000       -0.168706         2    ;  uncertainty k = 0.350702
        11        21        30        31     9        0.000000        0.926821         3    ;  uncertainty k = 0.106640
        11        21        30        31     9      180.000000        0.383240         4    ;  uncertainty k = 0.113505
        11        21        30        36     9        0.000000        0.183983         1    ;  uncertainty k = 0.463830
        11        21        30        36     9      180.000000       -0.168706         2    ;  uncertainty k = 0.350702
        11        21        30        36     9        0.000000        0.926821         3    ;  uncertainty k = 0.106640
        11        21        30        36     9      180.000000        0.383240         4    ;  uncertainty k = 0.113505
        12        11        10        22     9        0.000000        0.256807         1    ;  uncertainty k = 0.410028
        12        11        10        22     9      180.000000        5.920917         2    ;  uncertainty k = 0.560974
        12        11        10        22     9        0.000000        1.300983         3    ;  uncertainty k = 0.249548
        12        11        10        22     9      180.000000        1.550811         4    ;  uncertainty k = 0.181306
        12        11        21        28     9        0.000000        4.654336         1    ;  uncertainty k = 0.361086
        12        11        21        28     9      180.000000        6.248235         2    ;  uncertainty k = 0.288598
        12        11        21        28     9        0.000000        0.863778         3    ;  uncertainty k = 0.178939
        12        11        21        28     9      180.000000       -0.341870         4    ;  uncertainty k = 0.074250
        12        11        21        30     9        0.000000        3.388602         1    ;  uncertainty k = 0.673949
        12        11        21        30     9      180.000000        6.537123         2    ;  uncertainty k = 0.193209
        12        11        21        30     9        0.000000        0.705381         3    ;  uncertainty k = 0.146553
        12        11        21        30     9      180.000000        0.023131         4    ;  uncertainty k = 0.093616
        12        13        14        25     9        0.000000        0.086123         1    ;  uncertainty k = 0.191894
        12        13        14        25     9      180.000000        7.784424         2    ;  uncertainty k = 0.212598
        12        13        14        25     9        0.000000        1.338066         3    ;  uncertainty k = 0.258769
        12        13        14        25     9      180.000000        1.857480         4    ;  uncertainty k = 0.148992
        13        12        11        21     9        0.000000        0.124561         1    ;  uncertainty k = 0.533926
        13        12        11        21     9      180.000000        8.551909         2    ;  uncertainty k = 0.302930
        13        12        11        21     9        0.000000        1.036232         3    ;  uncertainty k = 0.258901
        13        12        11        21     9      180.000000        1.572427         4    ;  uncertainty k = 0.109855
        14         9        10        22     9        0.000000        0.226588         1    ;  uncertainty k = 0.254778
        14         9        10        22     9      180.000000        7.165319         2    ;  uncertainty k = 0.389028
        14         9        10        22     9        0.000000        1.539984         3    ;  uncertainty k = 0.216354
        14         9        10        22     9      180.000000        1.621507         4    ;  uncertainty k = 0.219162
        14        13        12        23     9        0.000000        0.145374         1    ;  uncertainty k = 0.105162
        14        13        12        23     9      180.000000        8.110193         2    ;  uncertainty k = 0.345254
        14        13        12        23     9        0.000000        1.512236         3    ;  uncertainty k = 0.292708
        14        13        12        23     9      180.000000        1.788723         4    ;  uncertainty k = 0.118247
        15         4         3        16     9        0.000000       -0.300934         1    ;  uncertainty k = 0.650861
        15         4         3        16     9      180.000000        9.165092         2    ;  uncertainty k = 0.275746
        15         4         3        16     9        0.000000        1.456381         3    ;  uncertainty k = 0.310393
        15         4         3        16     9      180.000000        0.631618         4    ;  uncertainty k = 0.388932
        16        17        18        19     9        0.000000        1.079222         1    ;  uncertainty k = 0.841475
        16        17        18        19     9      180.000000        5.864588         2    ;  uncertainty k = 0.515928
        16        17        18        19     9        0.000000        1.140649         3    ;  uncertainty k = 0.463168
        16        17        18        19     9      180.000000        0.279519         4    ;  uncertainty k = 0.238932
        16        17        18        20     9        0.000000        1.079222         1    ;  uncertainty k = 0.841475
        16        17        18        20     9      180.000000        5.864588         2    ;  uncertainty k = 0.515928
        16        17        18        20     9        0.000000        1.140649         3    ;  uncertainty k = 0.463168
        16        17        18        20     9      180.000000        0.279519         4    ;  uncertainty k = 0.238932
        19        18        17        26     9        0.000000       -2.498422         1    ;  uncertainty k = 1.124580
        19        18        17        26     9      180.000000        1.806048         2    ;  uncertainty k = 0.648461
        19        18        17        26     9        0.000000        0.840718         3    ;  uncertainty k = 0.199496
        19        18        17        26     9      180.000000        0.238884         4    ;  uncertainty k = 0.091169
        19        18        17        27     9        0.000000       -2.498422         1    ;  uncertainty k = 1.124580
        19        18        17        27     9      180.000000        1.806048         2    ;  uncertainty k = 0.648461
        19        18        17        27     9        0.000000        0.840718         3    ;  uncertainty k = 0.199496
        19        18        17        27     9      180.000000        0.238884         4    ;  uncertainty k = 0.091169
        20        18        17        26     9        0.000000       -2.498422         1    ;  uncertainty k = 1.124580
        20        18        17        26     9      180.000000        1.806048         2    ;  uncertainty k = 0.648461
        20        18        17        26     9        0.000000        0.840718         3    ;  uncertainty k = 0.199496
        20        18        17        26     9      180.000000        0.238884         4    ;  uncertainty k = 0.091169
        20        18        17        27     9        0.000000       -2.498422         1    ;  uncertainty k = 1.124580
        20        18        17        27     9      180.000000        1.806048         2    ;  uncertainty k = 0.648461
        20        18        17        27     9        0.000000        0.840718         3    ;  uncertainty k = 0.199496
        20        18        17        27     9      180.000000        0.238884         4    ;  uncertainty k = 0.091169
        21        11        10        22     9        0.000000       -0.316389         1    ;  uncertainty k = 0.142493
        21        11        10        22     9      180.000000        7.387862         2    ;  uncertainty k = 0.474287
        21        11        10        22     9        0.000000        0.894967         3    ;  uncertainty k = 0.209514
        21        11        10        22     9      180.000000        1.091335         4    ;  uncertainty k = 0.231132
        21        11        12        23     9        0.000000       -0.178031         1    ;  uncertainty k = 0.259323
        21        11        12        23     9      180.000000        7.332188         2    ;  uncertainty k = 0.359765
        21        11        12        23     9        0.000000        0.937198         3    ;  uncertainty k = 0.273981
        21        11        12        23     9      180.000000        1.042574         4    ;  uncertainty k = 0.202838
        21        30        31        32     9        0.000000       -3.833366         1    ;  uncertainty k = 1.426864
        21        30        31        32     9      180.000000        0.021488         2    ;  uncertainty k = 0.381171
        21        30        31        32     9        0.000000        1.372656         3    ;  uncertainty k = 0.261463
        21        30        31        32     9      180.000000       -0.173776         4    ;  uncertainty k = 0.169993
        21        30        31        37     9        0.000000       -0.339448         1    ;  uncertainty k = 0.417312
        21        30        31        37     9      180.000000       -0.357702         2    ;  uncertainty k = 0.376818
        21        30        31        37     9        0.000000        0.975473         3    ;  uncertainty k = 0.124274
        21        30        31        37     9      180.000000       -0.105032         4    ;  uncertainty k = 0.043789
        21        30        31        38     9        0.000000       -0.339448         1    ;  uncertainty k = 0.417312
        21        30        31        38     9      180.000000       -0.357702         2    ;  uncertainty k = 0.376818
        21        30        31        38     9        0.000000        0.975473         3    ;  uncertainty k = 0.124274
        21        30        31        38     9      180.000000       -0.105032         4    ;  uncertainty k = 0.043789
        21        30        36        35     9        0.000000       -3.833366         1    ;  uncertainty k = 1.426864
        21        30        36        35     9      180.000000        0.021488         2    ;  uncertainty k = 0.381171
        21        30        36        35     9        0.000000        1.372656         3    ;  uncertainty k = 0.261463
        21        30        36        35     9      180.000000       -0.173776         4    ;  uncertainty k = 0.169993
        21        30        36        47     9        0.000000       -0.339448         1    ;  uncertainty k = 0.417312
        21        30        36        47     9      180.000000       -0.357702         2    ;  uncertainty k = 0.376818
        21        30        36        47     9        0.000000        0.975473         3    ;  uncertainty k = 0.124274
        21        30        36        47     9      180.000000       -0.105032         4    ;  uncertainty k = 0.043789
        21        30        36        48     9        0.000000       -0.339448         1    ;  uncertainty k = 0.417312
        21        30        36        48     9      180.000000       -0.357702         2    ;  uncertainty k = 0.376818
        21        30        36        48     9        0.000000        0.975473         3    ;  uncertainty k = 0.124274
        21        30        36        48     9      180.000000       -0.105032         4    ;  uncertainty k = 0.043789
        23        12        13        24     9        0.000000       -0.024636         1    ;  uncertainty k = 0.239837
        23        12        13        24     9      180.000000        7.647700         2    ;  uncertainty k = 0.347427
        23        12        13        24     9        0.000000       -0.389389         3    ;  uncertainty k = 0.266640
        23        12        13        24     9      180.000000        0.181890         4    ;  uncertainty k = 0.157350
        24        13        14        25     9        0.000000       -0.051531         1    ;  uncertainty k = 0.291797
        24        13        14        25     9      180.000000        7.652015         2    ;  uncertainty k = 0.367803
        24        13        14        25     9        0.000000       -0.452098         3    ;  uncertainty k = 0.299239
        24        13        14        25     9      180.000000        0.119333         4    ;  uncertainty k = 0.127976
        28        21        30        29     9        0.000000        1.927326         1    ;  uncertainty k = 0.488279
        28        21        30        29     9      180.000000       -3.165443         2    ;  uncertainty k = 0.434689
        28        21        30        29     9        0.000000       -0.053804         3    ;  uncertainty k = 0.172359
        28        21        30        29     9      180.000000        0.170190         4    ;  uncertainty k = 0.063702
        28        21        30        31     9        0.000000        3.529638         1    ;  uncertainty k = 0.676952
        28        21        30        31     9      180.000000       -1.844338         2    ;  uncertainty k = 0.238686
        28        21        30        31     9        0.000000        0.296393         3    ;  uncertainty k = 0.143101
        28        21        30        31     9      180.000000        0.126992         4    ;  uncertainty k = 0.125072
        28        21        30        36     9        0.000000        3.529638         1    ;  uncertainty k = 0.676952
        28        21        30        36     9      180.000000       -1.844338         2    ;  uncertainty k = 0.238686
        28        21        30        36     9        0.000000        0.296393         3    ;  uncertainty k = 0.143101
        28        21        30        36     9      180.000000        0.126992         4    ;  uncertainty k = 0.125072
        29        30        31        32     9        0.000000       -0.569824         1    ;  uncertainty k = 0.681599
        29        30        31        32     9      180.000000       -0.594737         2    ;  uncertainty k = 0.450910
        29        30        31        32     9        0.000000        0.387868         3    ;  uncertainty k = 0.142595
        29        30        31        32     9      180.000000       -0.141357         4    ;  uncertainty k = 0.117796
        29        30        31        37     9        0.000000        0.771158         1    ;  uncertainty k = 0.155551
        29        30        31        37     9      180.000000       -0.363413         2    ;  uncertainty k = 0.227530
        29        30        31        37     9        0.000000        0.204329         3    ;  uncertainty k = 0.202016
        29        30        31        37     9      180.000000        0.055620         4    ;  uncertainty k = 0.088065
        29        30        31        38     9        0.000000        0.771158         1    ;  uncertainty k = 0.155551
        29        30        31        38     9      180.000000       -0.363413         2    ;  uncertainty k = 0.227530
        29        30        31        38     9        0.000000        0.204329         3    ;  uncertainty k = 0.202016
        29        30        31        38     9      180.000000        0.055620         4    ;  uncertainty k = 0.088065
        29        30        36        35     9        0.000000       -0.569824         1    ;  uncertainty k = 0.681599
        29        30        36        35     9      180.000000       -0.594737         2    ;  uncertainty k = 0.450910
        29        30        36        35     9        0.000000        0.387868         3    ;  uncertainty k = 0.142595
        29        30        36        35     9      180.000000       -0.141357         4    ;  uncertainty k = 0.117796
        29        30        36        47     9        0.000000        0.771158         1    ;  uncertainty k = 0.155551
        29        30        36        47     9      180.000000       -0.363413         2    ;  uncertainty k = 0.227530
        29        30        36        47     9        0.000000        0.204329         3    ;  uncertainty k = 0.202016
        29        30        36        47     9      180.000000        0.055620         4    ;  uncertainty k = 0.088065
        29        30        36        48     9        0.000000        0.771158         1    ;  uncertainty k = 0.155551
        29        30        36        48     9      180.000000       -0.363413         2    ;  uncertainty k = 0.227530
        29        30        36        48     9        0.000000        0.204329         3    ;  uncertainty k = 0.202016
        29        30        36        48     9      180.000000        0.055620         4    ;  uncertainty k = 0.088065
        30        31        32        33     9        0.000000       -2.508340         1    ;  uncertainty k = 1.145010
        30        31        32        33     9      180.000000        0.040467         2    ;  uncertainty k = 0.884885
        30        31        32        33     9        0.000000        1.159505         3    ;  uncertainty k = 0.165570
        30        31        32        33     9      180.000000       -0.667425         4    ;  uncertainty k = 0.090768
        30        31        32        39     9        0.000000       -0.600061         1    ;  uncertainty k = 0.405140
        30        31        32        39     9      180.000000       -0.206589         2    ;  uncertainty k = 0.240897
        30        31        32        39     9        0.000000        0.849675         3    ;  uncertainty k = 0.239344
        30        31        32        39     9      180.000000       -0.118246         4    ;  uncertainty k = 0.111619
        30        31        32        40     9        0.000000       -0.600061         1    ;  uncertainty k = 0.405140
        30        31        32        40     9      180.000000       -0.206589         2    ;  uncertainty k = 0.240897
        30        31        32        40     9        0.000000        0.849675         3    ;  uncertainty k = 0.239344
        30        31        32        40     9      180.000000       -0.118246         4    ;  uncertainty k = 0.111619
        30        36        35        34     9        0.000000       -2.508340         1    ;  uncertainty k = 1.145010
        30        36        35        34     9      180.000000        0.040467         2    ;  uncertainty k = 0.884885
        30        36        35        34     9        0.000000        1.159505         3    ;  uncertainty k = 0.165570
        30        36        35        34     9      180.000000       -0.667425         4    ;  uncertainty k = 0.090768
        30        36        35        45     9        0.000000       -0.600061         1    ;  uncertainty k = 0.405140
        30        36        35        45     9      180.000000       -0.206589         2    ;  uncertainty k = 0.240897
        30        36        35        45     9        0.000000        0.849675         3    ;  uncertainty k = 0.239344
        30        36        35        45     9      180.000000       -0.118246         4    ;  uncertainty k = 0.111619
        30        36        35        46     9        0.000000       -0.600061         1    ;  uncertainty k = 0.405140
        30        36        35        46     9      180.000000       -0.206589         2    ;  uncertainty k = 0.240897
        30        36        35        46     9        0.000000        0.849675         3    ;  uncertainty k = 0.239344
        30        36        35        46     9      180.000000       -0.118246         4    ;  uncertainty k = 0.111619
        31        30        36        35     9        0.000000        5.143317         1    ;  uncertainty k = 2.198869
        31        30        36        35     9      180.000000        3.528250         2    ;  uncertainty k = 1.058226
        31        30        36        35     9        0.000000        1.064205         3    ;  uncertainty k = 0.602289
        31        30        36        35     9      180.000000       -0.985015         4    ;  uncertainty k = 0.336104
        31        30        36        47     9        0.000000       -0.760930         1    ;  uncertainty k = 0.585766
        31        30        36        47     9      180.000000       -0.034963         2    ;  uncertainty k = 0.352614
        31        30        36        47     9        0.000000        0.389989         3    ;  uncertainty k = 0.084542
        31        30        36        47     9      180.000000       -0.065737         4    ;  uncertainty k = 0.040047
        31        30        36        48     9        0.000000       -0.760930         1    ;  uncertainty k = 0.585766
        31        30        36        48     9      180.000000       -0.034963         2    ;  uncertainty k = 0.352614
        31        30        36        48     9        0.000000        0.389989         3    ;  uncertainty k = 0.084542
        31        30        36        48     9      180.000000       -0.065737         4    ;  uncertainty k = 0.040047
        31        32        33        34     9        0.000000       -3.984447         1    ;  uncertainty k = 0.883315
        31        32        33        34     9      180.000000        0.722284         2    ;  uncertainty k = 0.815925
        31        32        33        34     9        0.000000        1.235297         3    ;  uncertainty k = 0.143894
        31        32        33        34     9      180.000000       -0.580706         4    ;  uncertainty k = 0.077733
        31        32        33        41     9        0.000000       -0.882554         1    ;  uncertainty k = 0.327374
        31        32        33        41     9      180.000000       -0.111533         2    ;  uncertainty k = 0.316511
        31        32        33        41     9        0.000000        0.848760         3    ;  uncertainty k = 0.178824
        31        32        33        41     9      180.000000       -0.149456         4    ;  uncertainty k = 0.112388
        31        32        33        42     9        0.000000       -0.882554         1    ;  uncertainty k = 0.327374
        31        32        33        42     9      180.000000       -0.111533         2    ;  uncertainty k = 0.316511
        31        32        33        42     9        0.000000        0.848760         3    ;  uncertainty k = 0.178824
        31        32        33        42     9      180.000000       -0.149456         4    ;  uncertainty k = 0.112388
        32        31        30        36     9        0.000000        5.143317         1    ;  uncertainty k = 2.198869
        32        31        30        36     9      180.000000        3.528250         2    ;  uncertainty k = 1.058226
        32        31        30        36     9        0.000000        1.064205         3    ;  uncertainty k = 0.602289
        32        31        30        36     9      180.000000       -0.985015         4    ;  uncertainty k = 0.336104
        32        33        34        35     9        0.000000       -3.969745         1    ;  uncertainty k = 0.771838
        32        33        34        35     9      180.000000        0.758290         2    ;  uncertainty k = 0.755755
        32        33        34        35     9        0.000000        1.262014         3    ;  uncertainty k = 0.182656
        32        33        34        35     9      180.000000       -0.590739         4    ;  uncertainty k = 0.060912
        32        33        34        43     9        0.000000       -0.893887         1    ;  uncertainty k = 0.337895
        32        33        34        43     9      180.000000       -0.029118         2    ;  uncertainty k = 0.337916
        32        33        34        43     9        0.000000        0.887727         3    ;  uncertainty k = 0.194851
        32        33        34        43     9      180.000000       -0.139711         4    ;  uncertainty k = 0.112522
        32        33        34        44     9        0.000000       -0.893887         1    ;  uncertainty k = 0.337895
        32        33        34        44     9      180.000000       -0.029118         2    ;  uncertainty k = 0.337916
        32        33        34        44     9        0.000000        0.887727         3    ;  uncertainty k = 0.194851
        32        33        34        44     9      180.000000       -0.139711         4    ;  uncertainty k = 0.112522
        33        32        31        37     9        0.000000       -0.962744         1    ;  uncertainty k = 0.454356
        33        32        31        37     9      180.000000       -0.007052         2    ;  uncertainty k = 0.349034
        33        32        31        37     9        0.000000        0.899108         3    ;  uncertainty k = 0.187413
        33        32        31        37     9      180.000000       -0.156761         4    ;  uncertainty k = 0.082129
        33        32        31        38     9        0.000000       -0.962744         1    ;  uncertainty k = 0.454356
        33        32        31        38     9      180.000000       -0.007052         2    ;  uncertainty k = 0.349034
        33        32        31        38     9        0.000000        0.899108         3    ;  uncertainty k = 0.187413
        33        32        31        38     9      180.000000       -0.156761         4    ;  uncertainty k = 0.082129
        33        34        35        36     9        0.000000       -3.984447         1    ;  uncertainty k = 0.883315
        33        34        35        36     9      180.000000        0.722284         2    ;  uncertainty k = 0.815925
        33        34        35        36     9        0.000000        1.235297         3    ;  uncertainty k = 0.143894
        33        34        35        36     9      180.000000       -0.580706         4    ;  uncertainty k = 0.077733
        33        34        35        45     9        0.000000       -0.847731         1    ;  uncertainty k = 0.336631
        33        34        35        45     9      180.000000       -0.078694         2    ;  uncertainty k = 0.273681
        33        34        35        45     9        0.000000        0.859878         3    ;  uncertainty k = 0.186089
        33        34        35        45     9      180.000000       -0.124724         4    ;  uncertainty k = 0.091086
        33        34        35        46     9        0.000000       -0.847731         1    ;  uncertainty k = 0.336631
        33        34        35        46     9      180.000000       -0.078694         2    ;  uncertainty k = 0.273681
        33        34        35        46     9        0.000000        0.859878         3    ;  uncertainty k = 0.186089
        33        34        35        46     9      180.000000       -0.124724         4    ;  uncertainty k = 0.091086
        34        33        32        39     9        0.000000       -0.847731         1    ;  uncertainty k = 0.336631
        34        33        32        39     9      180.000000       -0.078694         2    ;  uncertainty k = 0.273681
        34        33        32        39     9        0.000000        0.859878         3    ;  uncertainty k = 0.186089
        34        33        32        39     9      180.000000       -0.124724         4    ;  uncertainty k = 0.091086
        34        33        32        40     9        0.000000       -0.847731         1    ;  uncertainty k = 0.336631
        34        33        32        40     9      180.000000       -0.078694         2    ;  uncertainty k = 0.273681
        34        33        32        40     9        0.000000        0.859878         3    ;  uncertainty k = 0.186089
        34        33        32        40     9      180.000000       -0.124724         4    ;  uncertainty k = 0.091086
        34        35        36        47     9        0.000000       -0.962744         1    ;  uncertainty k = 0.454356
        34        35        36        47     9      180.000000       -0.007052         2    ;  uncertainty k = 0.349034
        34        35        36        47     9        0.000000        0.899108         3    ;  uncertainty k = 0.187413
        34        35        36        47     9      180.000000       -0.156761         4    ;  uncertainty k = 0.082129
        34        35        36        48     9        0.000000       -0.962744         1    ;  uncertainty k = 0.454356
        34        35        36        48     9      180.000000       -0.007052         2    ;  uncertainty k = 0.349034
        34        35        36        48     9        0.000000        0.899108         3    ;  uncertainty k = 0.187413
        34        35        36        48     9      180.000000       -0.156761         4    ;  uncertainty k = 0.082129
        35        34        33        41     9        0.000000       -0.893887         1    ;  uncertainty k = 0.337895
        35        34        33        41     9      180.000000       -0.029118         2    ;  uncertainty k = 0.337916
        35        34        33        41     9        0.000000        0.887727         3    ;  uncertainty k = 0.194851
        35        34        33        41     9      180.000000       -0.139711         4    ;  uncertainty k = 0.112522
        35        34        33        42     9        0.000000       -0.893887         1    ;  uncertainty k = 0.337895
        35        34        33        42     9      180.000000       -0.029118         2    ;  uncertainty k = 0.337916
        35        34        33        42     9        0.000000        0.887727         3    ;  uncertainty k = 0.194851
        35        34        33        42     9      180.000000       -0.139711         4    ;  uncertainty k = 0.112522
        36        30        31        37     9        0.000000       -0.760930         1    ;  uncertainty k = 0.585766
        36        30        31        37     9      180.000000       -0.034963         2    ;  uncertainty k = 0.352614
        36        30        31        37     9        0.000000        0.389989         3    ;  uncertainty k = 0.084542
        36        30        31        37     9      180.000000       -0.065737         4    ;  uncertainty k = 0.040047
        36        30        31        38     9        0.000000       -0.760930         1    ;  uncertainty k = 0.585766
        36        30        31        38     9      180.000000       -0.034963         2    ;  uncertainty k = 0.352614
        36        30        31        38     9        0.000000        0.389989         3    ;  uncertainty k = 0.084542
        36        30        31        38     9      180.000000       -0.065737         4    ;  uncertainty k = 0.040047
        36        35        34        43     9        0.000000       -0.882554         1    ;  uncertainty k = 0.327374
        36        35        34        43     9      180.000000       -0.111533         2    ;  uncertainty k = 0.316511
        36        35        34        43     9        0.000000        0.848760         3    ;  uncertainty k = 0.178824
        36        35        34        43     9      180.000000       -0.149456         4    ;  uncertainty k = 0.112388
        36        35        34        44     9        0.000000       -0.882554         1    ;  uncertainty k = 0.327374
        36        35        34        44     9      180.000000       -0.111533         2    ;  uncertainty k = 0.316511
        36        35        34        44     9        0.000000        0.848760         3    ;  uncertainty k = 0.178824
        36        35        34        44     9      180.000000       -0.149456         4    ;  uncertainty k = 0.112388
        37        31        32        39     9        0.000000        0.882528         1    ;  uncertainty k = 0.345567
        37        31        32        39     9      180.000000       -0.225667         2    ;  uncertainty k = 0.324946
        37        31        32        39     9        0.000000        0.411032         3    ;  uncertainty k = 0.111173
        37        31        32        39     9      180.000000        0.162130         4    ;  uncertainty k = 0.039956
        37        31        32        40     9        0.000000        0.882528         1    ;  uncertainty k = 0.345567
        37        31        32        40     9      180.000000       -0.225667         2    ;  uncertainty k = 0.324946
        37        31        32        40     9        0.000000        0.411032         3    ;  uncertainty k = 0.111173
        37        31        32        40     9      180.000000        0.162130         4    ;  uncertainty k = 0.039956
        38        31        32        39     9        0.000000        0.882528         1    ;  uncertainty k = 0.345567
        38        31        32        39     9      180.000000       -0.225667         2    ;  uncertainty k = 0.324946
        38        31        32        39     9        0.000000        0.411032         3    ;  uncertainty k = 0.111173
        38        31        32        39     9      180.000000        0.162130         4    ;  uncertainty k = 0.039956
        38        31        32        40     9        0.000000        0.882528         1    ;  uncertainty k = 0.345567
        38        31        32        40     9      180.000000       -0.225667         2    ;  uncertainty k = 0.324946
        38        31        32        40     9        0.000000        0.411032         3    ;  uncertainty k = 0.111173
        38        31        32        40     9      180.000000        0.162130         4    ;  uncertainty k = 0.039956
        39        32        33        41     9        0.000000        0.941940         1    ;  uncertainty k = 0.304417
        39        32        33        41     9      180.000000       -0.207806         2    ;  uncertainty k = 0.328080
        39        32        33        41     9        0.000000        0.405506         3    ;  uncertainty k = 0.102315
        39        32        33        41     9      180.000000        0.166116         4    ;  uncertainty k = 0.053795
        39        32        33        42     9        0.000000        0.941940         1    ;  uncertainty k = 0.304417
        39        32        33        42     9      180.000000       -0.207806         2    ;  uncertainty k = 0.328080
        39        32        33        42     9        0.000000        0.405506         3    ;  uncertainty k = 0.102315
        39        32        33        42     9      180.000000        0.166116         4    ;  uncertainty k = 0.053795
        40        32        33        41     9        0.000000        0.941940         1    ;  uncertainty k = 0.304417
        40        32        33        41     9      180.000000       -0.207806         2    ;  uncertainty k = 0.328080
        40        32        33        41     9        0.000000        0.405506         3    ;  uncertainty k = 0.102315
        40        32        33        41     9      180.000000        0.166116         4    ;  uncertainty k = 0.053795
        40        32        33        42     9        0.000000        0.941940         1    ;  uncertainty k = 0.304417
        40        32        33        42     9      180.000000       -0.207806         2    ;  uncertainty k = 0.328080
        40        32        33        42     9        0.000000        0.405506         3    ;  uncertainty k = 0.102315
        40        32        33        42     9      180.000000        0.166116         4    ;  uncertainty k = 0.053795
        41        33        34        43     9        0.000000        0.951500         1    ;  uncertainty k = 0.337168
        41        33        34        43     9      180.000000       -0.209533         2    ;  uncertainty k = 0.343787
        41        33        34        43     9        0.000000        0.411363         3    ;  uncertainty k = 0.100418
        41        33        34        43     9      180.000000        0.159262         4    ;  uncertainty k = 0.063781
        41        33        34        44     9        0.000000        0.951500         1    ;  uncertainty k = 0.337168
        41        33        34        44     9      180.000000       -0.209533         2    ;  uncertainty k = 0.343787
        41        33        34        44     9        0.000000        0.411363         3    ;  uncertainty k = 0.100418
        41        33        34        44     9      180.000000        0.159262         4    ;  uncertainty k = 0.063781
        42        33        34        43     9        0.000000        0.951500         1    ;  uncertainty k = 0.337168
        42        33        34        43     9      180.000000       -0.209533         2    ;  uncertainty k = 0.343787
        42        33        34        43     9        0.000000        0.411363         3    ;  uncertainty k = 0.100418
        42        33        34        43     9      180.000000        0.159262         4    ;  uncertainty k = 0.063781
        42        33        34        44     9        0.000000        0.951500         1    ;  uncertainty k = 0.337168
        42        33        34        44     9      180.000000       -0.209533         2    ;  uncertainty k = 0.343787
        42        33        34        44     9        0.000000        0.411363         3    ;  uncertainty k = 0.100418
        42        33        34        44     9      180.000000        0.159262         4    ;  uncertainty k = 0.063781
        43        34        35        45     9        0.000000        0.941940         1    ;  uncertainty k = 0.304417
        43        34        35        45     9      180.000000       -0.207806         2    ;  uncertainty k = 0.328080
        43        34        35        45     9        0.000000        0.405506         3    ;  uncertainty k = 0.102315
        43        34        35        45     9      180.000000        0.166116         4    ;  uncertainty k = 0.053795
        43        34        35        46     9        0.000000        0.941940         1    ;  uncertainty k = 0.304417
        43        34        35        46     9      180.000000       -0.207806         2    ;  uncertainty k = 0.328080
        43        34        35        46     9        0.000000        0.405506         3    ;  uncertainty k = 0.102315
        43        34        35        46     9      180.000000        0.166116         4    ;  uncertainty k = 0.053795
        44        34        35        45     9        0.000000        0.941940         1    ;  uncertainty k = 0.304417
        44        34        35        45     9      180.000000       -0.207806         2    ;  uncertainty k = 0.328080
        44        34        35        45     9        0.000000        0.405506         3    ;  uncertainty k = 0.102315
        44        34        35        45     9      180.000000        0.166116         4    ;  uncertainty k = 0.053795
        44        34        35        46     9        0.000000        0.941940         1    ;  uncertainty k = 0.304417
        44        34        35        46     9      180.000000       -0.207806         2    ;  uncertainty k = 0.328080
        44        34        35        46     9        0.000000        0.405506         3    ;  uncertainty k = 0.102315
        44        34        35        46     9      180.000000        0.166116         4    ;  uncertainty k = 0.053795
        45        35        36        47     9        0.000000        0.882528         1    ;  uncertainty k = 0.345567
        45        35        36        47     9      180.000000       -0.225667         2    ;  uncertainty k = 0.324946
        45        35        36        47     9        0.000000        0.411032         3    ;  uncertainty k = 0.111173
        45        35        36        47     9      180.000000        0.162130         4    ;  uncertainty k = 0.039956
        45        35        36        48     9        0.000000        0.882528         1    ;  uncertainty k = 0.345567
        45        35        36        48     9      180.000000       -0.225667         2    ;  uncertainty k = 0.324946
        45        35        36        48     9        0.000000        0.411032         3    ;  uncertainty k = 0.111173
        45        35        36        48     9      180.000000        0.162130         4    ;  uncertainty k = 0.039956
        46        35        36        47     9        0.000000        0.882528         1    ;  uncertainty k = 0.345567
        46        35        36        47     9      180.000000       -0.225667         2    ;  uncertainty k = 0.324946
        46        35        36        47     9        0.000000        0.411032         3    ;  uncertainty k = 0.111173
        46        35        36        47     9      180.000000        0.162130         4    ;  uncertainty k = 0.039956
        46        35        36        48     9        0.000000        0.882528         1    ;  uncertainty k = 0.345567
        46        35        36        48     9      180.000000       -0.225667         2    ;  uncertainty k = 0.324946
        46        35        36        48     9        0.000000        0.411032         3    ;  uncertainty k = 0.111173
        46        35        36        48     9      180.000000        0.162130         4    ;  uncertainty k = 0.039956

[ dihedrals ] ; impropers
;       ai        aj        ak        al funct           phase               k        pn
         2         1         3         6     4      180.000000        2.833395         2    ;  uncertainty k = 1.376267
         2         3         6         1     4      180.000000        2.833395         2    ;  uncertainty k = 1.376267
         2         6         1         3     4      180.000000        2.833395         2    ;  uncertainty k = 1.376267
         3         2         4        16     4      180.000000        5.361893         2    ;  uncertainty k = 0.990709
         3         4        16         2     4      180.000000        5.361893         2    ;  uncertainty k = 0.990709
         3        16         2         4     4      180.000000        5.361893         2    ;  uncertainty k = 0.990709
         4         3         5        15     4      180.000000        2.498686         2    ;  uncertainty k = 0.371762
         4         5        15         3     4      180.000000        2.498686         2    ;  uncertainty k = 0.371762
         4        15         3         5     4      180.000000        2.498686         2    ;  uncertainty k = 0.371762
         5         1         4         9     4      180.000000        5.474185         2    ;  uncertainty k = 0.358208
         5         4         9         1     4      180.000000        5.474185         2    ;  uncertainty k = 0.358208
         5         9         1         4     4      180.000000        5.474185         2    ;  uncertainty k = 0.358208
         6         2         7         8     4      180.000000       66.076957         2    ;  uncertainty k = 0.057409
         6         7         8         2     4      180.000000       66.076957         2    ;  uncertainty k = 0.057409
         6         8         2         7     4      180.000000       66.076957         2    ;  uncertainty k = 0.057409
         9         5        10        14     4      180.000000       14.812752         2    ;  uncertainty k = 0.090791
         9        10        14         5     4      180.000000       14.812752         2    ;  uncertainty k = 0.090791
         9        14         5        10     4      180.000000       14.812752         2    ;  uncertainty k = 0.090791
        10         9        11        22     4      180.000000        2.215266         2    ;  uncertainty k = 0.369449
        10        11        22         9     4      180.000000        2.215266         2    ;  uncertainty k = 0.369449
        10        22         9        11     4      180.000000        2.215266         2    ;  uncertainty k = 0.369449
        11        10        12        21     4      180.000000       20.701601         2    ;  uncertainty k = 0.083357
        11        12        21        10     4      180.000000       20.701601         2    ;  uncertainty k = 0.083357
        11        21        10        12     4      180.000000       20.701601         2    ;  uncertainty k = 0.083357
        12        11        13        23     4      180.000000        2.320286         2    ;  uncertainty k = 0.310804
        12        13        23        11     4      180.000000        2.320286         2    ;  uncertainty k = 0.310804
        12        23        11        13     4      180.000000        2.320286         2    ;  uncertainty k = 0.310804
        13        12        14        24     4      180.000000        4.269599         2    ;  uncertainty k = 0.173492
        13        14        24        12     4      180.000000        4.269599         2    ;  uncertainty k = 0.173492
        13        24        12        14     4      180.000000        4.269599         2    ;  uncertainty k = 0.173492
        14         9        13        25     4      180.000000        3.236934         2    ;  uncertainty k = 0.196326
        14        13        25         9     4      180.000000        3.236934         2    ;  uncertainty k = 0.196326
        14        25         9        13     4      180.000000        3.236934         2    ;  uncertainty k = 0.196326
        18        17        19        20     4      180.000000       68.314311         2    ;  uncertainty k = 0.022612
        18        19        20        17     4      180.000000       68.314311         2    ;  uncertainty k = 0.022612
        18        20        17        19     4      180.000000       68.314311         2    ;  uncertainty k = 0.022612

[ pairs ]
;       ai        aj funct
         1         7     1
         1         8     1
         1        10     1
         1        14     1
         1        15     1
         1        16     1
         2         9     1
         2        15     1
         2        17     1
         3         7     1
         3         8     1
         3         9     1
         3        18     1
         3        26     1
         3        27     1
         4         6     1
         4        10     1
         4        14     1
         4        17     1
         5         6     1
         5        11     1
         5        13     1
         5        16     1
         5        22     1
         5        25     1
         6        16     1
         9        12     1
         9        15     1
         9        21     1
         9        24     1
        10        13     1
        10        23     1
        10        25     1
        10        28     1
        10        30     1
        11        14     1
        11        24     1
        11        29     1
        11        31     1
        11        36     1
        12        22     1
        12        25     1
        12        28     1
        12        30     1
        13        21     1
        14        22     1
        14        23     1
        15        16     1
        16        19     1
        16        20     1
        19        26     1
        19        27     1
        20        26     1
        20        27     1
        21        22     1
        21        23     1
        21        32     1
        21        35     1
        21        37     1
        21        38     1
        21        47     1
        21        48     1
        23        24     1
        24        25     1
        28        29     1
        28        31     1
        28        36     1
        29        32     1
        29        35     1
        29        37     1
        29        38     1
        29        47     1
        29        48     1
        30        33     1
        30        34     1
        30        39     1
        30        40     1
        30        45     1
        30        46     1
        31        34     1
        31        35     1
        31        41     1
        31        42     1
        31        47     1
        31        48     1
        32        35     1
        32        36     1
        32        43     1
        32        44     1
        33        36     1
        33        37     1
        33        38     1
        33        45     1
        33        46     1
        34        39     1
        34        40     1
        34        47     1
        34        48     1
        35        41     1
        35        42     1
        36        37     1
        36        38     1
        36        43     1
        36        44     1
        37        39     1
        37        40     1
        38        39     1
        38        40     1
        39        41     1
        39        42     1
        40        41     1
        40        42     1
        41        43     1
        41        44     1
        42        43     1
        42        44     1
        43        45     1
        43        46     1
        44        45     1
        44        46     1
        45        47     1
        45        48     1
        46        47     1
        46        48     1
