; ITP file created by ByteFF-joint-25, 2026-02-17 09:29:18.001120

[ atomtypes ]
;name           bonded.type        at.num        mass        charge   ptype           sigma         epsilon
 s0bf                                  16      0.0000       0.00000       A     3.53170e-01     1.18307e+00    ;  uncertainty sigma = 0.000063, epsilon = 0.003090
 c1bf                                   6      0.0000       0.00000       A     3.31496e-01     4.13063e-01    ;  uncertainty sigma = 0.000036, epsilon = 0.002341
 c2bf                                   6      0.0000       0.00000       A     3.31479e-01     4.12857e-01    ;  uncertainty sigma = 0.000041, epsilon = 0.001811
 c3bf                                   6      0.0000       0.00000       A     3.31520e-01     4.13239e-01    ;  uncertainty sigma = 0.000021, epsilon = 0.000995
 c4bf                                   6      0.0000       0.00000       A     3.31546e-01     4.12979e-01    ;  uncertainty sigma = 0.000022, epsilon = 0.001109
 c5bf                                   6      0.0000       0.00000       A     3.31526e-01     4.13203e-01    ;  uncertainty sigma = 0.000050, epsilon = 0.002111
 o6bf                                   8      0.0000       0.00000       A     3.04804e-01     6.11836e-01    ;  uncertainty sigma = 0.000044, epsilon = 0.001672
 o7bf                                   8      0.0000       0.00000       A     3.04804e-01     6.11836e-01    ;  uncertainty sigma = 0.000044, epsilon = 0.001672
 c8bf                                   6      0.0000       0.00000       A     3.31509e-01     4.13033e-01    ;  uncertainty sigma = 0.000013, epsilon = 0.000382
 c9bf                                   6      0.0000       0.00000       A     3.31521e-01     4.13425e-01    ;  uncertainty sigma = 0.000005, epsilon = 0.000822
 c10bf                                  6      0.0000       0.00000       A     3.31507e-01     4.13226e-01    ;  uncertainty sigma = 0.000013, epsilon = 0.000870
 c11bf                                  6      0.0000       0.00000       A     3.31521e-01     4.13203e-01    ;  uncertainty sigma = 0.000002, epsilon = 0.000548
 c12bf                                  6      0.0000       0.00000       A     3.31522e-01     4.13513e-01    ;  uncertainty sigma = 0.000003, epsilon = 0.000666
 c13bf                                  6      0.0000       0.00000       A     3.31522e-01     4.13257e-01    ;  uncertainty sigma = 0.000003, epsilon = 0.000591
 c14bf                                  6      0.0000       0.00000       A     3.39775e-01     4.50575e-01    ;  uncertainty sigma = 0.000010, epsilon = 0.000553
 o15bf                                  8      0.0000       0.00000       A     3.15833e-01     3.03717e-01    ;  uncertainty sigma = 0.000061, epsilon = 0.008095
 c16bf                                  6      0.0000       0.00000       A     3.39725e-01     4.50544e-01    ;  uncertainty sigma = 0.000027, epsilon = 0.002371
 c17bf                                  6      0.0000       0.00000       A     3.31523e-01     4.12941e-01    ;  uncertainty sigma = 0.000026, epsilon = 0.002863
 o18bf                                  8      0.0000       0.00000       A     3.04805e-01     6.12312e-01    ;  uncertainty sigma = 0.000022, epsilon = 0.002455
 o19bf                                  8      0.0000       0.00000       A     3.04805e-01     6.12312e-01    ;  uncertainty sigma = 0.000022, epsilon = 0.002455
 n20bf                                  7      0.0000       0.00000       A     3.27946e-01     6.44717e-01    ;  uncertainty sigma = 0.000033, epsilon = 0.000917
 c21bf                                  6      0.0000       0.00000       A     3.39792e-01     4.51330e-01    ;  uncertainty sigma = 0.000011, epsilon = 0.000898
 c22bf                                  6      0.0000       0.00000       A     3.39794e-01     4.50895e-01    ;  uncertainty sigma = 0.000006, epsilon = 0.000594
 c23bf                                  6      0.0000       0.00000       A     3.39757e-01     4.50321e-01    ;  uncertainty sigma = 0.000005, epsilon = 0.000485
 n24bf                                  7      0.0000       0.00000       A     3.36516e-01     3.59122e-01    ;  uncertainty sigma = 0.000022, epsilon = 0.001472
 c25bf                                  6      0.0000       0.00000       A     3.39757e-01     4.50321e-01    ;  uncertainty sigma = 0.000005, epsilon = 0.000485
 c26bf                                  6      0.0000       0.00000       A     3.39794e-01     4.50895e-01    ;  uncertainty sigma = 0.000006, epsilon = 0.000594
 s27bf                                 16      0.0000       0.00000       A     4.05888e-01     2.56891e-01    ;  uncertainty sigma = 0.000017, epsilon = 0.000907
 o28bf                                  8      0.0000       0.00000       A     3.04816e-01     6.11998e-01    ;  uncertainty sigma = 0.000009, epsilon = 0.000608
 o29bf                                  8      0.0000       0.00000       A     3.04816e-01     6.11998e-01    ;  uncertainty sigma = 0.000009, epsilon = 0.000608
 c30bf                                  6      0.0000       0.00000       A     3.39799e-01     4.50846e-01    ;  uncertainty sigma = 0.000016, epsilon = 0.001433
 c31bf                                  6      0.0000       0.00000       A     3.31503e-01     4.12959e-01    ;  uncertainty sigma = 0.000017, epsilon = 0.001220
 c32bf                                  6      0.0000       0.00000       A     3.31516e-01     4.13385e-01    ;  uncertainty sigma = 0.000003, epsilon = 0.000454
 c33bf                                  6      0.0000       0.00000       A     3.31517e-01     4.13357e-01    ;  uncertainty sigma = 0.000003, epsilon = 0.000583
 c34bf                                  6      0.0000       0.00000       A     3.31519e-01     4.13331e-01    ;  uncertainty sigma = 0.000003, epsilon = 0.000569
 c35bf                                  6      0.0000       0.00000       A     3.31517e-01     4.13357e-01    ;  uncertainty sigma = 0.000003, epsilon = 0.000583
 c36bf                                  6      0.0000       0.00000       A     3.31516e-01     4.13385e-01    ;  uncertainty sigma = 0.000003, epsilon = 0.000454
 h37bf                                  1      0.0000       0.00000       A     2.62548e-01     6.70805e-02    ;  uncertainty sigma = 0.000012, epsilon = 0.000580
 h38bf                                  1      0.0000       0.00000       A     2.62556e-01     6.70450e-02    ;  uncertainty sigma = 0.000012, epsilon = 0.000463
 h39bf                                  1      0.0000       0.00000       A     2.62563e-01     6.69897e-02    ;  uncertainty sigma = 0.000012, epsilon = 0.000446
 h40bf                                  1      0.0000       0.00000       A     2.62561e-01     6.70428e-02    ;  uncertainty sigma = 0.000012, epsilon = 0.000452
 h41bf                                  1      0.0000       0.00000       A     2.42291e-01     8.67021e-02    ;  uncertainty sigma = 0.000194, epsilon = 0.000950
 h42bf                                  1      0.0000       0.00000       A     2.42291e-01     8.67021e-02    ;  uncertainty sigma = 0.000194, epsilon = 0.000950
 h43bf                                  1      0.0000       0.00000       A     1.10678e-01     4.13568e-02    ;  uncertainty sigma = 0.000090, epsilon = 0.000744
 h44bf                                  1      0.0000       0.00000       A     2.42228e-01     8.69235e-02    ;  uncertainty sigma = 0.000023, epsilon = 0.000690
 h45bf                                  1      0.0000       0.00000       A     2.60030e-01     8.68440e-02    ;  uncertainty sigma = 0.000010, epsilon = 0.000536
 h46bf                                  1      0.0000       0.00000       A     2.60030e-01     8.68440e-02    ;  uncertainty sigma = 0.000010, epsilon = 0.000536
 h47bf                                  1      0.0000       0.00000       A     2.42194e-01     8.69282e-02    ;  uncertainty sigma = 0.000025, epsilon = 0.000692
 h48bf                                  1      0.0000       0.00000       A     2.42194e-01     8.69282e-02    ;  uncertainty sigma = 0.000025, epsilon = 0.000692
 h49bf                                  1      0.0000       0.00000       A     2.42194e-01     8.69282e-02    ;  uncertainty sigma = 0.000025, epsilon = 0.000692
 h50bf                                  1      0.0000       0.00000       A     2.42194e-01     8.69282e-02    ;  uncertainty sigma = 0.000025, epsilon = 0.000692
 h51bf                                  1      0.0000       0.00000       A     2.60030e-01     8.68440e-02    ;  uncertainty sigma = 0.000010, epsilon = 0.000536
 h52bf                                  1      0.0000       0.00000       A     2.60030e-01     8.68440e-02    ;  uncertainty sigma = 0.000010, epsilon = 0.000536
 h53bf                                  1      0.0000       0.00000       A     2.42160e-01     8.67038e-02    ;  uncertainty sigma = 0.000064, epsilon = 0.000815
 h54bf                                  1      0.0000       0.00000       A     2.42160e-01     8.67038e-02    ;  uncertainty sigma = 0.000064, epsilon = 0.000815
 h55bf                                  1      0.0000       0.00000       A     2.62562e-01     6.71208e-02    ;  uncertainty sigma = 0.000008, epsilon = 0.000478
 h56bf                                  1      0.0000       0.00000       A     2.62558e-01     6.70323e-02    ;  uncertainty sigma = 0.000010, epsilon = 0.000442
 h57bf                                  1      0.0000       0.00000       A     2.62552e-01     6.70646e-02    ;  uncertainty sigma = 0.000011, epsilon = 0.000453
 h58bf                                  1      0.0000       0.00000       A     2.62558e-01     6.70323e-02    ;  uncertainty sigma = 0.000010, epsilon = 0.000442
 h59bf                                  1      0.0000       0.00000       A     2.62562e-01     6.71208e-02    ;  uncertainty sigma = 0.000008, epsilon = 0.000478
 h60bf                                  1      0.0000       0.00000       A     2.60036e-01     8.68598e-02    ;  uncertainty sigma = 0.000010, epsilon = 0.000372
 h61bf                                  1      0.0000       0.00000       A     2.60036e-01     8.68596e-02    ;  uncertainty sigma = 0.000010, epsilon = 0.000372
 h62bf                                  1      0.0000       0.00000       A     2.60036e-01     8.68598e-02    ;  uncertainty sigma = 0.000010, epsilon = 0.000372

[ moleculetype ]
;name             nrexcl
 MOL                   3

[ atoms ]
;       nr            type      resi   res      atom      cgnr      charge          mass ; qtot
         1            s0bf         1   UNL        s0         1    -0.09267       32.0670 ; qtot   -0.093
         2            c1bf         1   UNL        c1         2    -0.15316       12.0110 ; qtot   -0.246
         3            c2bf         1   UNL        c2         3     0.07708       12.0110 ; qtot   -0.169
         4            c3bf         1   UNL        c3         4    -0.10465       12.0110 ; qtot   -0.273
         5            c4bf         1   UNL        c4         5    -0.09132       12.0110 ; qtot   -0.365
         6            c5bf         1   UNL        c5         6     0.93110       12.0110 ; qtot    0.566
         7            o6bf         1   UNL        o6         7    -0.82147       15.9990 ; qtot   -0.255
         8            o7bf         1   UNL        o7         8    -0.82147       15.9990 ; qtot   -1.077
         9            c8bf         1   UNL        c8         9     0.03162       12.0110 ; qtot   -1.045
        10            c9bf         1   UNL        c9        10    -0.18858       12.0110 ; qtot   -1.234
        11           c10bf         1   UNL       c10        11     0.16018       12.0110 ; qtot   -1.073
        12           c11bf         1   UNL       c11        12    -0.19079       12.0110 ; qtot   -1.264
        13           c12bf         1   UNL       c12        13    -0.09224       12.0110 ; qtot   -1.356
        14           c13bf         1   UNL       c13        14    -0.14371       12.0110 ; qtot   -1.500
        15           c14bf         1   UNL       c14        15    -0.02942       12.0110 ; qtot   -1.530
        16           o15bf         1   UNL       o15        16    -0.34122       15.9990 ; qtot   -1.871
        17           c16bf         1   UNL       c16        17    -0.04414       12.0110 ; qtot   -1.915
        18           c17bf         1   UNL       c17        18     0.91594       12.0110 ; qtot   -0.999
        19           o18bf         1   UNL       o18        19    -0.83281       15.9990 ; qtot   -1.832
        20           o19bf         1   UNL       o19        20    -0.83281       15.9990 ; qtot   -2.665
        21           n20bf         1   UNL       n20        21    -0.74906       14.0070 ; qtot   -3.414
        22           c21bf         1   UNL       c21        22     0.20770       12.0110 ; qtot   -3.206
        23           c22bf         1   UNL       c22        23    -0.10422       12.0110 ; qtot   -3.310
        24           c23bf         1   UNL       c23        24     0.20435       12.0110 ; qtot   -3.106
        25           n24bf         1   UNL       n24        25    -0.73938       14.0070 ; qtot   -3.845
        26           c25bf         1   UNL       c25        26     0.20435       12.0110 ; qtot   -3.641
        27           c26bf         1   UNL       c26        27    -0.10422       12.0110 ; qtot   -3.745
        28           s27bf         1   UNL       s27        28     1.14047       32.0670 ; qtot   -2.605
        29           o28bf         1   UNL       o28        29    -0.58827       15.9990 ; qtot   -3.193
        30           o29bf         1   UNL       o29        30    -0.58827       15.9990 ; qtot   -3.781
        31           c30bf         1   UNL       c30        31    -0.10260       12.0110 ; qtot   -3.884
        32           c31bf         1   UNL       c31        32    -0.08640       12.0110 ; qtot   -3.970
        33           c32bf         1   UNL       c32        33    -0.10541       12.0110 ; qtot   -4.076
        34           c33bf         1   UNL       c33        34    -0.12917       12.0110 ; qtot   -4.205
        35           c34bf         1   UNL       c34        35    -0.12175       12.0110 ; qtot   -4.326
        36           c35bf         1   UNL       c35        36    -0.12917       12.0110 ; qtot   -4.456
        37           c36bf         1   UNL       c36        37    -0.10541       12.0110 ; qtot   -4.561
        38           h37bf         1   UNL       h37        38     0.13813        1.0080 ; qtot   -4.423
        39           h38bf         1   UNL       h38        39     0.13179        1.0080 ; qtot   -4.291
        40           h39bf         1   UNL       h39        40     0.13626        1.0080 ; qtot   -4.155
        41           h40bf         1   UNL       h40        41     0.14063        1.0080 ; qtot   -4.014
        42           h41bf         1   UNL       h41        42     0.02154        1.0080 ; qtot   -3.993
        43           h42bf         1   UNL       h42        43     0.02154        1.0080 ; qtot   -3.971
        44           h43bf         1   UNL       h43        44     0.39961        1.0080 ; qtot   -3.572
        45           h44bf         1   UNL       h44        45     0.06053        1.0080 ; qtot   -3.511
        46           h45bf         1   UNL       h45        46     0.05926        1.0080 ; qtot   -3.452
        47           h46bf         1   UNL       h46        47     0.05926        1.0080 ; qtot   -3.392
        48           h47bf         1   UNL       h47        48     0.06174        1.0080 ; qtot   -3.331
        49           h48bf         1   UNL       h48        49     0.06174        1.0080 ; qtot   -3.269
        50           h49bf         1   UNL       h49        50     0.06174        1.0080 ; qtot   -3.207
        51           h50bf         1   UNL       h50        51     0.06174        1.0080 ; qtot   -3.145
        52           h51bf         1   UNL       h51        52     0.05926        1.0080 ; qtot   -3.086
        53           h52bf         1   UNL       h52        53     0.05926        1.0080 ; qtot   -3.027
        54           h53bf         1   UNL       h53        54     0.10127        1.0080 ; qtot   -2.926
        55           h54bf         1   UNL       h54        55     0.10127        1.0080 ; qtot   -2.824
        56           h55bf         1   UNL       h55        56     0.14029        1.0080 ; qtot   -2.684
        57           h56bf         1   UNL       h56        57     0.13299        1.0080 ; qtot   -2.551
        58           h57bf         1   UNL       h57        58     0.13198        1.0080 ; qtot   -2.419
        59           h58bf         1   UNL       h58        59     0.13299        1.0080 ; qtot   -2.286
        60           h59bf         1   UNL       h59        60     0.14029        1.0080 ; qtot   -2.146
        61           h60bf         1   UNL       h60        61     0.04862        1.0080 ; qtot   -2.097
        62           h61bf         1   UNL       h61        62     0.04862        1.0080 ; qtot   -2.049
        63           h62bf         1   UNL       h62        63     0.04865        1.0080 ; qtot   -2.000

[ bonds ]
;       ai        aj funct               r               k
         1         2     1        0.174255   165627.434814    ;  uncertainty r = 0.000328, k = 39.984442
         1         5     1        0.174701   167906.213232    ;  uncertainty r = 0.000304, k = 11.649516
         2         3     1        0.138181   386181.718848    ;  uncertainty r = 0.000161, k = 37.405646
         2         6     1        0.153802   197822.873022    ;  uncertainty r = 0.000232, k = 36.095725
         3         4     1        0.144099   252419.974316    ;  uncertainty r = 0.000473, k = 39.648083
         3        16     1        0.137039   311412.663330    ;  uncertainty r = 0.000406, k = 34.029607
         4         5     1        0.138137   380639.936279    ;  uncertainty r = 0.000217, k = 9.854834
         4        15     1        0.150489   239134.829443    ;  uncertainty r = 0.000034, k = 12.477632
         5         9     1        0.146771   276934.782129    ;  uncertainty r = 0.000127, k = 10.618954
         6         7     1        0.126171   549432.440430    ;  uncertainty r = 0.000216, k = 9.927637
         6         8     1        0.126171   549432.440430    ;  uncertainty r = 0.000216, k = 9.927637
         9        10     1        0.140005   349203.907861    ;  uncertainty r = 0.000073, k = 5.630223
         9        14     1        0.140367   351281.939063    ;  uncertainty r = 0.000028, k = 3.335594
        10        11     1        0.140736   362459.378613    ;  uncertainty r = 0.000033, k = 6.215667
        10        38     1        0.108904   336738.708496    ;  uncertainty r = 0.000027, k = 2.669934
        11        12     1        0.140941   361928.206738    ;  uncertainty r = 0.000067, k = 7.751592
        11        21     1        0.139656   340533.778320    ;  uncertainty r = 0.000093, k = 9.299274
        12        13     1        0.139380   371821.742578    ;  uncertainty r = 0.000036, k = 2.429869
        12        39     1        0.108873   337023.140820    ;  uncertainty r = 0.000023, k = 0.936943
        13        14     1        0.139383   367284.564355    ;  uncertainty r = 0.000031, k = 1.348217
        13        40     1        0.108779   332374.620801    ;  uncertainty r = 0.000017, k = 1.550752
        14        41     1        0.108772   334830.167090    ;  uncertainty r = 0.000019, k = 1.215304
        15        61     1        0.109459   311157.266699    ;  uncertainty r = 0.000027, k = 1.963006
        15        62     1        0.109459   311157.266699    ;  uncertainty r = 0.000027, k = 1.963006
        15        63     1        0.109459   311157.266699    ;  uncertainty r = 0.000027, k = 1.963006
        16        17     1        0.144372   223999.980664    ;  uncertainty r = 0.000561, k = 16.379046
        17        18     1        0.155277   163133.531787    ;  uncertainty r = 0.000272, k = 67.028447
        17        42     1        0.109711   316551.827832    ;  uncertainty r = 0.000078, k = 8.044763
        17        43     1        0.109711   316551.827832    ;  uncertainty r = 0.000078, k = 8.044763
        18        19     1        0.126286   541570.585938    ;  uncertainty r = 0.000058, k = 12.189171
        18        20     1        0.126286   541570.585938    ;  uncertainty r = 0.000058, k = 12.189171
        21        22     1        0.146259   234136.578711    ;  uncertainty r = 0.000084, k = 7.753098
        21        44     1        0.101386   415221.140625    ;  uncertainty r = 0.000050, k = 2.421602
        22        23     1        0.153823   205581.391602    ;  uncertainty r = 0.000032, k = 5.695215
        22        27     1        0.153823   205581.391602    ;  uncertainty r = 0.000032, k = 5.695215
        22        45     1        0.109618   302969.992822    ;  uncertainty r = 0.000029, k = 3.107582
        23        24     1        0.153043   210383.249194    ;  uncertainty r = 0.000034, k = 2.538289
        23        46     1        0.109607   310899.341895    ;  uncertainty r = 0.000023, k = 1.329036
        23        47     1        0.109607   310899.341895    ;  uncertainty r = 0.000023, k = 1.329036
        24        25     1        0.147392   220427.696582    ;  uncertainty r = 0.000066, k = 11.885726
        24        48     1        0.109564   306592.048730    ;  uncertainty r = 0.000043, k = 1.487022
        24        49     1        0.109564   306592.048730    ;  uncertainty r = 0.000043, k = 1.487022
        25        26     1        0.147392   220427.696582    ;  uncertainty r = 0.000066, k = 11.885726
        25        28     1        0.167957   119743.710156    ;  uncertainty r = 0.000111, k = 13.461252
        26        27     1        0.153043   210383.249194    ;  uncertainty r = 0.000034, k = 2.538289
        26        50     1        0.109564   306592.048730    ;  uncertainty r = 0.000043, k = 1.487022
        26        51     1        0.109564   306592.048730    ;  uncertainty r = 0.000043, k = 1.487022
        27        52     1        0.109607   310899.341895    ;  uncertainty r = 0.000023, k = 1.329036
        27        53     1        0.109607   310899.341895    ;  uncertainty r = 0.000023, k = 1.329036
        28        29     1        0.147216   517367.790527    ;  uncertainty r = 0.000046, k = 6.238391
        28        30     1        0.147216   517367.790527    ;  uncertainty r = 0.000046, k = 6.238391
        28        31     1        0.183347   144483.691431    ;  uncertainty r = 0.000059, k = 10.559043
        31        32     1        0.150254   236045.528711    ;  uncertainty r = 0.000070, k = 6.059591
        31        54     1        0.109543   319118.741455    ;  uncertainty r = 0.000033, k = 1.728383
        31        55     1        0.109543   319118.741455    ;  uncertainty r = 0.000033, k = 1.728383
        32        33     1        0.139903   352173.567236    ;  uncertainty r = 0.000032, k = 2.758771
        32        37     1        0.139903   352173.567236    ;  uncertainty r = 0.000032, k = 2.758771
        33        34     1        0.139513   367487.380078    ;  uncertainty r = 0.000019, k = 1.407067
        33        56     1        0.108838   333708.832617    ;  uncertainty r = 0.000023, k = 0.433138
        34        35     1        0.139644   370527.470801    ;  uncertainty r = 0.000023, k = 1.213490
        34        57     1        0.108843   334218.195801    ;  uncertainty r = 0.000011, k = 0.972131
        35        36     1        0.139644   370527.470801    ;  uncertainty r = 0.000023, k = 1.213490
        35        58     1        0.108851   334582.431592    ;  uncertainty r = 0.000012, k = 0.680626
        36        37     1        0.139513   367487.380078    ;  uncertainty r = 0.000019, k = 1.407067
        36        59     1        0.108843   334218.195801    ;  uncertainty r = 0.000011, k = 0.972133
        37        60     1        0.108838   333708.807080    ;  uncertainty r = 0.000023, k = 0.433133

[ angles ]
;       ai        aj        ak funct           theta             cth
         1         2         3     1      111.743668      489.662581    ;  uncertainty theta = 0.007646, k = 0.435275
         1         2         6     1      115.691055      326.103109    ;  uncertainty theta = 0.012022, k = 0.251850
         1         5         4     1      113.158813      439.177311    ;  uncertainty theta = 0.001643, k = 0.410444
         1         5         9     1      117.546799      350.248446    ;  uncertainty theta = 0.005053, k = 0.132066
         2         1         5     1       92.956955     1131.034744    ;  uncertainty theta = 0.010157, k = 0.170897
         2         3         4     1      117.504944      506.514008    ;  uncertainty theta = 0.003764, k = 0.428917
         2         3        16     1      122.832581      389.819825    ;  uncertainty theta = 0.005761, k = 0.427753
         2         6         7     1      115.273354      376.507457    ;  uncertainty theta = 0.012686, k = 0.164477
         2         6         8     1      115.273354      376.507457    ;  uncertainty theta = 0.012686, k = 0.164477
         3         2         6     1      128.570984      311.149376    ;  uncertainty theta = 0.014386, k = 0.337873
         3         4         5     1      114.299843      573.438983    ;  uncertainty theta = 0.006086, k = 0.208058
         3         4        15     1      120.881180      365.238442    ;  uncertainty theta = 0.002639, k = 0.317324
         3        16        17     1      112.569016      470.938453    ;  uncertainty theta = 0.008948, k = 0.235614
         4         3        16     1      117.064476      389.741139    ;  uncertainty theta = 0.009896, k = 0.177422
         4         5         9     1      125.005081      343.594848    ;  uncertainty theta = 0.005209, k = 0.175831
         4        15        61     1      109.612267      409.281784    ;  uncertainty theta = 0.001081, k = 0.092102
         4        15        62     1      109.612267      409.281784    ;  uncertainty theta = 0.001081, k = 0.092102
         4        15        63     1      109.612267      409.281784    ;  uncertainty theta = 0.001081, k = 0.092102
         5         4        15     1      123.451134      372.765249    ;  uncertainty theta = 0.002704, k = 0.209033
         5         9        10     1      121.185326      421.304272    ;  uncertainty theta = 0.002950, k = 0.136860
         5         9        14     1      122.023544      423.474926    ;  uncertainty theta = 0.002347, k = 0.078417
         7         6         8     1      131.497467      807.013005    ;  uncertainty theta = 0.008612, k = 0.191242
         9        10        11     1      120.566978      538.077492    ;  uncertainty theta = 0.004502, k = 0.073235
         9        10        38     1      119.641151      279.949891    ;  uncertainty theta = 0.002751, k = 0.072777
         9        14        13     1      119.368759      529.634094    ;  uncertainty theta = 0.002023, k = 0.059252
         9        14        41     1      119.704063      279.296109    ;  uncertainty theta = 0.002784, k = 0.071448
        10         9        14     1      121.068314      395.050814    ;  uncertainty theta = 0.004995, k = 0.168563
        10        11        12     1      118.910568      368.351415    ;  uncertainty theta = 0.007239, k = 0.175198
        10        11        21     1      123.224770      562.003721    ;  uncertainty theta = 0.004712, k = 0.227910
        11        10        38     1      119.571518      277.191468    ;  uncertainty theta = 0.001768, k = 0.040852
        11        12        13     1      118.451317      533.334932    ;  uncertainty theta = 0.003729, k = 0.122588
        11        12        39     1      119.619423      267.231708    ;  uncertainty theta = 0.002416, k = 0.066386
        11        21        22     1      114.779846      429.072533    ;  uncertainty theta = 0.004451, k = 0.146915
        11        21        44     1      110.680946      371.423657    ;  uncertainty theta = 0.004168, k = 0.065248
        12        11        21     1      123.735001      591.600465    ;  uncertainty theta = 0.004505, k = 0.147872
        12        13        14     1      121.410660      506.505900    ;  uncertainty theta = 0.002791, k = 0.088822
        12        13        40     1      120.189308      280.032408    ;  uncertainty theta = 0.001024, k = 0.065623
        13        12        39     1      121.003220      294.864680    ;  uncertainty theta = 0.002261, k = 0.074534
        13        14        41     1      120.700294      295.371975    ;  uncertainty theta = 0.001448, k = 0.059296
        14        13        40     1      120.148483      281.295505    ;  uncertainty theta = 0.000976, k = 0.025430
        16        17        18     1      108.555008      486.374167    ;  uncertainty theta = 0.010120, k = 0.251176
        16        17        42     1      106.652405      413.753044    ;  uncertainty theta = 0.002671, k = 0.089913
        16        17        43     1      106.652405      413.753044    ;  uncertainty theta = 0.002671, k = 0.089913
        17        18        19     1      116.307999      427.010666    ;  uncertainty theta = 0.009736, k = 0.299914
        17        18        20     1      116.307999      427.010666    ;  uncertainty theta = 0.009736, k = 0.299914
        18        17        42     1      110.007668      352.488114    ;  uncertainty theta = 0.003982, k = 0.109633
        18        17        43     1      110.007668      352.488114    ;  uncertainty theta = 0.003982, k = 0.109633
        19        18        20     1      131.546265      818.159315    ;  uncertainty theta = 0.002374, k = 0.066126
        21        22        23     1      111.874893      608.781640    ;  uncertainty theta = 0.002670, k = 0.056193
        21        22        27     1      111.874893      608.781640    ;  uncertainty theta = 0.002670, k = 0.056193
        21        22        45     1      105.105202      431.697684    ;  uncertainty theta = 0.000667, k = 0.128592
        22        21        44     1      109.826096      364.700566    ;  uncertainty theta = 0.003958, k = 0.118398
        22        23        24     1      110.060074      566.963538    ;  uncertainty theta = 0.002977, k = 0.093252
        22        23        46     1      108.163086      389.798501    ;  uncertainty theta = 0.000562, k = 0.019447
        22        23        47     1      108.163086      389.798501    ;  uncertainty theta = 0.000562, k = 0.019447
        22        27        26     1      110.060074      566.963538    ;  uncertainty theta = 0.002977, k = 0.093252
        22        27        52     1      108.163086      389.798501    ;  uncertainty theta = 0.000562, k = 0.019447
        22        27        53     1      108.163086      389.798501    ;  uncertainty theta = 0.000562, k = 0.019447
        23        22        27     1      108.550858      573.147413    ;  uncertainty theta = 0.002717, k = 0.112066
        23        22        45     1      107.951881      404.294482    ;  uncertainty theta = 0.002626, k = 0.042159
        23        24        25     1      109.259689      661.967140    ;  uncertainty theta = 0.002496, k = 0.165476
        23        24        48     1      109.589439      414.874921    ;  uncertainty theta = 0.000574, k = 0.041752
        23        24        49     1      109.589439      414.874921    ;  uncertainty theta = 0.000574, k = 0.041752
        24        23        46     1      107.819115      397.813036    ;  uncertainty theta = 0.000545, k = 0.058984
        24        23        47     1      107.819115      397.813036    ;  uncertainty theta = 0.000545, k = 0.058984
        24        25        26     1      108.347214      477.043099    ;  uncertainty theta = 0.006497, k = 0.088259
        24        25        28     1      107.526390      421.352824    ;  uncertainty theta = 0.004077, k = 0.136080
        25        24        48     1      107.439697      440.133772    ;  uncertainty theta = 0.001245, k = 0.060515
        25        24        49     1      107.439697      440.133772    ;  uncertainty theta = 0.001245, k = 0.060515
        25        26        27     1      109.259689      661.967140    ;  uncertainty theta = 0.002496, k = 0.165476
        25        26        50     1      107.439697      440.133772    ;  uncertainty theta = 0.001245, k = 0.060515
        25        26        51     1      107.439697      440.133772    ;  uncertainty theta = 0.001245, k = 0.060515
        25        28        29     1      113.095688      783.120613    ;  uncertainty theta = 0.002858, k = 0.059603
        25        28        30     1      113.095688      783.120613    ;  uncertainty theta = 0.002858, k = 0.059603
        25        28        31     1      104.556190      574.445401    ;  uncertainty theta = 0.004758, k = 0.134924
        26        25        28     1      107.526390      421.352824    ;  uncertainty theta = 0.004077, k = 0.136080
        26        27        52     1      107.819115      397.813036    ;  uncertainty theta = 0.000545, k = 0.058984
        26        27        53     1      107.819115      397.813036    ;  uncertainty theta = 0.000545, k = 0.058984
        27        22        45     1      107.951881      404.294482    ;  uncertainty theta = 0.002626, k = 0.042159
        27        26        50     1      109.589439      414.874921    ;  uncertainty theta = 0.000574, k = 0.041752
        27        26        51     1      109.589439      414.874921    ;  uncertainty theta = 0.000574, k = 0.041752
        28        31        32     1      109.649918      495.715035    ;  uncertainty theta = 0.004234, k = 0.061160
        28        31        54     1      105.703957      368.051993    ;  uncertainty theta = 0.002863, k = 0.113098
        28        31        55     1      105.703957      368.051993    ;  uncertainty theta = 0.002863, k = 0.113098
        29        28        30     1      123.102562      837.741170    ;  uncertainty theta = 0.004451, k = 0.055256
        29        28        31     1      111.604637      646.652216    ;  uncertainty theta = 0.003974, k = 0.095117
        30        28        31     1      111.604637      646.652216    ;  uncertainty theta = 0.003974, k = 0.095117
        31        32        33     1      119.892944      402.465801    ;  uncertainty theta = 0.003011, k = 0.179666
        31        32        37     1      119.892944      402.465801    ;  uncertainty theta = 0.003011, k = 0.179666
        32        31        54     1      110.903542      383.204564    ;  uncertainty theta = 0.003465, k = 0.060312
        32        31        55     1      110.903542      383.204564    ;  uncertainty theta = 0.003465, k = 0.060312
        32        33        34     1      120.345314      516.940906    ;  uncertainty theta = 0.001946, k = 0.082955
        32        33        56     1      118.665062      275.796121    ;  uncertainty theta = 0.001604, k = 0.061144
        32        37        36     1      120.345314      516.940906    ;  uncertainty theta = 0.001946, k = 0.082955
        32        37        60     1      118.665062      275.796121    ;  uncertainty theta = 0.001604, k = 0.061144
        33        32        37     1      120.659508      464.018056    ;  uncertainty theta = 0.002029, k = 0.059375
        33        34        35     1      119.373512      517.504989    ;  uncertainty theta = 0.001399, k = 0.034154
        33        34        57     1      119.983643      284.143659    ;  uncertainty theta = 0.001388, k = 0.020024
        34        33        56     1      120.407043      293.275698    ;  uncertainty theta = 0.001871, k = 0.020524
        34        35        36     1      118.513145      527.821821    ;  uncertainty theta = 0.001354, k = 0.028652
        34        35        58     1      120.600479      288.987953    ;  uncertainty theta = 0.001685, k = 0.006948
        35        34        57     1      120.580788      288.011318    ;  uncertainty theta = 0.001274, k = 0.008284
        35        36        37     1      119.373512      517.504989    ;  uncertainty theta = 0.001399, k = 0.034154
        35        36        59     1      120.580788      288.011318    ;  uncertainty theta = 0.001274, k = 0.008284
        36        35        58     1      120.600479      288.987953    ;  uncertainty theta = 0.001685, k = 0.006948
        36        37        60     1      120.407043      293.275698    ;  uncertainty theta = 0.001871, k = 0.020524
        37        36        59     1      119.983643      284.143659    ;  uncertainty theta = 0.001388, k = 0.020024
        42        17        43     1      108.368065      321.352728    ;  uncertainty theta = 0.009719, k = 0.175772
        46        23        47     1      105.624390      312.800446    ;  uncertainty theta = 0.001718, k = 0.026570
        48        24        49     1      105.553688      321.577422    ;  uncertainty theta = 0.001002, k = 0.056967
        50        26        51     1      105.553688      321.577422    ;  uncertainty theta = 0.001002, k = 0.056967
        52        27        53     1      105.624390      312.800446    ;  uncertainty theta = 0.001718, k = 0.026570
        54        31        55     1      107.674545      299.565807    ;  uncertainty theta = 0.003188, k = 0.077713
        61        15        62     1      106.562889      315.707175    ;  uncertainty theta = 0.000431, k = 0.037376
        61        15        63     1      106.562889      315.707175    ;  uncertainty theta = 0.000431, k = 0.037376
        62        15        63     1      106.562889      315.707175    ;  uncertainty theta = 0.000431, k = 0.037376

[ dihedrals ] ; propers for gromacs 4.5 or higher, use funct 9
;       ai        aj        ak        al funct           phase               k        pn
         1         2         3         4     9        0.000000       -0.472069         1    ;  uncertainty k = 0.794770
         1         2         3         4     9      180.000000       16.728373         2    ;  uncertainty k = 0.530684
         1         2         3         4     9        0.000000       -2.415061         3    ;  uncertainty k = 1.342465
         1         2         3         4     9      180.000000        0.991092         4    ;  uncertainty k = 0.583161
         1         2         3        16     9        0.000000        0.436039         1    ;  uncertainty k = 1.266084
         1         2         3        16     9      180.000000       18.271500         2    ;  uncertainty k = 0.195146
         1         2         3        16     9        0.000000        1.594354         3    ;  uncertainty k = 0.432031
         1         2         3        16     9      180.000000        0.648130         4    ;  uncertainty k = 0.344048
         1         2         6         7     9        0.000000        0.406191         1    ;  uncertainty k = 2.323460
         1         2         6         7     9      180.000000        5.023570         2    ;  uncertainty k = 0.386202
         1         2         6         7     9        0.000000        0.200671         3    ;  uncertainty k = 0.494649
         1         2         6         7     9      180.000000        0.212324         4    ;  uncertainty k = 0.147191
         1         2         6         8     9        0.000000        0.406191         1    ;  uncertainty k = 2.323460
         1         2         6         8     9      180.000000        5.023570         2    ;  uncertainty k = 0.386202
         1         2         6         8     9        0.000000        0.200671         3    ;  uncertainty k = 0.494649
         1         2         6         8     9      180.000000        0.212324         4    ;  uncertainty k = 0.147191
         1         5         4         3     9        0.000000       -0.272875         1    ;  uncertainty k = 0.235743
         1         5         4         3     9      180.000000       17.009854         2    ;  uncertainty k = 0.383512
         1         5         4         3     9        0.000000       -2.960766         3    ;  uncertainty k = 0.715530
         1         5         4         3     9      180.000000        0.849527         4    ;  uncertainty k = 0.819862
         1         5         4        15     9        0.000000        0.464553         1    ;  uncertainty k = 1.063566
         1         5         4        15     9      180.000000       12.703245         2    ;  uncertainty k = 0.647790
         1         5         4        15     9        0.000000        2.020809         3    ;  uncertainty k = 0.486838
         1         5         4        15     9      180.000000        0.823415         4    ;  uncertainty k = 0.436908
         1         5         9        10     9        0.000000       -0.805613         1    ;  uncertainty k = 0.964652
         1         5         9        10     9      180.000000        3.720026         2    ;  uncertainty k = 0.205415
         1         5         9        10     9        0.000000        0.340284         3    ;  uncertainty k = 0.228139
         1         5         9        10     9      180.000000        0.177795         4    ;  uncertainty k = 0.192299
         1         5         9        14     9        0.000000       -0.345360         1    ;  uncertainty k = 0.814930
         1         5         9        14     9      180.000000        3.816631         2    ;  uncertainty k = 0.268377
         1         5         9        14     9        0.000000        0.505763         3    ;  uncertainty k = 0.226715
         1         5         9        14     9      180.000000        0.174227         4    ;  uncertainty k = 0.181532
         2         1         5         4     9        0.000000       -0.590659         1    ;  uncertainty k = 1.233334
         2         1         5         4     9      180.000000       14.100449         2    ;  uncertainty k = 0.853422
         2         1         5         4     9        0.000000       -6.806018         3    ;  uncertainty k = 0.455918
         2         1         5         4     9      180.000000        1.244233         4    ;  uncertainty k = 0.362966
         2         1         5         9     9        0.000000        0.662035         1    ;  uncertainty k = 0.708112
         2         1         5         9     9      180.000000       11.245083         2    ;  uncertainty k = 0.545969
         2         1         5         9     9        0.000000        1.128501         3    ;  uncertainty k = 0.973190
         2         1         5         9     9      180.000000       -0.097748         4    ;  uncertainty k = 0.533813
         2         3         4         5     9        0.000000       -0.582198         1    ;  uncertainty k = 0.695292
         2         3         4         5     9      180.000000       10.375757         2    ;  uncertainty k = 0.811673
         2         3         4         5     9        0.000000       -2.670673         3    ;  uncertainty k = 0.356062
         2         3         4         5     9      180.000000        1.143851         4    ;  uncertainty k = 0.361374
         2         3         4        15     9        0.000000        0.240024         1    ;  uncertainty k = 0.734228
         2         3         4        15     9      180.000000        7.589463         2    ;  uncertainty k = 0.291658
         2         3         4        15     9        0.000000        1.467612         3    ;  uncertainty k = 0.232760
         2         3         4        15     9      180.000000        0.525402         4    ;  uncertainty k = 0.213322
         2         3        16        17     9        0.000000        0.531521         1    ;  uncertainty k = 2.630382
         2         3        16        17     9      180.000000        4.435387         2    ;  uncertainty k = 1.293332
         2         3        16        17     9        0.000000       -0.035685         3    ;  uncertainty k = 0.560756
         2         3        16        17     9      180.000000        0.083334         4    ;  uncertainty k = 0.222907
         3         2         1         5     9        0.000000       -0.948492         1    ;  uncertainty k = 1.645637
         3         2         1         5     9      180.000000       12.891653         2    ;  uncertainty k = 0.776996
         3         2         1         5     9        0.000000       -4.041298         3    ;  uncertainty k = 1.135262
         3         2         1         5     9      180.000000        1.212042         4    ;  uncertainty k = 0.646167
         3         2         6         7     9        0.000000       -1.096788         1    ;  uncertainty k = 1.665791
         3         2         6         7     9      180.000000        2.839591         2    ;  uncertainty k = 0.306563
         3         2         6         7     9        0.000000        0.397824         3    ;  uncertainty k = 0.368861
         3         2         6         7     9      180.000000        0.085681         4    ;  uncertainty k = 0.082752
         3         2         6         8     9        0.000000       -1.096788         1    ;  uncertainty k = 1.665791
         3         2         6         8     9      180.000000        2.839591         2    ;  uncertainty k = 0.306563
         3         2         6         8     9        0.000000        0.397824         3    ;  uncertainty k = 0.368861
         3         2         6         8     9      180.000000        0.085681         4    ;  uncertainty k = 0.082752
         3         4         5         9     9        0.000000        0.296655         1    ;  uncertainty k = 0.341620
         3         4         5         9     9      180.000000       13.582673         2    ;  uncertainty k = 0.179594
         3         4         5         9     9        0.000000        1.810443         3    ;  uncertainty k = 0.320148
         3         4         5         9     9      180.000000        0.778688         4    ;  uncertainty k = 0.339049
         3         4        15        61     9        0.000000       -0.159445         1    ;  uncertainty k = 0.368014
         3         4        15        61     9      180.000000        1.484991         2    ;  uncertainty k = 0.303052
         3         4        15        61     9        0.000000        0.568972         3    ;  uncertainty k = 0.096253
         3         4        15        61     9      180.000000        0.234032         4    ;  uncertainty k = 0.050513
         3         4        15        62     9        0.000000       -0.159445         1    ;  uncertainty k = 0.368014
         3         4        15        62     9      180.000000        1.484991         2    ;  uncertainty k = 0.303052
         3         4        15        62     9        0.000000        0.568972         3    ;  uncertainty k = 0.096253
         3         4        15        62     9      180.000000        0.234032         4    ;  uncertainty k = 0.050513
         3         4        15        63     9        0.000000       -0.159445         1    ;  uncertainty k = 0.368014
         3         4        15        63     9      180.000000        1.484991         2    ;  uncertainty k = 0.303052
         3         4        15        63     9        0.000000        0.568972         3    ;  uncertainty k = 0.096253
         3         4        15        63     9      180.000000        0.234032         4    ;  uncertainty k = 0.050513
         3        16        17        18     9        0.000000       -2.758653         1    ;  uncertainty k = 2.027954
         3        16        17        18     9      180.000000       -2.026690         2    ;  uncertainty k = 0.962876
         3        16        17        18     9        0.000000        0.395709         3    ;  uncertainty k = 0.431922
         3        16        17        18     9      180.000000        0.722068         4    ;  uncertainty k = 0.387440
         3        16        17        42     9        0.000000        2.031229         1    ;  uncertainty k = 0.790593
         3        16        17        42     9      180.000000       -0.743799         2    ;  uncertainty k = 0.641002
         3        16        17        42     9        0.000000        0.498390         3    ;  uncertainty k = 0.381438
         3        16        17        42     9      180.000000        0.014983         4    ;  uncertainty k = 0.198968
         3        16        17        43     9        0.000000        2.031229         1    ;  uncertainty k = 0.790593
         3        16        17        43     9      180.000000       -0.743799         2    ;  uncertainty k = 0.641002
         3        16        17        43     9        0.000000        0.498390         3    ;  uncertainty k = 0.381438
         3        16        17        43     9      180.000000        0.014983         4    ;  uncertainty k = 0.198968
         4         3         2         6     9        0.000000        0.713052         1    ;  uncertainty k = 1.437915
         4         3         2         6     9      180.000000        9.109922         2    ;  uncertainty k = 0.525178
         4         3         2         6     9        0.000000        2.054429         3    ;  uncertainty k = 0.436489
         4         3         2         6     9      180.000000        0.853043         4    ;  uncertainty k = 0.322701
         4         3        16        17     9        0.000000        0.818420         1    ;  uncertainty k = 1.886545
         4         3        16        17     9      180.000000        4.841762         2    ;  uncertainty k = 0.758635
         4         3        16        17     9        0.000000        0.374646         3    ;  uncertainty k = 0.629688
         4         3        16        17     9      180.000000       -0.036906         4    ;  uncertainty k = 0.139190
         4         5         9        10     9        0.000000        0.325308         1    ;  uncertainty k = 0.421476
         4         5         9        10     9      180.000000        3.822503         2    ;  uncertainty k = 0.142783
         4         5         9        10     9        0.000000        0.424247         3    ;  uncertainty k = 0.329608
         4         5         9        10     9      180.000000        0.070392         4    ;  uncertainty k = 0.137886
         4         5         9        14     9        0.000000        0.179725         1    ;  uncertainty k = 0.196065
         4         5         9        14     9      180.000000        3.879347         2    ;  uncertainty k = 0.252212
         4         5         9        14     9        0.000000        0.436263         3    ;  uncertainty k = 0.223022
         4         5         9        14     9      180.000000        0.061747         4    ;  uncertainty k = 0.090391
         5         1         2         6     9        0.000000        0.251097         1    ;  uncertainty k = 2.478965
         5         1         2         6     9      180.000000        8.485366         2    ;  uncertainty k = 0.483584
         5         1         2         6     9        0.000000        1.061516         3    ;  uncertainty k = 0.630409
         5         1         2         6     9      180.000000        0.578484         4    ;  uncertainty k = 0.216072
         5         4         3        16     9        0.000000        0.440824         1    ;  uncertainty k = 0.740687
         5         4         3        16     9      180.000000       13.554079         2    ;  uncertainty k = 0.568033
         5         4         3        16     9        0.000000        1.728257         3    ;  uncertainty k = 0.135447
         5         4         3        16     9      180.000000        0.357488         4    ;  uncertainty k = 0.503443
         5         4        15        61     9        0.000000        0.767691         1    ;  uncertainty k = 0.285489
         5         4        15        61     9      180.000000        1.624796         2    ;  uncertainty k = 0.408785
         5         4        15        61     9        0.000000        0.116352         3    ;  uncertainty k = 0.119441
         5         4        15        61     9      180.000000        0.082193         4    ;  uncertainty k = 0.039644
         5         4        15        62     9        0.000000        0.767691         1    ;  uncertainty k = 0.285489
         5         4        15        62     9      180.000000        1.624796         2    ;  uncertainty k = 0.408785
         5         4        15        62     9        0.000000        0.116352         3    ;  uncertainty k = 0.119441
         5         4        15        62     9      180.000000        0.082193         4    ;  uncertainty k = 0.039644
         5         4        15        63     9        0.000000        0.767691         1    ;  uncertainty k = 0.285489
         5         4        15        63     9      180.000000        1.624796         2    ;  uncertainty k = 0.408785
         5         4        15        63     9        0.000000        0.116352         3    ;  uncertainty k = 0.119441
         5         4        15        63     9      180.000000        0.082193         4    ;  uncertainty k = 0.039644
         5         9        10        11     9        0.000000        0.160488         1    ;  uncertainty k = 0.287676
         5         9        10        11     9      180.000000        8.702131         2    ;  uncertainty k = 0.591547
         5         9        10        11     9        0.000000        1.188998         3    ;  uncertainty k = 0.283313
         5         9        10        11     9      180.000000        1.581348         4    ;  uncertainty k = 0.226716
         5         9        10        38     9        0.000000        0.005564         1    ;  uncertainty k = 0.532412
         5         9        10        38     9      180.000000        7.116916         2    ;  uncertainty k = 0.435687
         5         9        10        38     9        0.000000        0.706995         3    ;  uncertainty k = 0.191488
         5         9        10        38     9      180.000000        1.230783         4    ;  uncertainty k = 0.213726
         5         9        14        13     9        0.000000       -0.007183         1    ;  uncertainty k = 0.369529
         5         9        14        13     9      180.000000        9.033734         2    ;  uncertainty k = 0.558658
         5         9        14        13     9        0.000000        1.094948         3    ;  uncertainty k = 0.284138
         5         9        14        13     9      180.000000        1.710507         4    ;  uncertainty k = 0.154624
         5         9        14        41     9        0.000000       -0.058724         1    ;  uncertainty k = 0.618720
         5         9        14        41     9      180.000000        6.871385         2    ;  uncertainty k = 0.292090
         5         9        14        41     9        0.000000        0.766797         3    ;  uncertainty k = 0.130989
         5         9        14        41     9      180.000000        1.229030         4    ;  uncertainty k = 0.156220
         6         2         3        16     9        0.000000       -0.349668         1    ;  uncertainty k = 1.219298
         6         2         3        16     9      180.000000       11.481578         2    ;  uncertainty k = 0.598625
         6         2         3        16     9        0.000000        1.665217         3    ;  uncertainty k = 0.295679
         6         2         3        16     9      180.000000        0.487758         4    ;  uncertainty k = 0.550614
         9         5         4        15     9        0.000000       -0.194813         1    ;  uncertainty k = 0.777701
         9         5         4        15     9      180.000000        9.711124         2    ;  uncertainty k = 0.557652
         9         5         4        15     9        0.000000        1.257933         3    ;  uncertainty k = 0.161302
         9         5         4        15     9      180.000000        0.862058         4    ;  uncertainty k = 0.211767
         9        10        11        12     9        0.000000       -0.063931         1    ;  uncertainty k = 0.328783
         9        10        11        12     9      180.000000        7.615905         2    ;  uncertainty k = 0.675869
         9        10        11        12     9        0.000000        0.432740         3    ;  uncertainty k = 0.298753
         9        10        11        12     9      180.000000        1.408515         4    ;  uncertainty k = 0.251368
         9        10        11        21     9        0.000000        0.233873         1    ;  uncertainty k = 0.750173
         9        10        11        21     9      180.000000        8.566498         2    ;  uncertainty k = 0.164324
         9        10        11        21     9        0.000000        0.943802         3    ;  uncertainty k = 0.213652
         9        10        11        21     9      180.000000        1.613580         4    ;  uncertainty k = 0.130765
         9        14        13        12     9        0.000000       -0.026407         1    ;  uncertainty k = 0.384068
         9        14        13        12     9      180.000000       14.703863         2    ;  uncertainty k = 0.317839
         9        14        13        12     9        0.000000       -1.073861         3    ;  uncertainty k = 0.465327
         9        14        13        12     9      180.000000        0.600607         4    ;  uncertainty k = 0.298996
         9        14        13        40     9        0.000000        0.049944         1    ;  uncertainty k = 0.057379
         9        14        13        40     9      180.000000        7.761963         2    ;  uncertainty k = 0.335094
         9        14        13        40     9        0.000000        1.300401         3    ;  uncertainty k = 0.248628
         9        14        13        40     9      180.000000        1.818821         4    ;  uncertainty k = 0.108951
        10         9        14        13     9        0.000000       -0.174518         1    ;  uncertainty k = 0.124370
        10         9        14        13     9      180.000000       11.285083         2    ;  uncertainty k = 0.266170
        10         9        14        13     9        0.000000       -0.349505         3    ;  uncertainty k = 0.297182
        10         9        14        13     9      180.000000        0.994981         4    ;  uncertainty k = 0.278777
        10         9        14        41     9        0.000000        0.121671         1    ;  uncertainty k = 0.367714
        10         9        14        41     9      180.000000        6.798915         2    ;  uncertainty k = 0.610754
        10         9        14        41     9        0.000000        1.458859         3    ;  uncertainty k = 0.222352
        10         9        14        41     9      180.000000        1.675830         4    ;  uncertainty k = 0.252587
        10        11        12        13     9        0.000000       -0.074737         1    ;  uncertainty k = 0.153519
        10        11        12        13     9      180.000000        7.957222         2    ;  uncertainty k = 0.746450
        10        11        12        13     9        0.000000        0.223979         3    ;  uncertainty k = 0.365484
        10        11        12        13     9      180.000000        1.323745         4    ;  uncertainty k = 0.370576
        10        11        12        39     9        0.000000        0.172169         1    ;  uncertainty k = 0.581832
        10        11        12        39     9      180.000000        5.849189         2    ;  uncertainty k = 0.746609
        10        11        12        39     9        0.000000        1.240008         3    ;  uncertainty k = 0.228161
        10        11        12        39     9      180.000000        1.458120         4    ;  uncertainty k = 0.179379
        10        11        21        22     9        0.000000        3.457001         1    ;  uncertainty k = 0.526550
        10        11        21        22     9      180.000000        6.412520         2    ;  uncertainty k = 0.176221
        10        11        21        22     9        0.000000        0.635992         3    ;  uncertainty k = 0.189225
        10        11        21        22     9      180.000000       -0.000398         4    ;  uncertainty k = 0.095513
        10        11        21        44     9        0.000000        4.721233         1    ;  uncertainty k = 0.513935
        10        11        21        44     9      180.000000        6.269235         2    ;  uncertainty k = 0.386732
        10        11        21        44     9        0.000000        0.749997         3    ;  uncertainty k = 0.284689
        10        11        21        44     9      180.000000       -0.347764         4    ;  uncertainty k = 0.044044
        11        10         9        14     9        0.000000       -0.088860         1    ;  uncertainty k = 0.177625
        11        10         9        14     9      180.000000       10.962269         2    ;  uncertainty k = 0.332178
        11        10         9        14     9        0.000000       -0.183317         3    ;  uncertainty k = 0.260047
        11        10         9        14     9      180.000000        0.983360         4    ;  uncertainty k = 0.153350
        11        12        13        14     9        0.000000       -0.171178         1    ;  uncertainty k = 0.282440
        11        12        13        14     9      180.000000       14.255860         2    ;  uncertainty k = 0.206752
        11        12        13        14     9        0.000000       -1.005168         3    ;  uncertainty k = 0.391066
        11        12        13        14     9      180.000000        0.684770         4    ;  uncertainty k = 0.228032
        11        12        13        40     9        0.000000        0.008745         1    ;  uncertainty k = 0.271105
        11        12        13        40     9      180.000000        7.906785         2    ;  uncertainty k = 0.355014
        11        12        13        40     9        0.000000        1.181555         3    ;  uncertainty k = 0.304014
        11        12        13        40     9      180.000000        1.549599         4    ;  uncertainty k = 0.193568
        11        21        22        23     9        0.000000       -0.277193         1    ;  uncertainty k = 0.242795
        11        21        22        23     9      180.000000       -0.160612         2    ;  uncertainty k = 0.301049
        11        21        22        23     9        0.000000        0.860041         3    ;  uncertainty k = 0.088359
        11        21        22        23     9      180.000000        0.309882         4    ;  uncertainty k = 0.097552
        11        21        22        27     9        0.000000       -0.277193         1    ;  uncertainty k = 0.242795
        11        21        22        27     9      180.000000       -0.160612         2    ;  uncertainty k = 0.301049
        11        21        22        27     9        0.000000        0.860041         3    ;  uncertainty k = 0.088359
        11        21        22        27     9      180.000000        0.309882         4    ;  uncertainty k = 0.097552
        11        21        22        45     9        0.000000       -1.619691         1    ;  uncertainty k = 0.408978
        11        21        22        45     9      180.000000       -1.111115         2    ;  uncertainty k = 0.450739
        11        21        22        45     9        0.000000        0.908050         3    ;  uncertainty k = 0.141012
        11        21        22        45     9      180.000000        0.296216         4    ;  uncertainty k = 0.060925
        12        11        10        38     9        0.000000        0.224300         1    ;  uncertainty k = 0.404271
        12        11        10        38     9      180.000000        5.926777         2    ;  uncertainty k = 0.587853
        12        11        10        38     9        0.000000        1.298215         3    ;  uncertainty k = 0.241386
        12        11        10        38     9      180.000000        1.552036         4    ;  uncertainty k = 0.182878
        12        11        21        22     9        0.000000        3.529469         1    ;  uncertainty k = 0.406540
        12        11        21        22     9      180.000000        6.300627         2    ;  uncertainty k = 0.174227
        12        11        21        22     9        0.000000        0.644658         3    ;  uncertainty k = 0.126724
        12        11        21        22     9      180.000000        0.018042         4    ;  uncertainty k = 0.101649
        12        11        21        44     9        0.000000        4.567643         1    ;  uncertainty k = 0.339780
        12        11        21        44     9      180.000000        6.194534         2    ;  uncertainty k = 0.262213
        12        11        21        44     9        0.000000        0.836430         3    ;  uncertainty k = 0.198459
        12        11        21        44     9      180.000000       -0.344411         4    ;  uncertainty k = 0.056041
        12        13        14        41     9        0.000000        0.086753         1    ;  uncertainty k = 0.175845
        12        13        14        41     9      180.000000        7.728753         2    ;  uncertainty k = 0.208821
        12        13        14        41     9        0.000000        1.345033         3    ;  uncertainty k = 0.263683
        12        13        14        41     9      180.000000        1.855050         4    ;  uncertainty k = 0.143357
        13        12        11        21     9        0.000000        0.120920         1    ;  uncertainty k = 0.549044
        13        12        11        21     9      180.000000        8.442271         2    ;  uncertainty k = 0.265232
        13        12        11        21     9        0.000000        1.023839         3    ;  uncertainty k = 0.255340
        13        12        11        21     9      180.000000        1.595114         4    ;  uncertainty k = 0.100329
        14         9        10        38     9        0.000000        0.216676         1    ;  uncertainty k = 0.223897
        14         9        10        38     9      180.000000        7.109427         2    ;  uncertainty k = 0.375069
        14         9        10        38     9        0.000000        1.522501         3    ;  uncertainty k = 0.215171
        14         9        10        38     9      180.000000        1.618396         4    ;  uncertainty k = 0.225001
        14        13        12        39     9        0.000000        0.149658         1    ;  uncertainty k = 0.095828
        14        13        12        39     9      180.000000        8.090366         2    ;  uncertainty k = 0.345284
        14        13        12        39     9        0.000000        1.502341         3    ;  uncertainty k = 0.302052
        14        13        12        39     9      180.000000        1.801627         4    ;  uncertainty k = 0.122281
        15         4         3        16     9        0.000000        0.024496         1    ;  uncertainty k = 0.844315
        15         4         3        16     9      180.000000        9.714468         2    ;  uncertainty k = 0.707458
        15         4         3        16     9        0.000000        1.115294         3    ;  uncertainty k = 0.281317
        15         4         3        16     9      180.000000        0.769872         4    ;  uncertainty k = 0.357227
        16        17        18        19     9        0.000000        0.827696         1    ;  uncertainty k = 0.890288
        16        17        18        19     9      180.000000        5.758710         2    ;  uncertainty k = 0.574111
        16        17        18        19     9        0.000000        1.163097         3    ;  uncertainty k = 0.439096
        16        17        18        19     9      180.000000        0.270195         4    ;  uncertainty k = 0.233521
        16        17        18        20     9        0.000000        0.827696         1    ;  uncertainty k = 0.890288
        16        17        18        20     9      180.000000        5.758710         2    ;  uncertainty k = 0.574111
        16        17        18        20     9        0.000000        1.163097         3    ;  uncertainty k = 0.439096
        16        17        18        20     9      180.000000        0.270195         4    ;  uncertainty k = 0.233521
        19        18        17        42     9        0.000000       -2.454081         1    ;  uncertainty k = 1.104907
        19        18        17        42     9      180.000000        1.812815         2    ;  uncertainty k = 0.636579
        19        18        17        42     9        0.000000        0.835128         3    ;  uncertainty k = 0.208585
        19        18        17        42     9      180.000000        0.234228         4    ;  uncertainty k = 0.093153
        19        18        17        43     9        0.000000       -2.454081         1    ;  uncertainty k = 1.104907
        19        18        17        43     9      180.000000        1.812815         2    ;  uncertainty k = 0.636579
        19        18        17        43     9        0.000000        0.835128         3    ;  uncertainty k = 0.208585
        19        18        17        43     9      180.000000        0.234228         4    ;  uncertainty k = 0.093153
        20        18        17        42     9        0.000000       -2.454081         1    ;  uncertainty k = 1.104907
        20        18        17        42     9      180.000000        1.812815         2    ;  uncertainty k = 0.636579
        20        18        17        42     9        0.000000        0.835128         3    ;  uncertainty k = 0.208585
        20        18        17        42     9      180.000000        0.234228         4    ;  uncertainty k = 0.093153
        20        18        17        43     9        0.000000       -2.454081         1    ;  uncertainty k = 1.104907
        20        18        17        43     9      180.000000        1.812815         2    ;  uncertainty k = 0.636579
        20        18        17        43     9        0.000000        0.835128         3    ;  uncertainty k = 0.208585
        20        18        17        43     9      180.000000        0.234228         4    ;  uncertainty k = 0.093153
        21        11        10        38     9        0.000000       -0.332484         1    ;  uncertainty k = 0.174058
        21        11        10        38     9      180.000000        7.338615         2    ;  uncertainty k = 0.444104
        21        11        10        38     9        0.000000        0.904782         3    ;  uncertainty k = 0.210495
        21        11        10        38     9      180.000000        1.097956         4    ;  uncertainty k = 0.201879
        21        11        12        39     9        0.000000       -0.208112         1    ;  uncertainty k = 0.295706
        21        11        12        39     9      180.000000        7.253053         2    ;  uncertainty k = 0.347875
        21        11        12        39     9        0.000000        0.951981         3    ;  uncertainty k = 0.279935
        21        11        12        39     9      180.000000        1.062878         4    ;  uncertainty k = 0.186193
        21        22        23        24     9        0.000000       -5.136098         1    ;  uncertainty k = 1.043848
        21        22        23        24     9      180.000000       -0.051193         2    ;  uncertainty k = 0.439582
        21        22        23        24     9        0.000000        1.238893         3    ;  uncertainty k = 0.245171
        21        22        23        24     9      180.000000       -0.144028         4    ;  uncertainty k = 0.066282
        21        22        23        46     9        0.000000       -0.535460         1    ;  uncertainty k = 0.150632
        21        22        23        46     9      180.000000       -0.364854         2    ;  uncertainty k = 0.186150
        21        22        23        46     9        0.000000        1.179605         3    ;  uncertainty k = 0.213686
        21        22        23        46     9      180.000000       -0.153264         4    ;  uncertainty k = 0.061851
        21        22        23        47     9        0.000000       -0.535460         1    ;  uncertainty k = 0.150632
        21        22        23        47     9      180.000000       -0.364854         2    ;  uncertainty k = 0.186150
        21        22        23        47     9        0.000000        1.179605         3    ;  uncertainty k = 0.213686
        21        22        23        47     9      180.000000       -0.153264         4    ;  uncertainty k = 0.061851
        21        22        27        26     9        0.000000       -5.136098         1    ;  uncertainty k = 1.043848
        21        22        27        26     9      180.000000       -0.051193         2    ;  uncertainty k = 0.439582
        21        22        27        26     9        0.000000        1.238893         3    ;  uncertainty k = 0.245171
        21        22        27        26     9      180.000000       -0.144028         4    ;  uncertainty k = 0.066282
        21        22        27        52     9        0.000000       -0.535460         1    ;  uncertainty k = 0.150632
        21        22        27        52     9      180.000000       -0.364854         2    ;  uncertainty k = 0.186150
        21        22        27        52     9        0.000000        1.179605         3    ;  uncertainty k = 0.213686
        21        22        27        52     9      180.000000       -0.153264         4    ;  uncertainty k = 0.061851
        21        22        27        53     9        0.000000       -0.535460         1    ;  uncertainty k = 0.150632
        21        22        27        53     9      180.000000       -0.364854         2    ;  uncertainty k = 0.186150
        21        22        27        53     9        0.000000        1.179605         3    ;  uncertainty k = 0.213686
        21        22        27        53     9      180.000000       -0.153264         4    ;  uncertainty k = 0.061851
        22        23        24        25     9        0.000000       -0.148847         1    ;  uncertainty k = 0.397834
        22        23        24        25     9      180.000000       -4.571385         2    ;  uncertainty k = 1.019097
        22        23        24        25     9        0.000000        2.114453         3    ;  uncertainty k = 0.368217
        22        23        24        25     9      180.000000       -0.488533         4    ;  uncertainty k = 0.117256
        22        23        24        48     9        0.000000        2.785845         1    ;  uncertainty k = 0.530042
        22        23        24        48     9      180.000000       -2.330233         2    ;  uncertainty k = 0.276082
        22        23        24        48     9        0.000000       -0.079434         3    ;  uncertainty k = 0.175618
        22        23        24        48     9      180.000000        0.352534         4    ;  uncertainty k = 0.135804
        22        23        24        49     9        0.000000        2.785845         1    ;  uncertainty k = 0.530042
        22        23        24        49     9      180.000000       -2.330233         2    ;  uncertainty k = 0.276082
        22        23        24        49     9        0.000000       -0.079434         3    ;  uncertainty k = 0.175618
        22        23        24        49     9      180.000000        0.352534         4    ;  uncertainty k = 0.135804
        22        27        26        25     9        0.000000       -0.148847         1    ;  uncertainty k = 0.397834
        22        27        26        25     9      180.000000       -4.571385         2    ;  uncertainty k = 1.019097
        22        27        26        25     9        0.000000        2.114453         3    ;  uncertainty k = 0.368217
        22        27        26        25     9      180.000000       -0.488533         4    ;  uncertainty k = 0.117256
        22        27        26        50     9        0.000000        2.785845         1    ;  uncertainty k = 0.530042
        22        27        26        50     9      180.000000       -2.330233         2    ;  uncertainty k = 0.276082
        22        27        26        50     9        0.000000       -0.079434         3    ;  uncertainty k = 0.175618
        22        27        26        50     9      180.000000        0.352534         4    ;  uncertainty k = 0.135804
        22        27        26        51     9        0.000000        2.785845         1    ;  uncertainty k = 0.530042
        22        27        26        51     9      180.000000       -2.330233         2    ;  uncertainty k = 0.276082
        22        27        26        51     9        0.000000       -0.079434         3    ;  uncertainty k = 0.175618
        22        27        26        51     9      180.000000        0.352534         4    ;  uncertainty k = 0.135804
        23        22        21        44     9        0.000000        2.841835         1    ;  uncertainty k = 0.368019
        23        22        21        44     9      180.000000       -1.817583         2    ;  uncertainty k = 0.255149
        23        22        21        44     9        0.000000        0.197702         3    ;  uncertainty k = 0.122169
        23        22        21        44     9      180.000000        0.111128         4    ;  uncertainty k = 0.094779
        23        22        27        26     9        0.000000       -7.398289         1    ;  uncertainty k = 1.114205
        23        22        27        26     9      180.000000        0.772994         2    ;  uncertainty k = 0.787748
        23        22        27        26     9        0.000000        1.284273         3    ;  uncertainty k = 0.148211
        23        22        27        26     9      180.000000       -1.372294         4    ;  uncertainty k = 0.205237
        23        22        27        52     9        0.000000       -1.844686         1    ;  uncertainty k = 0.323911
        23        22        27        52     9      180.000000       -0.032260         2    ;  uncertainty k = 0.103578
        23        22        27        52     9        0.000000        0.269779         3    ;  uncertainty k = 0.112380
        23        22        27        52     9      180.000000       -0.144836         4    ;  uncertainty k = 0.053686
        23        22        27        53     9        0.000000       -1.844686         1    ;  uncertainty k = 0.323911
        23        22        27        53     9      180.000000       -0.032260         2    ;  uncertainty k = 0.103578
        23        22        27        53     9        0.000000        0.269779         3    ;  uncertainty k = 0.112380
        23        22        27        53     9      180.000000       -0.144836         4    ;  uncertainty k = 0.053686
        23        24        25        26     9        0.000000       -4.088458         1    ;  uncertainty k = 1.867282
        23        24        25        26     9      180.000000        0.889714         2    ;  uncertainty k = 0.667890
        23        24        25        26     9        0.000000        0.584557         3    ;  uncertainty k = 0.291659
        23        24        25        26     9      180.000000       -0.636593         4    ;  uncertainty k = 0.223033
        23        24        25        28     9        0.000000       -7.348500         1    ;  uncertainty k = 0.834720
        23        24        25        28     9      180.000000       -1.724542         2    ;  uncertainty k = 0.551083
        23        24        25        28     9        0.000000       -0.216030         3    ;  uncertainty k = 0.339972
        23        24        25        28     9      180.000000       -0.827606         4    ;  uncertainty k = 0.173862
        24        23        22        27     9        0.000000       -7.398289         1    ;  uncertainty k = 1.114205
        24        23        22        27     9      180.000000        0.772994         2    ;  uncertainty k = 0.787748
        24        23        22        27     9        0.000000        1.284273         3    ;  uncertainty k = 0.148211
        24        23        22        27     9      180.000000       -1.372294         4    ;  uncertainty k = 0.205237
        24        23        22        45     9        0.000000       -1.489834         1    ;  uncertainty k = 0.498262
        24        23        22        45     9      180.000000       -0.726861         2    ;  uncertainty k = 0.320028
        24        23        22        45     9        0.000000        0.084383         3    ;  uncertainty k = 0.138187
        24        23        22        45     9      180.000000       -0.160514         4    ;  uncertainty k = 0.093764
        24        25        26        27     9        0.000000       -4.088458         1    ;  uncertainty k = 1.867282
        24        25        26        27     9      180.000000        0.889714         2    ;  uncertainty k = 0.667890
        24        25        26        27     9        0.000000        0.584557         3    ;  uncertainty k = 0.291659
        24        25        26        27     9      180.000000       -0.636593         4    ;  uncertainty k = 0.223033
        24        25        26        50     9        0.000000       -6.211466         1    ;  uncertainty k = 0.401821
        24        25        26        50     9      180.000000        0.273829         2    ;  uncertainty k = 0.303792
        24        25        26        50     9        0.000000        0.752021         3    ;  uncertainty k = 0.192836
        24        25        26        50     9      180.000000       -0.002512         4    ;  uncertainty k = 0.021259
        24        25        26        51     9        0.000000       -6.211466         1    ;  uncertainty k = 0.401821
        24        25        26        51     9      180.000000        0.273829         2    ;  uncertainty k = 0.303792
        24        25        26        51     9        0.000000        0.752021         3    ;  uncertainty k = 0.192836
        24        25        26        51     9      180.000000       -0.002512         4    ;  uncertainty k = 0.021259
        24        25        28        29     9        0.000000        1.270237         1    ;  uncertainty k = 0.500475
        24        25        28        29     9      180.000000        2.505361         2    ;  uncertainty k = 0.401482
        24        25        28        29     9        0.000000        0.779609         3    ;  uncertainty k = 0.159997
        24        25        28        29     9      180.000000       -0.308889         4    ;  uncertainty k = 0.140057
        24        25        28        30     9        0.000000        1.270237         1    ;  uncertainty k = 0.500475
        24        25        28        30     9      180.000000        2.505361         2    ;  uncertainty k = 0.401482
        24        25        28        30     9        0.000000        0.779609         3    ;  uncertainty k = 0.159997
        24        25        28        30     9      180.000000       -0.308889         4    ;  uncertainty k = 0.140057
        24        25        28        31     9        0.000000       -7.549010         1    ;  uncertainty k = 0.541322
        24        25        28        31     9      180.000000       -2.996510         2    ;  uncertainty k = 0.664699
        24        25        28        31     9        0.000000       -0.101282         3    ;  uncertainty k = 0.314563
        24        25        28        31     9      180.000000       -0.343229         4    ;  uncertainty k = 0.158947
        25        24        23        46     9        0.000000       -0.852861         1    ;  uncertainty k = 0.235199
        25        24        23        46     9      180.000000       -0.179849         2    ;  uncertainty k = 0.440860
        25        24        23        46     9        0.000000        0.882203         3    ;  uncertainty k = 0.149383
        25        24        23        46     9      180.000000       -0.285173         4    ;  uncertainty k = 0.185067
        25        24        23        47     9        0.000000       -0.852861         1    ;  uncertainty k = 0.235199
        25        24        23        47     9      180.000000       -0.179849         2    ;  uncertainty k = 0.440860
        25        24        23        47     9        0.000000        0.882203         3    ;  uncertainty k = 0.149383
        25        24        23        47     9      180.000000       -0.285173         4    ;  uncertainty k = 0.185067
        25        26        27        52     9        0.000000       -0.852861         1    ;  uncertainty k = 0.235199
        25        26        27        52     9      180.000000       -0.179849         2    ;  uncertainty k = 0.440860
        25        26        27        52     9        0.000000        0.882203         3    ;  uncertainty k = 0.149383
        25        26        27        52     9      180.000000       -0.285173         4    ;  uncertainty k = 0.185067
        25        26        27        53     9        0.000000       -0.852861         1    ;  uncertainty k = 0.235199
        25        26        27        53     9      180.000000       -0.179849         2    ;  uncertainty k = 0.440860
        25        26        27        53     9        0.000000        0.882203         3    ;  uncertainty k = 0.149383
        25        26        27        53     9      180.000000       -0.285173         4    ;  uncertainty k = 0.185067
        25        28        31        32     9        0.000000       -2.103207         1    ;  uncertainty k = 0.645315
        25        28        31        32     9      180.000000        0.538217         2    ;  uncertainty k = 0.647124
        25        28        31        32     9        0.000000        0.746804         3    ;  uncertainty k = 0.323280
        25        28        31        32     9      180.000000       -0.042398         4    ;  uncertainty k = 0.164024
        25        28        31        54     9        0.000000        1.729671         1    ;  uncertainty k = 0.676531
        25        28        31        54     9      180.000000       -1.483246         2    ;  uncertainty k = 0.373232
        25        28        31        54     9        0.000000        0.248175         3    ;  uncertainty k = 0.195062
        25        28        31        54     9      180.000000        0.016534         4    ;  uncertainty k = 0.061632
        25        28        31        55     9        0.000000        1.729671         1    ;  uncertainty k = 0.676531
        25        28        31        55     9      180.000000       -1.483246         2    ;  uncertainty k = 0.373232
        25        28        31        55     9        0.000000        0.248175         3    ;  uncertainty k = 0.195062
        25        28        31        55     9      180.000000        0.016534         4    ;  uncertainty k = 0.061632
        26        25        24        48     9        0.000000       -6.211466         1    ;  uncertainty k = 0.401821
        26        25        24        48     9      180.000000        0.273829         2    ;  uncertainty k = 0.303792
        26        25        24        48     9        0.000000        0.752021         3    ;  uncertainty k = 0.192836
        26        25        24        48     9      180.000000       -0.002512         4    ;  uncertainty k = 0.021259
        26        25        24        49     9        0.000000       -6.211466         1    ;  uncertainty k = 0.401821
        26        25        24        49     9      180.000000        0.273829         2    ;  uncertainty k = 0.303792
        26        25        24        49     9        0.000000        0.752021         3    ;  uncertainty k = 0.192836
        26        25        24        49     9      180.000000       -0.002512         4    ;  uncertainty k = 0.021259
        26        25        28        29     9        0.000000        1.270237         1    ;  uncertainty k = 0.500475
        26        25        28        29     9      180.000000        2.505361         2    ;  uncertainty k = 0.401482
        26        25        28        29     9        0.000000        0.779609         3    ;  uncertainty k = 0.159997
        26        25        28        29     9      180.000000       -0.308889         4    ;  uncertainty k = 0.140057
        26        25        28        30     9        0.000000        1.270237         1    ;  uncertainty k = 0.500475
        26        25        28        30     9      180.000000        2.505361         2    ;  uncertainty k = 0.401482
        26        25        28        30     9        0.000000        0.779609         3    ;  uncertainty k = 0.159997
        26        25        28        30     9      180.000000       -0.308889         4    ;  uncertainty k = 0.140057
        26        25        28        31     9        0.000000       -7.549010         1    ;  uncertainty k = 0.541322
        26        25        28        31     9      180.000000       -2.996510         2    ;  uncertainty k = 0.664699
        26        25        28        31     9        0.000000       -0.101282         3    ;  uncertainty k = 0.314563
        26        25        28        31     9      180.000000       -0.343229         4    ;  uncertainty k = 0.158947
        26        27        22        45     9        0.000000       -1.489834         1    ;  uncertainty k = 0.498262
        26        27        22        45     9      180.000000       -0.726861         2    ;  uncertainty k = 0.320028
        26        27        22        45     9        0.000000        0.084383         3    ;  uncertainty k = 0.138187
        26        27        22        45     9      180.000000       -0.160514         4    ;  uncertainty k = 0.093764
        27        22        21        44     9        0.000000        2.841835         1    ;  uncertainty k = 0.368019
        27        22        21        44     9      180.000000       -1.817583         2    ;  uncertainty k = 0.255149
        27        22        21        44     9        0.000000        0.197702         3    ;  uncertainty k = 0.122169
        27        22        21        44     9      180.000000        0.111128         4    ;  uncertainty k = 0.094779
        27        22        23        46     9        0.000000       -1.844686         1    ;  uncertainty k = 0.323911
        27        22        23        46     9      180.000000       -0.032260         2    ;  uncertainty k = 0.103578
        27        22        23        46     9        0.000000        0.269779         3    ;  uncertainty k = 0.112380
        27        22        23        46     9      180.000000       -0.144836         4    ;  uncertainty k = 0.053686
        27        22        23        47     9        0.000000       -1.844686         1    ;  uncertainty k = 0.323911
        27        22        23        47     9      180.000000       -0.032260         2    ;  uncertainty k = 0.103578
        27        22        23        47     9        0.000000        0.269779         3    ;  uncertainty k = 0.112380
        27        22        23        47     9      180.000000       -0.144836         4    ;  uncertainty k = 0.053686
        27        26        25        28     9        0.000000       -7.348500         1    ;  uncertainty k = 0.834720
        27        26        25        28     9      180.000000       -1.724542         2    ;  uncertainty k = 0.551083
        27        26        25        28     9        0.000000       -0.216030         3    ;  uncertainty k = 0.339972
        27        26        25        28     9      180.000000       -0.827606         4    ;  uncertainty k = 0.173862
        28        25        24        48     9        0.000000        0.216597         1    ;  uncertainty k = 0.387098
        28        25        24        48     9      180.000000       -3.233432         2    ;  uncertainty k = 0.278301
        28        25        24        48     9        0.000000       -0.390106         3    ;  uncertainty k = 0.180329
        28        25        24        48     9      180.000000        0.207073         4    ;  uncertainty k = 0.075818
        28        25        24        49     9        0.000000        0.216597         1    ;  uncertainty k = 0.387098
        28        25        24        49     9      180.000000       -3.233432         2    ;  uncertainty k = 0.278301
        28        25        24        49     9        0.000000       -0.390106         3    ;  uncertainty k = 0.180329
        28        25        24        49     9      180.000000        0.207073         4    ;  uncertainty k = 0.075818
        28        25        26        50     9        0.000000        0.216597         1    ;  uncertainty k = 0.387098
        28        25        26        50     9      180.000000       -3.233432         2    ;  uncertainty k = 0.278301
        28        25        26        50     9        0.000000       -0.390106         3    ;  uncertainty k = 0.180329
        28        25        26        50     9      180.000000        0.207073         4    ;  uncertainty k = 0.075818
        28        25        26        51     9        0.000000        0.216597         1    ;  uncertainty k = 0.387098
        28        25        26        51     9      180.000000       -3.233432         2    ;  uncertainty k = 0.278301
        28        25        26        51     9        0.000000       -0.390106         3    ;  uncertainty k = 0.180329
        28        25        26        51     9      180.000000        0.207073         4    ;  uncertainty k = 0.075818
        28        31        32        33     9        0.000000       -0.508671         1    ;  uncertainty k = 0.400327
        28        31        32        33     9      180.000000        0.109861         2    ;  uncertainty k = 0.292575
        28        31        32        33     9        0.000000        0.489267         3    ;  uncertainty k = 0.148326
        28        31        32        33     9      180.000000        0.136143         4    ;  uncertainty k = 0.161357
        28        31        32        37     9        0.000000       -0.508671         1    ;  uncertainty k = 0.400327
        28        31        32        37     9      180.000000        0.109861         2    ;  uncertainty k = 0.292575
        28        31        32        37     9        0.000000        0.489267         3    ;  uncertainty k = 0.148326
        28        31        32        37     9      180.000000        0.136143         4    ;  uncertainty k = 0.161357
        29        28        31        32     9        0.000000       -3.517773         1    ;  uncertainty k = 0.508402
        29        28        31        32     9      180.000000        1.057358         2    ;  uncertainty k = 0.169990
        29        28        31        32     9        0.000000        0.875046         3    ;  uncertainty k = 0.164735
        29        28        31        32     9      180.000000       -0.037433         4    ;  uncertainty k = 0.176839
        29        28        31        54     9        0.000000        0.274046         1    ;  uncertainty k = 0.457905
        29        28        31        54     9      180.000000       -0.270909         2    ;  uncertainty k = 0.108223
        29        28        31        54     9        0.000000        0.500037         3    ;  uncertainty k = 0.075726
        29        28        31        54     9      180.000000        0.120953         4    ;  uncertainty k = 0.061549
        29        28        31        55     9        0.000000        0.274046         1    ;  uncertainty k = 0.457905
        29        28        31        55     9      180.000000       -0.270909         2    ;  uncertainty k = 0.108223
        29        28        31        55     9        0.000000        0.500037         3    ;  uncertainty k = 0.075726
        29        28        31        55     9      180.000000        0.120953         4    ;  uncertainty k = 0.061549
        30        28        31        32     9        0.000000       -3.517773         1    ;  uncertainty k = 0.508402
        30        28        31        32     9      180.000000        1.057358         2    ;  uncertainty k = 0.169990
        30        28        31        32     9        0.000000        0.875046         3    ;  uncertainty k = 0.164735
        30        28        31        32     9      180.000000       -0.037433         4    ;  uncertainty k = 0.176839
        30        28        31        54     9        0.000000        0.274046         1    ;  uncertainty k = 0.457905
        30        28        31        54     9      180.000000       -0.270909         2    ;  uncertainty k = 0.108223
        30        28        31        54     9        0.000000        0.500037         3    ;  uncertainty k = 0.075726
        30        28        31        54     9      180.000000        0.120953         4    ;  uncertainty k = 0.061549
        30        28        31        55     9        0.000000        0.274046         1    ;  uncertainty k = 0.457905
        30        28        31        55     9      180.000000       -0.270909         2    ;  uncertainty k = 0.108223
        30        28        31        55     9        0.000000        0.500037         3    ;  uncertainty k = 0.075726
        30        28        31        55     9      180.000000        0.120953         4    ;  uncertainty k = 0.061549
        31        32        33        34     9        0.000000        0.029691         1    ;  uncertainty k = 0.134748
        31        32        33        34     9      180.000000        9.540094         2    ;  uncertainty k = 0.393169
        31        32        33        34     9        0.000000        1.316637         3    ;  uncertainty k = 0.160709
        31        32        33        34     9      180.000000        1.781504         4    ;  uncertainty k = 0.172287
        31        32        33        56     9        0.000000       -0.192139         1    ;  uncertainty k = 0.488988
        31        32        33        56     9      180.000000        7.818156         2    ;  uncertainty k = 0.131520
        31        32        33        56     9        0.000000        0.488756         3    ;  uncertainty k = 0.323898
        31        32        33        56     9      180.000000        0.963453         4    ;  uncertainty k = 0.223176
        31        32        37        36     9        0.000000        0.029691         1    ;  uncertainty k = 0.134748
        31        32        37        36     9      180.000000        9.540094         2    ;  uncertainty k = 0.393169
        31        32        37        36     9        0.000000        1.316637         3    ;  uncertainty k = 0.160709
        31        32        37        36     9      180.000000        1.781504         4    ;  uncertainty k = 0.172287
        31        32        37        60     9        0.000000       -0.192139         1    ;  uncertainty k = 0.488988
        31        32        37        60     9      180.000000        7.818156         2    ;  uncertainty k = 0.131520
        31        32        37        60     9        0.000000        0.488756         3    ;  uncertainty k = 0.323898
        31        32        37        60     9      180.000000        0.963453         4    ;  uncertainty k = 0.223176
        32        33        34        35     9        0.000000       -0.141405         1    ;  uncertainty k = 0.080074
        32        33        34        35     9      180.000000       14.211439         2    ;  uncertainty k = 0.296513
        32        33        34        35     9        0.000000       -0.909381         3    ;  uncertainty k = 0.407921
        32        33        34        35     9      180.000000        0.696824         4    ;  uncertainty k = 0.203750
        32        33        34        57     9        0.000000        0.040951         1    ;  uncertainty k = 0.256241
        32        33        34        57     9      180.000000        7.906327         2    ;  uncertainty k = 0.275548
        32        33        34        57     9        0.000000        1.455980         3    ;  uncertainty k = 0.278750
        32        33        34        57     9      180.000000        1.767703         4    ;  uncertainty k = 0.078271
        32        37        36        35     9        0.000000       -0.141405         1    ;  uncertainty k = 0.080074
        32        37        36        35     9      180.000000       14.211439         2    ;  uncertainty k = 0.296513
        32        37        36        35     9        0.000000       -0.909381         3    ;  uncertainty k = 0.407921
        32        37        36        35     9      180.000000        0.696824         4    ;  uncertainty k = 0.203750
        32        37        36        59     9        0.000000        0.040951         1    ;  uncertainty k = 0.256241
        32        37        36        59     9      180.000000        7.906327         2    ;  uncertainty k = 0.275548
        32        37        36        59     9        0.000000        1.455980         3    ;  uncertainty k = 0.278750
        32        37        36        59     9      180.000000        1.767703         4    ;  uncertainty k = 0.078271
        33        32        31        54     9        0.000000       -0.670198         1    ;  uncertainty k = 0.310313
        33        32        31        54     9      180.000000        2.335620         2    ;  uncertainty k = 0.290355
        33        32        31        54     9        0.000000        0.573185         3    ;  uncertainty k = 0.091459
        33        32        31        54     9      180.000000        0.141123         4    ;  uncertainty k = 0.051500
        33        32        31        55     9        0.000000       -0.670198         1    ;  uncertainty k = 0.310313
        33        32        31        55     9      180.000000        2.335620         2    ;  uncertainty k = 0.290355
        33        32        31        55     9        0.000000        0.573185         3    ;  uncertainty k = 0.091459
        33        32        31        55     9      180.000000        0.141123         4    ;  uncertainty k = 0.051500
        33        32        37        36     9        0.000000       -0.274200         1    ;  uncertainty k = 0.155012
        33        32        37        36     9      180.000000       12.419941         2    ;  uncertainty k = 0.367621
        33        32        37        36     9        0.000000       -0.613983         3    ;  uncertainty k = 0.363169
        33        32        37        36     9      180.000000        0.748134         4    ;  uncertainty k = 0.335220
        33        32        37        60     9        0.000000        0.235684         1    ;  uncertainty k = 0.179119
        33        32        37        60     9      180.000000        7.335105         2    ;  uncertainty k = 0.512439
        33        32        37        60     9        0.000000        1.444830         3    ;  uncertainty k = 0.318985
        33        32        37        60     9      180.000000        1.632138         4    ;  uncertainty k = 0.184799
        33        34        35        36     9        0.000000       -0.024061         1    ;  uncertainty k = 0.037887
        33        34        35        36     9      180.000000       15.000372         2    ;  uncertainty k = 0.295768
        33        34        35        36     9        0.000000       -1.149710         3    ;  uncertainty k = 0.449579
        33        34        35        36     9      180.000000        0.517636         4    ;  uncertainty k = 0.267684
        33        34        35        58     9        0.000000        0.006545         1    ;  uncertainty k = 0.122113
        33        34        35        58     9      180.000000        7.490839         2    ;  uncertainty k = 0.284308
        33        34        35        58     9        0.000000        1.487446         3    ;  uncertainty k = 0.291683
        33        34        35        58     9      180.000000        1.788809         4    ;  uncertainty k = 0.187633
        34        33        32        37     9        0.000000       -0.274200         1    ;  uncertainty k = 0.155012
        34        33        32        37     9      180.000000       12.419941         2    ;  uncertainty k = 0.367621
        34        33        32        37     9        0.000000       -0.613983         3    ;  uncertainty k = 0.363169
        34        33        32        37     9      180.000000        0.748134         4    ;  uncertainty k = 0.335220
        34        35        36        37     9        0.000000       -0.024061         1    ;  uncertainty k = 0.037887
        34        35        36        37     9      180.000000       15.000372         2    ;  uncertainty k = 0.295768
        34        35        36        37     9        0.000000       -1.149710         3    ;  uncertainty k = 0.449579
        34        35        36        37     9      180.000000        0.517636         4    ;  uncertainty k = 0.267684
        34        35        36        59     9        0.000000        0.055135         1    ;  uncertainty k = 0.036562
        34        35        36        59     9      180.000000        7.569523         2    ;  uncertainty k = 0.317634
        34        35        36        59     9        0.000000        1.452465         3    ;  uncertainty k = 0.319971
        34        35        36        59     9      180.000000        1.800290         4    ;  uncertainty k = 0.152963
        35        34        33        56     9        0.000000        0.056452         1    ;  uncertainty k = 0.065580
        35        34        33        56     9      180.000000        7.913053         2    ;  uncertainty k = 0.295561
        35        34        33        56     9        0.000000        1.417120         3    ;  uncertainty k = 0.293002
        35        34        33        56     9      180.000000        1.854041         4    ;  uncertainty k = 0.169678
        35        36        37        60     9        0.000000        0.056452         1    ;  uncertainty k = 0.065580
        35        36        37        60     9      180.000000        7.913053         2    ;  uncertainty k = 0.295561
        35        36        37        60     9        0.000000        1.417120         3    ;  uncertainty k = 0.293002
        35        36        37        60     9      180.000000        1.854041         4    ;  uncertainty k = 0.169678
        36        35        34        57     9        0.000000        0.055135         1    ;  uncertainty k = 0.036562
        36        35        34        57     9      180.000000        7.569523         2    ;  uncertainty k = 0.317634
        36        35        34        57     9        0.000000        1.452465         3    ;  uncertainty k = 0.319971
        36        35        34        57     9      180.000000        1.800290         4    ;  uncertainty k = 0.152963
        37        32        31        54     9        0.000000       -0.670198         1    ;  uncertainty k = 0.310313
        37        32        31        54     9      180.000000        2.335620         2    ;  uncertainty k = 0.290355
        37        32        31        54     9        0.000000        0.573185         3    ;  uncertainty k = 0.091459
        37        32        31        54     9      180.000000        0.141123         4    ;  uncertainty k = 0.051500
        37        32        31        55     9        0.000000       -0.670198         1    ;  uncertainty k = 0.310313
        37        32        31        55     9      180.000000        2.335620         2    ;  uncertainty k = 0.290355
        37        32        31        55     9        0.000000        0.573185         3    ;  uncertainty k = 0.091459
        37        32        31        55     9      180.000000        0.141123         4    ;  uncertainty k = 0.051500
        37        32        33        56     9        0.000000        0.235684         1    ;  uncertainty k = 0.179119
        37        32        33        56     9      180.000000        7.335105         2    ;  uncertainty k = 0.512439
        37        32        33        56     9        0.000000        1.444830         3    ;  uncertainty k = 0.318985
        37        32        33        56     9      180.000000        1.632138         4    ;  uncertainty k = 0.184799
        37        36        35        58     9        0.000000        0.006545         1    ;  uncertainty k = 0.122113
        37        36        35        58     9      180.000000        7.490839         2    ;  uncertainty k = 0.284308
        37        36        35        58     9        0.000000        1.487446         3    ;  uncertainty k = 0.291683
        37        36        35        58     9      180.000000        1.788809         4    ;  uncertainty k = 0.187633
        39        12        13        40     9        0.000000       -0.030964         1    ;  uncertainty k = 0.241397
        39        12        13        40     9      180.000000        7.640900         2    ;  uncertainty k = 0.355361
        39        12        13        40     9        0.000000       -0.381487         3    ;  uncertainty k = 0.259502
        39        12        13        40     9      180.000000        0.184223         4    ;  uncertainty k = 0.153158
        40        13        14        41     9        0.000000       -0.053928         1    ;  uncertainty k = 0.255367
        40        13        14        41     9      180.000000        7.643424         2    ;  uncertainty k = 0.379277
        40        13        14        41     9        0.000000       -0.463969         3    ;  uncertainty k = 0.298720
        40        13        14        41     9      180.000000        0.110871         4    ;  uncertainty k = 0.130492
        44        21        22        45     9        0.000000        1.900511         1    ;  uncertainty k = 0.549901
        44        21        22        45     9      180.000000       -3.254433         2    ;  uncertainty k = 0.371707
        44        21        22        45     9        0.000000       -0.041544         3    ;  uncertainty k = 0.134753
        44        21        22        45     9      180.000000        0.164363         4    ;  uncertainty k = 0.065312
        45        22        23        46     9        0.000000        1.424511         1    ;  uncertainty k = 0.552611
        45        22        23        46     9      180.000000       -0.379491         2    ;  uncertainty k = 0.197817
        45        22        23        46     9        0.000000        0.015021         3    ;  uncertainty k = 0.104245
        45        22        23        46     9      180.000000        0.051316         4    ;  uncertainty k = 0.025024
        45        22        23        47     9        0.000000        1.424511         1    ;  uncertainty k = 0.552611
        45        22        23        47     9      180.000000       -0.379491         2    ;  uncertainty k = 0.197817
        45        22        23        47     9        0.000000        0.015021         3    ;  uncertainty k = 0.104245
        45        22        23        47     9      180.000000        0.051316         4    ;  uncertainty k = 0.025024
        45        22        27        52     9        0.000000        1.424511         1    ;  uncertainty k = 0.552611
        45        22        27        52     9      180.000000       -0.379491         2    ;  uncertainty k = 0.197817
        45        22        27        52     9        0.000000        0.015021         3    ;  uncertainty k = 0.104245
        45        22        27        52     9      180.000000        0.051316         4    ;  uncertainty k = 0.025024
        45        22        27        53     9        0.000000        1.424511         1    ;  uncertainty k = 0.552611
        45        22        27        53     9      180.000000       -0.379491         2    ;  uncertainty k = 0.197817
        45        22        27        53     9        0.000000        0.015021         3    ;  uncertainty k = 0.104245
        45        22        27        53     9      180.000000        0.051316         4    ;  uncertainty k = 0.025024
        46        23        24        48     9        0.000000       -0.035997         1    ;  uncertainty k = 0.290447
        46        23        24        48     9      180.000000        0.482516         2    ;  uncertainty k = 0.352023
        46        23        24        48     9        0.000000        0.104594         3    ;  uncertainty k = 0.074944
        46        23        24        48     9      180.000000       -0.250465         4    ;  uncertainty k = 0.095361
        46        23        24        49     9        0.000000       -0.035997         1    ;  uncertainty k = 0.290447
        46        23        24        49     9      180.000000        0.482516         2    ;  uncertainty k = 0.352023
        46        23        24        49     9        0.000000        0.104594         3    ;  uncertainty k = 0.074944
        46        23        24        49     9      180.000000       -0.250465         4    ;  uncertainty k = 0.095361
        47        23        24        48     9        0.000000       -0.035997         1    ;  uncertainty k = 0.290447
        47        23        24        48     9      180.000000        0.482516         2    ;  uncertainty k = 0.352023
        47        23        24        48     9        0.000000        0.104594         3    ;  uncertainty k = 0.074944
        47        23        24        48     9      180.000000       -0.250465         4    ;  uncertainty k = 0.095361
        47        23        24        49     9        0.000000       -0.035997         1    ;  uncertainty k = 0.290447
        47        23        24        49     9      180.000000        0.482516         2    ;  uncertainty k = 0.352023
        47        23        24        49     9        0.000000        0.104594         3    ;  uncertainty k = 0.074944
        47        23        24        49     9      180.000000       -0.250465         4    ;  uncertainty k = 0.095361
        50        26        27        52     9        0.000000       -0.035997         1    ;  uncertainty k = 0.290447
        50        26        27        52     9      180.000000        0.482516         2    ;  uncertainty k = 0.352023
        50        26        27        52     9        0.000000        0.104594         3    ;  uncertainty k = 0.074944
        50        26        27        52     9      180.000000       -0.250465         4    ;  uncertainty k = 0.095361
        50        26        27        53     9        0.000000       -0.035997         1    ;  uncertainty k = 0.290447
        50        26        27        53     9      180.000000        0.482516         2    ;  uncertainty k = 0.352023
        50        26        27        53     9        0.000000        0.104594         3    ;  uncertainty k = 0.074944
        50        26        27        53     9      180.000000       -0.250465         4    ;  uncertainty k = 0.095361
        51        26        27        52     9        0.000000       -0.035997         1    ;  uncertainty k = 0.290447
        51        26        27        52     9      180.000000        0.482516         2    ;  uncertainty k = 0.352023
        51        26        27        52     9        0.000000        0.104594         3    ;  uncertainty k = 0.074944
        51        26        27        52     9      180.000000       -0.250465         4    ;  uncertainty k = 0.095361
        51        26        27        53     9        0.000000       -0.035997         1    ;  uncertainty k = 0.290447
        51        26        27        53     9      180.000000        0.482516         2    ;  uncertainty k = 0.352023
        51        26        27        53     9        0.000000        0.104594         3    ;  uncertainty k = 0.074944
        51        26        27        53     9      180.000000       -0.250465         4    ;  uncertainty k = 0.095361
        56        33        34        57     9        0.000000       -0.057002         1    ;  uncertainty k = 0.102498
        56        33        34        57     9      180.000000        7.749801         2    ;  uncertainty k = 0.346074
        56        33        34        57     9        0.000000       -0.473069         3    ;  uncertainty k = 0.287088
        56        33        34        57     9      180.000000        0.087408         4    ;  uncertainty k = 0.115760
        57        34        35        58     9        0.000000       -0.014268         1    ;  uncertainty k = 0.081434
        57        34        35        58     9      180.000000        7.540895         2    ;  uncertainty k = 0.372950
        57        34        35        58     9        0.000000       -0.423023         3    ;  uncertainty k = 0.279630
        57        34        35        58     9      180.000000        0.044035         4    ;  uncertainty k = 0.144091
        58        35        36        59     9        0.000000       -0.014268         1    ;  uncertainty k = 0.081434
        58        35        36        59     9      180.000000        7.540895         2    ;  uncertainty k = 0.372950
        58        35        36        59     9        0.000000       -0.423023         3    ;  uncertainty k = 0.279630
        58        35        36        59     9      180.000000        0.044035         4    ;  uncertainty k = 0.144091
        59        36        37        60     9        0.000000       -0.057002         1    ;  uncertainty k = 0.102498
        59        36        37        60     9      180.000000        7.749801         2    ;  uncertainty k = 0.346074
        59        36        37        60     9        0.000000       -0.473069         3    ;  uncertainty k = 0.287088
        59        36        37        60     9      180.000000        0.087408         4    ;  uncertainty k = 0.115760

[ dihedrals ] ; impropers
;       ai        aj        ak        al funct           phase               k        pn
         2         1         3         6     4      180.000000        2.626283         2    ;  uncertainty k = 1.445869
         2         3         6         1     4      180.000000        2.626283         2    ;  uncertainty k = 1.445869
         2         6         1         3     4      180.000000        2.626283         2    ;  uncertainty k = 1.445869
         3         2         4        16     4      180.000000        5.508900         2    ;  uncertainty k = 1.022742
         3         4        16         2     4      180.000000        5.508900         2    ;  uncertainty k = 1.022742
         3        16         2         4     4      180.000000        5.508900         2    ;  uncertainty k = 1.022742
         4         3         5        15     4      180.000000        4.795742         2    ;  uncertainty k = 0.402358
         4         5        15         3     4      180.000000        4.795742         2    ;  uncertainty k = 0.402358
         4        15         3         5     4      180.000000        4.795742         2    ;  uncertainty k = 0.402358
         5         1         4         9     4      180.000000        4.007162         2    ;  uncertainty k = 0.354637
         5         4         9         1     4      180.000000        4.007162         2    ;  uncertainty k = 0.354637
         5         9         1         4     4      180.000000        4.007162         2    ;  uncertainty k = 0.354637
         6         2         7         8     4      180.000000       66.645471         2    ;  uncertainty k = 0.054443
         6         7         8         2     4      180.000000       66.645471         2    ;  uncertainty k = 0.054443
         6         8         2         7     4      180.000000       66.645471         2    ;  uncertainty k = 0.054443
         9         5        10        14     4      180.000000       15.752981         2    ;  uncertainty k = 0.068237
         9        10        14         5     4      180.000000       15.752981         2    ;  uncertainty k = 0.068237
         9        14         5        10     4      180.000000       15.752981         2    ;  uncertainty k = 0.068237
        10         9        11        38     4      180.000000        2.126431         2    ;  uncertainty k = 0.414338
        10        11        38         9     4      180.000000        2.126431         2    ;  uncertainty k = 0.414338
        10        38         9        11     4      180.000000        2.126431         2    ;  uncertainty k = 0.414338
        11        10        12        21     4      180.000000       20.941475         2    ;  uncertainty k = 0.088822
        11        12        21        10     4      180.000000       20.941475         2    ;  uncertainty k = 0.088822
        11        21        10        12     4      180.000000       20.941475         2    ;  uncertainty k = 0.088822
        12        11        13        39     4      180.000000        2.355810         2    ;  uncertainty k = 0.307570
        12        13        39        11     4      180.000000        2.355810         2    ;  uncertainty k = 0.307570
        12        39        11        13     4      180.000000        2.355810         2    ;  uncertainty k = 0.307570
        13        12        14        40     4      180.000000        4.266886         2    ;  uncertainty k = 0.165253
        13        14        40        12     4      180.000000        4.266886         2    ;  uncertainty k = 0.165253
        13        40        12        14     4      180.000000        4.266886         2    ;  uncertainty k = 0.165253
        14         9        13        41     4      180.000000        3.009570         2    ;  uncertainty k = 0.270652
        14        13        41         9     4      180.000000        3.009570         2    ;  uncertainty k = 0.270652
        14        41         9        13     4      180.000000        3.009570         2    ;  uncertainty k = 0.270652
        18        17        19        20     4      180.000000       68.190285         2    ;  uncertainty k = 0.024826
        18        19        20        17     4      180.000000       68.190285         2    ;  uncertainty k = 0.024826
        18        20        17        19     4      180.000000       68.190285         2    ;  uncertainty k = 0.024826
        32        31        33        37     4      180.000000       12.069193         2    ;  uncertainty k = 0.153646
        32        33        37        31     4      180.000000       12.069193         2    ;  uncertainty k = 0.153646
        32        37        31        33     4      180.000000       12.069193         2    ;  uncertainty k = 0.153646
        33        32        34        56     4      180.000000        3.892302         2    ;  uncertainty k = 0.151209
        33        34        56        32     4      180.000000        3.892302         2    ;  uncertainty k = 0.151209
        33        56        32        34     4      180.000000        3.892302         2    ;  uncertainty k = 0.151209
        34        33        35        57     4      180.000000        4.208112         2    ;  uncertainty k = 0.090757
        34        35        57        33     4      180.000000        4.208112         2    ;  uncertainty k = 0.090757
        34        57        33        35     4      180.000000        4.208112         2    ;  uncertainty k = 0.090757
        35        34        36        58     4      180.000000        4.444632         2    ;  uncertainty k = 0.168114
        35        36        58        34     4      180.000000        4.444632         2    ;  uncertainty k = 0.168114
        35        58        34        36     4      180.000000        4.444632         2    ;  uncertainty k = 0.168114
        36        35        37        59     4      180.000000        4.208112         2    ;  uncertainty k = 0.090757
        36        37        59        35     4      180.000000        4.208112         2    ;  uncertainty k = 0.090757
        36        59        35        37     4      180.000000        4.208112         2    ;  uncertainty k = 0.090757
        37        32        36        60     4      180.000000        3.892302         2    ;  uncertainty k = 0.151209
        37        36        60        32     4      180.000000        3.892302         2    ;  uncertainty k = 0.151209
        37        60        32        36     4      180.000000        3.892302         2    ;  uncertainty k = 0.151209

[ pairs ]
;       ai        aj funct
         1         7     1
         1         8     1
         1        10     1
         1        14     1
         1        15     1
         1        16     1
         2         9     1
         2        15     1
         2        17     1
         3         7     1
         3         8     1
         3         9     1
         3        18     1
         3        42     1
         3        43     1
         3        61     1
         3        62     1
         3        63     1
         4         6     1
         4        10     1
         4        14     1
         4        17     1
         5         6     1
         5        11     1
         5        13     1
         5        16     1
         5        38     1
         5        41     1
         5        61     1
         5        62     1
         5        63     1
         6        16     1
         9        12     1
         9        15     1
         9        21     1
         9        40     1
        10        13     1
        10        22     1
        10        39     1
        10        41     1
        10        44     1
        11        14     1
        11        23     1
        11        27     1
        11        40     1
        11        45     1
        12        22     1
        12        38     1
        12        41     1
        12        44     1
        13        21     1
        14        38     1
        14        39     1
        15        16     1
        16        19     1
        16        20     1
        19        42     1
        19        43     1
        20        42     1
        20        43     1
        21        24     1
        21        26     1
        21        38     1
        21        39     1
        21        46     1
        21        47     1
        21        52     1
        21        53     1
        22        25     1
        22        48     1
        22        49     1
        22        50     1
        22        51     1
        23        26     1
        23        28     1
        23        44     1
        23        52     1
        23        53     1
        24        27     1
        24        29     1
        24        30     1
        24        31     1
        24        45     1
        24        50     1
        24        51     1
        25        32     1
        25        46     1
        25        47     1
        25        52     1
        25        53     1
        25        54     1
        25        55     1
        26        29     1
        26        30     1
        26        31     1
        26        45     1
        26        48     1
        26        49     1
        27        28     1
        27        44     1
        27        46     1
        27        47     1
        28        33     1
        28        37     1
        28        48     1
        28        49     1
        28        50     1
        28        51     1
        29        32     1
        29        54     1
        29        55     1
        30        32     1
        30        54     1
        30        55     1
        31        34     1
        31        36     1
        31        56     1
        31        60     1
        32        35     1
        32        57     1
        32        59     1
        33        36     1
        33        54     1
        33        55     1
        33        58     1
        33        60     1
        34        37     1
        34        59     1
        35        56     1
        35        60     1
        36        57     1
        37        54     1
        37        55     1
        37        56     1
        37        58     1
        39        40     1
        40        41     1
        44        45     1
        45        46     1
        45        47     1
        45        52     1
        45        53     1
        46        48     1
        46        49     1
        47        48     1
        47        49     1
        50        52     1
        50        53     1
        51        52     1
        51        53     1
        56        57     1
        57        58     1
        58        59     1
        59        60     1
