; ITP file created by ByteFF-joint-25, 2026-02-17 09:28:53.194687

[ atomtypes ]
;name           bonded.type        at.num        mass        charge   ptype           sigma         epsilon
 s0bf                                  16      0.0000       0.00000       A     3.53194e-01     1.18212e+00    ;  uncertainty sigma = 0.000054, epsilon = 0.002526
 c1bf                                   6      0.0000       0.00000       A     3.31481e-01     4.13441e-01    ;  uncertainty sigma = 0.000043, epsilon = 0.002633
 c2bf                                   6      0.0000       0.00000       A     3.31500e-01     4.13090e-01    ;  uncertainty sigma = 0.000031, epsilon = 0.000866
 c3bf                                   6      0.0000       0.00000       A     3.31492e-01     4.12589e-01    ;  uncertainty sigma = 0.000019, epsilon = 0.000830
 c4bf                                   6      0.0000       0.00000       A     3.31505e-01     4.13364e-01    ;  uncertainty sigma = 0.000019, epsilon = 0.000697
 c5bf                                   6      0.0000       0.00000       A     3.31532e-01     4.13204e-01    ;  uncertainty sigma = 0.000045, epsilon = 0.002056
 o6bf                                   8      0.0000       0.00000       A     3.04804e-01     6.11836e-01    ;  uncertainty sigma = 0.000044, epsilon = 0.001672
 o7bf                                   8      0.0000       0.00000       A     3.04804e-01     6.11836e-01    ;  uncertainty sigma = 0.000044, epsilon = 0.001672
 c8bf                                   6      0.0000       0.00000       A     3.31511e-01     4.12959e-01    ;  uncertainty sigma = 0.000015, epsilon = 0.000546
 c9bf                                   6      0.0000       0.00000       A     3.31526e-01     4.13196e-01    ;  uncertainty sigma = 0.000005, epsilon = 0.000830
 c10bf                                  6      0.0000       0.00000       A     3.31507e-01     4.13226e-01    ;  uncertainty sigma = 0.000013, epsilon = 0.000870
 c11bf                                  6      0.0000       0.00000       A     3.31521e-01     4.13203e-01    ;  uncertainty sigma = 0.000002, epsilon = 0.000548
 c12bf                                  6      0.0000       0.00000       A     3.31522e-01     4.13513e-01    ;  uncertainty sigma = 0.000003, epsilon = 0.000666
 c13bf                                  6      0.0000       0.00000       A     3.31524e-01     4.13276e-01    ;  uncertainty sigma = 0.000003, epsilon = 0.000699
 o14bf                                  8      0.0000       0.00000       A     3.15886e-01     3.06535e-01    ;  uncertainty sigma = 0.000055, epsilon = 0.007861
 c15bf                                  6      0.0000       0.00000       A     3.39749e-01     4.50568e-01    ;  uncertainty sigma = 0.000027, epsilon = 0.002180
 c16bf                                  6      0.0000       0.00000       A     3.31523e-01     4.12941e-01    ;  uncertainty sigma = 0.000026, epsilon = 0.002863
 o17bf                                  8      0.0000       0.00000       A     3.04805e-01     6.12312e-01    ;  uncertainty sigma = 0.000022, epsilon = 0.002455
 o18bf                                  8      0.0000       0.00000       A     3.04805e-01     6.12312e-01    ;  uncertainty sigma = 0.000022, epsilon = 0.002455
 n19bf                                  7      0.0000       0.00000       A     3.27946e-01     6.44717e-01    ;  uncertainty sigma = 0.000033, epsilon = 0.000917
 c20bf                                  6      0.0000       0.00000       A     3.39792e-01     4.51330e-01    ;  uncertainty sigma = 0.000011, epsilon = 0.000898
 c21bf                                  6      0.0000       0.00000       A     3.39794e-01     4.50895e-01    ;  uncertainty sigma = 0.000006, epsilon = 0.000594
 c22bf                                  6      0.0000       0.00000       A     3.39757e-01     4.50321e-01    ;  uncertainty sigma = 0.000005, epsilon = 0.000485
 n23bf                                  7      0.0000       0.00000       A     3.36516e-01     3.59122e-01    ;  uncertainty sigma = 0.000022, epsilon = 0.001472
 c24bf                                  6      0.0000       0.00000       A     3.39757e-01     4.50321e-01    ;  uncertainty sigma = 0.000005, epsilon = 0.000485
 c25bf                                  6      0.0000       0.00000       A     3.39794e-01     4.50895e-01    ;  uncertainty sigma = 0.000006, epsilon = 0.000594
 s26bf                                 16      0.0000       0.00000       A     4.05888e-01     2.56891e-01    ;  uncertainty sigma = 0.000017, epsilon = 0.000907
 o27bf                                  8      0.0000       0.00000       A     3.04816e-01     6.11998e-01    ;  uncertainty sigma = 0.000009, epsilon = 0.000608
 o28bf                                  8      0.0000       0.00000       A     3.04816e-01     6.11998e-01    ;  uncertainty sigma = 0.000009, epsilon = 0.000608
 c29bf                                  6      0.0000       0.00000       A     3.39799e-01     4.50846e-01    ;  uncertainty sigma = 0.000016, epsilon = 0.001433
 c30bf                                  6      0.0000       0.00000       A     3.31503e-01     4.12959e-01    ;  uncertainty sigma = 0.000017, epsilon = 0.001220
 c31bf                                  6      0.0000       0.00000       A     3.31516e-01     4.13385e-01    ;  uncertainty sigma = 0.000003, epsilon = 0.000454
 c32bf                                  6      0.0000       0.00000       A     3.31517e-01     4.13357e-01    ;  uncertainty sigma = 0.000003, epsilon = 0.000583
 c33bf                                  6      0.0000       0.00000       A     3.31519e-01     4.13331e-01    ;  uncertainty sigma = 0.000003, epsilon = 0.000569
 c34bf                                  6      0.0000       0.00000       A     3.31517e-01     4.13357e-01    ;  uncertainty sigma = 0.000003, epsilon = 0.000583
 c35bf                                  6      0.0000       0.00000       A     3.31516e-01     4.13385e-01    ;  uncertainty sigma = 0.000003, epsilon = 0.000454
 h36bf                                  1      0.0000       0.00000       A     2.62548e-01     6.70805e-02    ;  uncertainty sigma = 0.000012, epsilon = 0.000580
 h37bf                                  1      0.0000       0.00000       A     2.62556e-01     6.70450e-02    ;  uncertainty sigma = 0.000012, epsilon = 0.000463
 h38bf                                  1      0.0000       0.00000       A     2.62563e-01     6.69897e-02    ;  uncertainty sigma = 0.000012, epsilon = 0.000446
 h39bf                                  1      0.0000       0.00000       A     2.62561e-01     6.70428e-02    ;  uncertainty sigma = 0.000012, epsilon = 0.000452
 h40bf                                  1      0.0000       0.00000       A     2.42291e-01     8.67021e-02    ;  uncertainty sigma = 0.000194, epsilon = 0.000950
 h41bf                                  1      0.0000       0.00000       A     2.42291e-01     8.67021e-02    ;  uncertainty sigma = 0.000194, epsilon = 0.000950
 h42bf                                  1      0.0000       0.00000       A     1.10678e-01     4.13568e-02    ;  uncertainty sigma = 0.000090, epsilon = 0.000744
 h43bf                                  1      0.0000       0.00000       A     2.42228e-01     8.69235e-02    ;  uncertainty sigma = 0.000023, epsilon = 0.000690
 h44bf                                  1      0.0000       0.00000       A     2.60030e-01     8.68440e-02    ;  uncertainty sigma = 0.000010, epsilon = 0.000536
 h45bf                                  1      0.0000       0.00000       A     2.60030e-01     8.68440e-02    ;  uncertainty sigma = 0.000010, epsilon = 0.000536
 h46bf                                  1      0.0000       0.00000       A     2.42194e-01     8.69282e-02    ;  uncertainty sigma = 0.000025, epsilon = 0.000692
 h47bf                                  1      0.0000       0.00000       A     2.42194e-01     8.69282e-02    ;  uncertainty sigma = 0.000025, epsilon = 0.000692
 h48bf                                  1      0.0000       0.00000       A     2.42194e-01     8.69282e-02    ;  uncertainty sigma = 0.000025, epsilon = 0.000692
 h49bf                                  1      0.0000       0.00000       A     2.42194e-01     8.69282e-02    ;  uncertainty sigma = 0.000025, epsilon = 0.000692
 h50bf                                  1      0.0000       0.00000       A     2.60030e-01     8.68440e-02    ;  uncertainty sigma = 0.000010, epsilon = 0.000536
 h51bf                                  1      0.0000       0.00000       A     2.60030e-01     8.68440e-02    ;  uncertainty sigma = 0.000010, epsilon = 0.000536
 h52bf                                  1      0.0000       0.00000       A     2.42160e-01     8.67038e-02    ;  uncertainty sigma = 0.000064, epsilon = 0.000815
 h53bf                                  1      0.0000       0.00000       A     2.42160e-01     8.67038e-02    ;  uncertainty sigma = 0.000064, epsilon = 0.000815
 h54bf                                  1      0.0000       0.00000       A     2.62562e-01     6.71208e-02    ;  uncertainty sigma = 0.000008, epsilon = 0.000478
 h55bf                                  1      0.0000       0.00000       A     2.62558e-01     6.70323e-02    ;  uncertainty sigma = 0.000010, epsilon = 0.000442
 h56bf                                  1      0.0000       0.00000       A     2.62552e-01     6.70646e-02    ;  uncertainty sigma = 0.000011, epsilon = 0.000453
 h57bf                                  1      0.0000       0.00000       A     2.62558e-01     6.70323e-02    ;  uncertainty sigma = 0.000010, epsilon = 0.000442
 h58bf                                  1      0.0000       0.00000       A     2.62562e-01     6.71208e-02    ;  uncertainty sigma = 0.000008, epsilon = 0.000478
 h59bf                                  1      0.0000       0.00000       A     2.62518e-01     6.71160e-02    ;  uncertainty sigma = 0.000023, epsilon = 0.000755

[ moleculetype ]
;name             nrexcl
 MOL                   3

[ atoms ]
;       nr            type      resi   res      atom      cgnr      charge          mass ; qtot
         1            s0bf         1   UNL        s0         1    -0.09034       32.0670 ; qtot   -0.090
         2            c1bf         1   UNL        c1         2    -0.14481       12.0110 ; qtot   -0.235
         3            c2bf         1   UNL        c2         3     0.07339       12.0110 ; qtot   -0.162
         4            c3bf         1   UNL        c3         4    -0.16627       12.0110 ; qtot   -0.328
         5            c4bf         1   UNL        c4         5    -0.08900       12.0110 ; qtot   -0.417
         6            c5bf         1   UNL        c5         6     0.93426       12.0110 ; qtot    0.517
         7            o6bf         1   UNL        o6         7    -0.82204       15.9990 ; qtot   -0.305
         8            o7bf         1   UNL        o7         8    -0.82204       15.9990 ; qtot   -1.127
         9            c8bf         1   UNL        c8         9     0.03513       12.0110 ; qtot   -1.092
        10            c9bf         1   UNL        c9        10    -0.18764       12.0110 ; qtot   -1.279
        11           c10bf         1   UNL       c10        11     0.16071       12.0110 ; qtot   -1.119
        12           c11bf         1   UNL       c11        12    -0.19079       12.0110 ; qtot   -1.309
        13           c12bf         1   UNL       c12        13    -0.09078       12.0110 ; qtot   -1.400
        14           c13bf         1   UNL       c13        14    -0.14287       12.0110 ; qtot   -1.543
        15           o14bf         1   UNL       o14        15    -0.33150       15.9990 ; qtot   -1.875
        16           c15bf         1   UNL       c15        16    -0.04279       12.0110 ; qtot   -1.917
        17           c16bf         1   UNL       c16        17     0.91573       12.0110 ; qtot   -1.002
        18           o17bf         1   UNL       o17        18    -0.83281       15.9990 ; qtot   -1.834
        19           o18bf         1   UNL       o18        19    -0.83281       15.9990 ; qtot   -2.667
        20           n19bf         1   UNL       n19        20    -0.74906       14.0070 ; qtot   -3.416
        21           c20bf         1   UNL       c20        21     0.20770       12.0110 ; qtot   -3.209
        22           c21bf         1   UNL       c21        22    -0.10422       12.0110 ; qtot   -3.313
        23           c22bf         1   UNL       c22        23     0.20435       12.0110 ; qtot   -3.109
        24           n23bf         1   UNL       n23        24    -0.73938       14.0070 ; qtot   -3.848
        25           c24bf         1   UNL       c24        25     0.20435       12.0110 ; qtot   -3.644
        26           c25bf         1   UNL       c25        26    -0.10422       12.0110 ; qtot   -3.748
        27           s26bf         1   UNL       s26        27     1.14047       32.0670 ; qtot   -2.607
        28           o27bf         1   UNL       o27        28    -0.58827       15.9990 ; qtot   -3.196
        29           o28bf         1   UNL       o28        29    -0.58827       15.9990 ; qtot   -3.784
        30           c29bf         1   UNL       c29        30    -0.10260       12.0110 ; qtot   -3.886
        31           c30bf         1   UNL       c30        31    -0.08640       12.0110 ; qtot   -3.973
        32           c31bf         1   UNL       c31        32    -0.10541       12.0110 ; qtot   -4.078
        33           c32bf         1   UNL       c32        33    -0.12917       12.0110 ; qtot   -4.207
        34           c33bf         1   UNL       c33        34    -0.12175       12.0110 ; qtot   -4.329
        35           c34bf         1   UNL       c34        35    -0.12917       12.0110 ; qtot   -4.458
        36           c35bf         1   UNL       c35        36    -0.10541       12.0110 ; qtot   -4.564
        37           h36bf         1   UNL       h36        37     0.13672        1.0080 ; qtot   -4.427
        38           h37bf         1   UNL       h37        38     0.13179        1.0080 ; qtot   -4.295
        39           h38bf         1   UNL       h38        39     0.13626        1.0080 ; qtot   -4.159
        40           h39bf         1   UNL       h39        40     0.13947        1.0080 ; qtot   -4.019
        41           h40bf         1   UNL       h40        41     0.02103        1.0080 ; qtot   -3.998
        42           h41bf         1   UNL       h41        42     0.02103        1.0080 ; qtot   -3.977
        43           h42bf         1   UNL       h42        43     0.39961        1.0080 ; qtot   -3.578
        44           h43bf         1   UNL       h43        44     0.06053        1.0080 ; qtot   -3.517
        45           h44bf         1   UNL       h44        45     0.05926        1.0080 ; qtot   -3.458
        46           h45bf         1   UNL       h45        46     0.05926        1.0080 ; qtot   -3.399
        47           h46bf         1   UNL       h46        47     0.06174        1.0080 ; qtot   -3.337
        48           h47bf         1   UNL       h47        48     0.06174        1.0080 ; qtot   -3.275
        49           h48bf         1   UNL       h48        49     0.06174        1.0080 ; qtot   -3.214
        50           h49bf         1   UNL       h49        50     0.06174        1.0080 ; qtot   -3.152
        51           h50bf         1   UNL       h50        51     0.05926        1.0080 ; qtot   -3.093
        52           h51bf         1   UNL       h51        52     0.05926        1.0080 ; qtot   -3.033
        53           h52bf         1   UNL       h52        53     0.10127        1.0080 ; qtot   -2.932
        54           h53bf         1   UNL       h53        54     0.10127        1.0080 ; qtot   -2.831
        55           h54bf         1   UNL       h54        55     0.14029        1.0080 ; qtot   -2.690
        56           h55bf         1   UNL       h55        56     0.13299        1.0080 ; qtot   -2.557
        57           h56bf         1   UNL       h56        57     0.13198        1.0080 ; qtot   -2.425
        58           h57bf         1   UNL       h57        58     0.13299        1.0080 ; qtot   -2.293
        59           h58bf         1   UNL       h58        59     0.14029        1.0080 ; qtot   -2.152
        60           h59bf         1   UNL       h59        60     0.15221        1.0080 ; qtot   -2.000

[ bonds ]
;       ai        aj funct               r               k
         1         2     1        0.174462   165219.032593    ;  uncertainty r = 0.000239, k = 30.240654
         1         5     1        0.174414   168989.791089    ;  uncertainty r = 0.000136, k = 23.163545
         2         3     1        0.138386   384664.942236    ;  uncertainty r = 0.000149, k = 32.671589
         2         6     1        0.153626   206222.641187    ;  uncertainty r = 0.000239, k = 33.160844
         3         4     1        0.143428   265572.530518    ;  uncertainty r = 0.000364, k = 21.657090
         3        15     1        0.136742   311026.210254    ;  uncertainty r = 0.000368, k = 31.972212
         4         5     1        0.137790   407313.472559    ;  uncertainty r = 0.000138, k = 8.153867
         4        60     1        0.108612   337615.754980    ;  uncertainty r = 0.000096, k = 5.281037
         5         9     1        0.146117   265970.679590    ;  uncertainty r = 0.000066, k = 1.843721
         6         7     1        0.126208   549233.250977    ;  uncertainty r = 0.000204, k = 10.064526
         6         8     1        0.126208   549233.250977    ;  uncertainty r = 0.000204, k = 10.064526
         9        10     1        0.139927   349623.125049    ;  uncertainty r = 0.000082, k = 7.706629
         9        14     1        0.140261   350124.673877    ;  uncertainty r = 0.000032, k = 2.635674
        10        11     1        0.140753   362571.026855    ;  uncertainty r = 0.000049, k = 5.445460
        10        37     1        0.108919   336974.671387    ;  uncertainty r = 0.000033, k = 2.647677
        11        12     1        0.140941   361928.206738    ;  uncertainty r = 0.000067, k = 7.751592
        11        20     1        0.139656   340533.778320    ;  uncertainty r = 0.000093, k = 9.299274
        12        13     1        0.139380   371821.742578    ;  uncertainty r = 0.000036, k = 2.429869
        12        38     1        0.108873   337023.140820    ;  uncertainty r = 0.000023, k = 0.936943
        13        14     1        0.139371   366989.763965    ;  uncertainty r = 0.000029, k = 1.458406
        13        39     1        0.108779   332374.620801    ;  uncertainty r = 0.000017, k = 1.550752
        14        40     1        0.108795   335076.217139    ;  uncertainty r = 0.000035, k = 1.193351
        15        16     1        0.144233   227256.906982    ;  uncertainty r = 0.000569, k = 17.300096
        16        17     1        0.155304   162960.045435    ;  uncertainty r = 0.000271, k = 66.064115
        16        41     1        0.109722   316462.039355    ;  uncertainty r = 0.000057, k = 7.578325
        16        42     1        0.109722   316462.039355    ;  uncertainty r = 0.000057, k = 7.578325
        17        18     1        0.126286   541570.585938    ;  uncertainty r = 0.000058, k = 12.189171
        17        19     1        0.126286   541570.585938    ;  uncertainty r = 0.000058, k = 12.189171
        20        21     1        0.146259   234136.578711    ;  uncertainty r = 0.000084, k = 7.753098
        20        43     1        0.101386   415221.140625    ;  uncertainty r = 0.000050, k = 2.421602
        21        22     1        0.153823   205581.391602    ;  uncertainty r = 0.000032, k = 5.695215
        21        26     1        0.153823   205581.391602    ;  uncertainty r = 0.000032, k = 5.695215
        21        44     1        0.109618   302969.992822    ;  uncertainty r = 0.000029, k = 3.107582
        22        23     1        0.153043   210383.249194    ;  uncertainty r = 0.000034, k = 2.538289
        22        45     1        0.109607   310899.341895    ;  uncertainty r = 0.000023, k = 1.329036
        22        46     1        0.109607   310899.341895    ;  uncertainty r = 0.000023, k = 1.329036
        23        24     1        0.147392   220427.696582    ;  uncertainty r = 0.000066, k = 11.885726
        23        47     1        0.109564   306592.048730    ;  uncertainty r = 0.000043, k = 1.487022
        23        48     1        0.109564   306592.048730    ;  uncertainty r = 0.000043, k = 1.487022
        24        25     1        0.147392   220427.696582    ;  uncertainty r = 0.000066, k = 11.885726
        24        27     1        0.167957   119743.710156    ;  uncertainty r = 0.000111, k = 13.461252
        25        26     1        0.153043   210383.249194    ;  uncertainty r = 0.000034, k = 2.538289
        25        49     1        0.109564   306592.048730    ;  uncertainty r = 0.000043, k = 1.487022
        25        50     1        0.109564   306592.048730    ;  uncertainty r = 0.000043, k = 1.487022
        26        51     1        0.109607   310899.341895    ;  uncertainty r = 0.000023, k = 1.329036
        26        52     1        0.109607   310899.341895    ;  uncertainty r = 0.000023, k = 1.329036
        27        28     1        0.147216   517367.790527    ;  uncertainty r = 0.000046, k = 6.238391
        27        29     1        0.147216   517367.790527    ;  uncertainty r = 0.000046, k = 6.238391
        27        30     1        0.183347   144483.716968    ;  uncertainty r = 0.000059, k = 10.559041
        30        31     1        0.150254   236045.528711    ;  uncertainty r = 0.000070, k = 6.059591
        30        53     1        0.109543   319118.741455    ;  uncertainty r = 0.000033, k = 1.728383
        30        54     1        0.109543   319118.741455    ;  uncertainty r = 0.000033, k = 1.728383
        31        32     1        0.139903   352173.567236    ;  uncertainty r = 0.000032, k = 2.758771
        31        36     1        0.139903   352173.567236    ;  uncertainty r = 0.000032, k = 2.758771
        32        33     1        0.139513   367487.329004    ;  uncertainty r = 0.000019, k = 1.407067
        32        55     1        0.108838   333708.807080    ;  uncertainty r = 0.000023, k = 0.433138
        33        34     1        0.139644   370527.470801    ;  uncertainty r = 0.000023, k = 1.213490
        33        56     1        0.108843   334218.195801    ;  uncertainty r = 0.000011, k = 0.972131
        34        35     1        0.139644   370527.470801    ;  uncertainty r = 0.000023, k = 1.213490
        34        57     1        0.108851   334582.431592    ;  uncertainty r = 0.000012, k = 0.680626
        35        36     1        0.139513   367487.329004    ;  uncertainty r = 0.000019, k = 1.407067
        35        58     1        0.108843   334218.195801    ;  uncertainty r = 0.000011, k = 0.972131
        36        59     1        0.108838   333708.807080    ;  uncertainty r = 0.000023, k = 0.433128

[ angles ]
;       ai        aj        ak funct           theta             cth
         1         2         3     1      111.682968      494.750083    ;  uncertainty theta = 0.005377, k = 0.591197
         1         2         6     1      115.699661      318.530590    ;  uncertainty theta = 0.014396, k = 0.174027
         1         5         4     1      112.137466      437.591904    ;  uncertainty theta = 0.003909, k = 0.431080
         1         5         9     1      118.152931      342.345477    ;  uncertainty theta = 0.005918, k = 0.181724
         2         1         5     1       93.343872     1148.440454    ;  uncertainty theta = 0.009363, k = 0.088140
         2         3         4     1      116.245529      510.769448    ;  uncertainty theta = 0.002974, k = 0.278925
         2         3        15     1      122.076462      388.420327    ;  uncertainty theta = 0.012379, k = 0.479714
         2         6         7     1      115.343613      377.682579    ;  uncertainty theta = 0.012526, k = 0.193586
         2         6         8     1      115.343613      377.682579    ;  uncertainty theta = 0.012526, k = 0.193586
         3         2         6     1      128.429459      301.179497    ;  uncertainty theta = 0.012152, k = 0.364996
         3         4         5     1      113.665245      624.080986    ;  uncertainty theta = 0.008040, k = 0.050677
         3         4        60     1      122.007225      270.019722    ;  uncertainty theta = 0.008585, k = 0.212335
         3        15        16     1      111.691200      465.355945    ;  uncertainty theta = 0.010789, k = 0.193082
         4         3        15     1      119.529076      401.257864    ;  uncertainty theta = 0.014067, k = 0.256067
         4         5         9     1      126.614822      352.835451    ;  uncertainty theta = 0.004173, k = 0.185622
         5         4        60     1      121.520523      250.563813    ;  uncertainty theta = 0.004691, k = 0.042913
         5         9        10     1      120.794571      424.774509    ;  uncertainty theta = 0.003554, k = 0.136212
         5         9        14     1      121.584656      427.198300    ;  uncertainty theta = 0.002504, k = 0.086137
         7         6         8     1      131.477646      803.888156    ;  uncertainty theta = 0.008801, k = 0.189850
         9        10        11     1      120.692001      534.643581    ;  uncertainty theta = 0.004238, k = 0.104118
         9        10        37     1      119.087509      280.305272    ;  uncertainty theta = 0.002239, k = 0.069331
         9        14        13     1      119.605179      529.154603    ;  uncertainty theta = 0.002423, k = 0.077155
         9        14        40     1      119.127396      278.191885    ;  uncertainty theta = 0.001835, k = 0.058060
        10         9        14     1      121.463966      395.101027    ;  uncertainty theta = 0.005185, k = 0.122666
        10        11        12     1      118.997719      368.626131    ;  uncertainty theta = 0.007384, k = 0.164467
        10        11        20     1      123.238541      560.492435    ;  uncertainty theta = 0.004985, k = 0.229221
        11        10        37     1      119.473694      277.502063    ;  uncertainty theta = 0.002023, k = 0.027849
        11        12        13     1      118.451317      533.334932    ;  uncertainty theta = 0.003729, k = 0.122588
        11        12        38     1      119.619423      267.231708    ;  uncertainty theta = 0.002416, k = 0.066386
        11        20        21     1      114.779846      429.072533    ;  uncertainty theta = 0.004451, k = 0.146915
        11        20        43     1      110.680946      371.423657    ;  uncertainty theta = 0.004168, k = 0.065248
        12        11        20     1      123.735001      591.600465    ;  uncertainty theta = 0.004505, k = 0.147872
        12        13        14     1      121.506935      509.150013    ;  uncertainty theta = 0.002631, k = 0.068832
        12        13        39     1      120.189308      280.032408    ;  uncertainty theta = 0.001024, k = 0.065623
        13        12        38     1      121.003220      294.864680    ;  uncertainty theta = 0.002261, k = 0.074534
        13        14        40     1      120.645981      295.590413    ;  uncertainty theta = 0.001485, k = 0.059581
        14        13        39     1      120.186363      280.726794    ;  uncertainty theta = 0.000891, k = 0.033988
        15        16        17     1      108.490417      486.804020    ;  uncertainty theta = 0.008619, k = 0.282426
        15        16        41     1      106.527245      414.046880    ;  uncertainty theta = 0.002866, k = 0.143520
        15        16        42     1      106.527245      414.046880    ;  uncertainty theta = 0.002866, k = 0.143520
        16        17        18     1      116.294899      426.503148    ;  uncertainty theta = 0.009761, k = 0.306414
        16        17        19     1      116.294899      426.503148    ;  uncertainty theta = 0.009761, k = 0.306414
        17        16        41     1      109.990211      351.823479    ;  uncertainty theta = 0.003835, k = 0.112457
        17        16        42     1      109.990211      351.823479    ;  uncertainty theta = 0.003835, k = 0.112457
        18        17        19     1      131.546265      818.159315    ;  uncertainty theta = 0.002374, k = 0.066126
        20        21        22     1      111.874893      608.781640    ;  uncertainty theta = 0.002670, k = 0.056193
        20        21        26     1      111.874893      608.781640    ;  uncertainty theta = 0.002670, k = 0.056193
        20        21        44     1      105.105202      431.697684    ;  uncertainty theta = 0.000667, k = 0.128592
        21        20        43     1      109.826096      364.700566    ;  uncertainty theta = 0.003958, k = 0.118398
        21        22        23     1      110.060074      566.963538    ;  uncertainty theta = 0.002977, k = 0.093252
        21        22        45     1      108.163086      389.798501    ;  uncertainty theta = 0.000562, k = 0.019447
        21        22        46     1      108.163086      389.798501    ;  uncertainty theta = 0.000562, k = 0.019447
        21        26        25     1      110.060074      566.963538    ;  uncertainty theta = 0.002977, k = 0.093252
        21        26        51     1      108.163086      389.798501    ;  uncertainty theta = 0.000562, k = 0.019447
        21        26        52     1      108.163086      389.798501    ;  uncertainty theta = 0.000562, k = 0.019447
        22        21        26     1      108.550858      573.147413    ;  uncertainty theta = 0.002717, k = 0.112066
        22        21        44     1      107.951881      404.294482    ;  uncertainty theta = 0.002626, k = 0.042159
        22        23        24     1      109.259689      661.967140    ;  uncertainty theta = 0.002496, k = 0.165476
        22        23        47     1      109.589439      414.874921    ;  uncertainty theta = 0.000574, k = 0.041752
        22        23        48     1      109.589439      414.874921    ;  uncertainty theta = 0.000574, k = 0.041752
        23        22        45     1      107.819115      397.813036    ;  uncertainty theta = 0.000545, k = 0.058984
        23        22        46     1      107.819115      397.813036    ;  uncertainty theta = 0.000545, k = 0.058984
        23        24        25     1      108.347214      477.043099    ;  uncertainty theta = 0.006497, k = 0.088259
        23        24        27     1      107.526390      421.352824    ;  uncertainty theta = 0.004077, k = 0.136080
        24        23        47     1      107.439697      440.133772    ;  uncertainty theta = 0.001245, k = 0.060515
        24        23        48     1      107.439697      440.133772    ;  uncertainty theta = 0.001245, k = 0.060515
        24        25        26     1      109.259689      661.967140    ;  uncertainty theta = 0.002496, k = 0.165476
        24        25        49     1      107.439697      440.133772    ;  uncertainty theta = 0.001245, k = 0.060515
        24        25        50     1      107.439697      440.133772    ;  uncertainty theta = 0.001245, k = 0.060515
        24        27        28     1      113.095688      783.120613    ;  uncertainty theta = 0.002858, k = 0.059603
        24        27        29     1      113.095688      783.120613    ;  uncertainty theta = 0.002858, k = 0.059603
        24        27        30     1      104.556190      574.445401    ;  uncertainty theta = 0.004758, k = 0.134924
        25        24        27     1      107.526390      421.352824    ;  uncertainty theta = 0.004077, k = 0.136080
        25        26        51     1      107.819115      397.813036    ;  uncertainty theta = 0.000545, k = 0.058984
        25        26        52     1      107.819115      397.813036    ;  uncertainty theta = 0.000545, k = 0.058984
        26        21        44     1      107.951881      404.294482    ;  uncertainty theta = 0.002626, k = 0.042159
        26        25        49     1      109.589439      414.874921    ;  uncertainty theta = 0.000574, k = 0.041752
        26        25        50     1      109.589439      414.874921    ;  uncertainty theta = 0.000574, k = 0.041752
        27        30        31     1      109.649918      495.715035    ;  uncertainty theta = 0.004234, k = 0.061160
        27        30        53     1      105.703957      368.051993    ;  uncertainty theta = 0.002863, k = 0.113098
        27        30        54     1      105.703957      368.051993    ;  uncertainty theta = 0.002863, k = 0.113098
        28        27        29     1      123.102562      837.741170    ;  uncertainty theta = 0.004451, k = 0.055256
        28        27        30     1      111.604637      646.652216    ;  uncertainty theta = 0.003974, k = 0.095117
        29        27        30     1      111.604637      646.652216    ;  uncertainty theta = 0.003974, k = 0.095117
        30        31        32     1      119.892944      402.465801    ;  uncertainty theta = 0.003011, k = 0.179666
        30        31        36     1      119.892944      402.465801    ;  uncertainty theta = 0.003011, k = 0.179666
        31        30        53     1      110.903542      383.204564    ;  uncertainty theta = 0.003465, k = 0.060312
        31        30        54     1      110.903542      383.204564    ;  uncertainty theta = 0.003465, k = 0.060312
        31        32        33     1      120.345314      516.940906    ;  uncertainty theta = 0.001946, k = 0.082955
        31        32        55     1      118.665062      275.796121    ;  uncertainty theta = 0.001604, k = 0.061144
        31        36        35     1      120.345314      516.940906    ;  uncertainty theta = 0.001946, k = 0.082955
        31        36        59     1      118.665062      275.796121    ;  uncertainty theta = 0.001604, k = 0.061144
        32        31        36     1      120.659508      464.018056    ;  uncertainty theta = 0.002029, k = 0.059375
        32        33        34     1      119.373512      517.504989    ;  uncertainty theta = 0.001399, k = 0.034154
        32        33        56     1      119.983643      284.143659    ;  uncertainty theta = 0.001388, k = 0.020024
        33        32        55     1      120.407043      293.275698    ;  uncertainty theta = 0.001871, k = 0.020524
        33        34        35     1      118.513145      527.821821    ;  uncertainty theta = 0.001354, k = 0.028652
        33        34        57     1      120.600479      288.987953    ;  uncertainty theta = 0.001685, k = 0.006948
        34        33        56     1      120.580788      288.011318    ;  uncertainty theta = 0.001274, k = 0.008284
        34        35        36     1      119.373512      517.504989    ;  uncertainty theta = 0.001399, k = 0.034154
        34        35        58     1      120.580788      288.011318    ;  uncertainty theta = 0.001274, k = 0.008284
        35        34        57     1      120.600479      288.987953    ;  uncertainty theta = 0.001685, k = 0.006948
        35        36        59     1      120.407043      293.275698    ;  uncertainty theta = 0.001871, k = 0.020524
        36        35        58     1      119.983643      284.143659    ;  uncertainty theta = 0.001388, k = 0.020024
        41        16        42     1      108.317726      321.830559    ;  uncertainty theta = 0.009636, k = 0.179690
        45        22        46     1      105.624390      312.800446    ;  uncertainty theta = 0.001718, k = 0.026570
        47        23        48     1      105.553688      321.577422    ;  uncertainty theta = 0.001002, k = 0.056967
        49        25        50     1      105.553688      321.577422    ;  uncertainty theta = 0.001002, k = 0.056967
        51        26        52     1      105.624390      312.800478    ;  uncertainty theta = 0.001718, k = 0.026570
        53        30        54     1      107.674545      299.565839    ;  uncertainty theta = 0.003188, k = 0.077713

[ dihedrals ] ; propers for gromacs 4.5 or higher, use funct 9
;       ai        aj        ak        al funct           phase               k        pn
         1         2         3         4     9        0.000000       -0.780133         1    ;  uncertainty k = 1.039751
         1         2         3         4     9      180.000000       16.355526         2    ;  uncertainty k = 0.443483
         1         2         3         4     9        0.000000       -2.414030         3    ;  uncertainty k = 0.945778
         1         2         3         4     9      180.000000        0.965696         4    ;  uncertainty k = 0.634524
         1         2         3        15     9        0.000000        0.147380         1    ;  uncertainty k = 1.386578
         1         2         3        15     9      180.000000       17.239045         2    ;  uncertainty k = 0.139994
         1         2         3        15     9        0.000000        1.618409         3    ;  uncertainty k = 0.410169
         1         2         3        15     9      180.000000        0.767484         4    ;  uncertainty k = 0.399223
         1         2         6         7     9        0.000000        0.390301         1    ;  uncertainty k = 2.309782
         1         2         6         7     9      180.000000        5.211730         2    ;  uncertainty k = 0.334370
         1         2         6         7     9        0.000000        0.231685         3    ;  uncertainty k = 0.431913
         1         2         6         7     9      180.000000        0.235437         4    ;  uncertainty k = 0.144825
         1         2         6         8     9        0.000000        0.390301         1    ;  uncertainty k = 2.309782
         1         2         6         8     9      180.000000        5.211730         2    ;  uncertainty k = 0.334370
         1         2         6         8     9        0.000000        0.231685         3    ;  uncertainty k = 0.431913
         1         2         6         8     9      180.000000        0.235437         4    ;  uncertainty k = 0.144825
         1         5         4         3     9        0.000000       -0.491865         1    ;  uncertainty k = 0.349915
         1         5         4         3     9      180.000000       17.362114         2    ;  uncertainty k = 0.380473
         1         5         4         3     9        0.000000       -3.585912         3    ;  uncertainty k = 0.531336
         1         5         4         3     9      180.000000        0.964452         4    ;  uncertainty k = 0.791057
         1         5         4        60     9        0.000000        0.375214         1    ;  uncertainty k = 0.484071
         1         5         4        60     9      180.000000       11.058007         2    ;  uncertainty k = 0.796497
         1         5         4        60     9        0.000000        1.895182         3    ;  uncertainty k = 0.340730
         1         5         4        60     9      180.000000        0.955289         4    ;  uncertainty k = 0.193740
         1         5         9        10     9        0.000000       -0.852702         1    ;  uncertainty k = 0.909415
         1         5         9        10     9      180.000000        3.086112         2    ;  uncertainty k = 0.095899
         1         5         9        10     9        0.000000        0.283226         3    ;  uncertainty k = 0.374500
         1         5         9        10     9      180.000000        0.030777         4    ;  uncertainty k = 0.073263
         1         5         9        14     9        0.000000       -0.181679         1    ;  uncertainty k = 0.675958
         1         5         9        14     9      180.000000        3.020029         2    ;  uncertainty k = 0.138660
         1         5         9        14     9        0.000000        0.455967         3    ;  uncertainty k = 0.317598
         1         5         9        14     9      180.000000        0.039698         4    ;  uncertainty k = 0.064159
         2         1         5         4     9        0.000000       -0.816810         1    ;  uncertainty k = 1.083383
         2         1         5         4     9      180.000000       13.881755         2    ;  uncertainty k = 0.889761
         2         1         5         4     9        0.000000       -7.478761         3    ;  uncertainty k = 0.449263
         2         1         5         4     9      180.000000        1.483993         4    ;  uncertainty k = 0.382703
         2         1         5         9     9        0.000000        0.479747         1    ;  uncertainty k = 0.805048
         2         1         5         9     9      180.000000       11.455350         2    ;  uncertainty k = 0.577294
         2         1         5         9     9        0.000000        1.161945         3    ;  uncertainty k = 1.198300
         2         1         5         9     9      180.000000       -0.063496         4    ;  uncertainty k = 0.555151
         2         3         4         5     9        0.000000       -0.539599         1    ;  uncertainty k = 0.833071
         2         3         4         5     9      180.000000       10.608783         2    ;  uncertainty k = 0.858947
         2         3         4         5     9        0.000000       -3.114541         3    ;  uncertainty k = 0.408563
         2         3         4         5     9      180.000000        1.293916         4    ;  uncertainty k = 0.368163
         2         3         4        60     9        0.000000        0.203923         1    ;  uncertainty k = 1.297701
         2         3         4        60     9      180.000000        6.439532         2    ;  uncertainty k = 0.393502
         2         3         4        60     9        0.000000        1.089423         3    ;  uncertainty k = 0.529035
         2         3         4        60     9      180.000000        0.378875         4    ;  uncertainty k = 0.194521
         2         3        15        16     9        0.000000       -0.411960         1    ;  uncertainty k = 2.117374
         2         3        15        16     9      180.000000        4.475832         2    ;  uncertainty k = 1.339409
         2         3        15        16     9        0.000000        0.208882         3    ;  uncertainty k = 0.383691
         2         3        15        16     9      180.000000        0.089091         4    ;  uncertainty k = 0.181107
         3         2         1         5     9        0.000000       -1.157272         1    ;  uncertainty k = 1.330971
         3         2         1         5     9      180.000000       11.928819         2    ;  uncertainty k = 0.641769
         3         2         1         5     9        0.000000       -3.927541         3    ;  uncertainty k = 0.943377
         3         2         1         5     9      180.000000        1.358657         4    ;  uncertainty k = 0.690591
         3         2         6         7     9        0.000000       -0.558323         1    ;  uncertainty k = 1.197572
         3         2         6         7     9      180.000000        2.978439         2    ;  uncertainty k = 0.296640
         3         2         6         7     9        0.000000        0.457576         3    ;  uncertainty k = 0.204788
         3         2         6         7     9      180.000000        0.130024         4    ;  uncertainty k = 0.069907
         3         2         6         8     9        0.000000       -0.558323         1    ;  uncertainty k = 1.197572
         3         2         6         8     9      180.000000        2.978439         2    ;  uncertainty k = 0.296640
         3         2         6         8     9        0.000000        0.457576         3    ;  uncertainty k = 0.204788
         3         2         6         8     9      180.000000        0.130024         4    ;  uncertainty k = 0.069907
         3         4         5         9     9        0.000000        0.397318         1    ;  uncertainty k = 0.617986
         3         4         5         9     9      180.000000       14.042218         2    ;  uncertainty k = 0.218747
         3         4         5         9     9        0.000000        1.787596         3    ;  uncertainty k = 0.396673
         3         4         5         9     9      180.000000        0.703858         4    ;  uncertainty k = 0.250303
         3        15        16        17     9        0.000000       -2.479613         1    ;  uncertainty k = 1.522526
         3        15        16        17     9      180.000000       -1.921682         2    ;  uncertainty k = 1.012058
         3        15        16        17     9        0.000000        0.422578         3    ;  uncertainty k = 0.401316
         3        15        16        17     9      180.000000        0.761319         4    ;  uncertainty k = 0.375154
         3        15        16        41     9        0.000000        1.959700         1    ;  uncertainty k = 0.905593
         3        15        16        41     9      180.000000       -0.750591         2    ;  uncertainty k = 0.739795
         3        15        16        41     9        0.000000        0.509648         3    ;  uncertainty k = 0.351861
         3        15        16        41     9      180.000000        0.025740         4    ;  uncertainty k = 0.183670
         3        15        16        42     9        0.000000        1.959700         1    ;  uncertainty k = 0.905593
         3        15        16        42     9      180.000000       -0.750591         2    ;  uncertainty k = 0.739795
         3        15        16        42     9        0.000000        0.509648         3    ;  uncertainty k = 0.351861
         3        15        16        42     9      180.000000        0.025740         4    ;  uncertainty k = 0.183670
         4         3         2         6     9        0.000000        0.884877         1    ;  uncertainty k = 1.073473
         4         3         2         6     9      180.000000        9.328839         2    ;  uncertainty k = 0.493417
         4         3         2         6     9        0.000000        1.970481         3    ;  uncertainty k = 0.478260
         4         3         2         6     9      180.000000        0.869854         4    ;  uncertainty k = 0.313691
         4         3        15        16     9        0.000000        2.494879         1    ;  uncertainty k = 1.385642
         4         3        15        16     9      180.000000        5.146818         2    ;  uncertainty k = 0.876061
         4         3        15        16     9        0.000000        0.184728         3    ;  uncertainty k = 0.415430
         4         3        15        16     9      180.000000       -0.016322         4    ;  uncertainty k = 0.209690
         4         5         9        10     9        0.000000        0.372965         1    ;  uncertainty k = 0.435483
         4         5         9        10     9      180.000000        3.263091         2    ;  uncertainty k = 0.093297
         4         5         9        10     9        0.000000        0.418098         3    ;  uncertainty k = 0.252447
         4         5         9        10     9      180.000000       -0.162556         4    ;  uncertainty k = 0.061799
         4         5         9        14     9        0.000000       -0.015305         1    ;  uncertainty k = 0.489731
         4         5         9        14     9      180.000000        3.247387         2    ;  uncertainty k = 0.180868
         4         5         9        14     9        0.000000        0.434386         3    ;  uncertainty k = 0.207888
         4         5         9        14     9      180.000000       -0.161545         4    ;  uncertainty k = 0.076289
         5         1         2         6     9        0.000000        0.310706         1    ;  uncertainty k = 2.135398
         5         1         2         6     9      180.000000        8.504876         2    ;  uncertainty k = 0.634796
         5         1         2         6     9        0.000000        1.067134         3    ;  uncertainty k = 0.550428
         5         1         2         6     9      180.000000        0.496069         4    ;  uncertainty k = 0.216287
         5         4         3        15     9        0.000000        0.228055         1    ;  uncertainty k = 0.642619
         5         4         3        15     9      180.000000       13.083743         2    ;  uncertainty k = 0.246479
         5         4         3        15     9        0.000000        1.808954         3    ;  uncertainty k = 0.692711
         5         4         3        15     9      180.000000        0.338993         4    ;  uncertainty k = 0.367213
         5         9        10        11     9        0.000000        0.125024         1    ;  uncertainty k = 0.310174
         5         9        10        11     9      180.000000        8.716545         2    ;  uncertainty k = 0.712013
         5         9        10        11     9        0.000000        1.200787         3    ;  uncertainty k = 0.236384
         5         9        10        11     9      180.000000        1.529205         4    ;  uncertainty k = 0.252360
         5         9        10        37     9        0.000000       -0.131249         1    ;  uncertainty k = 0.363475
         5         9        10        37     9      180.000000        7.175075         2    ;  uncertainty k = 0.456638
         5         9        10        37     9        0.000000        0.701047         3    ;  uncertainty k = 0.203063
         5         9        10        37     9      180.000000        1.190545         4    ;  uncertainty k = 0.242346
         5         9        14        13     9        0.000000       -0.056775         1    ;  uncertainty k = 0.388414
         5         9        14        13     9      180.000000        8.988536         2    ;  uncertainty k = 0.553430
         5         9        14        13     9        0.000000        1.085922         3    ;  uncertainty k = 0.265573
         5         9        14        13     9      180.000000        1.653148         4    ;  uncertainty k = 0.168170
         5         9        14        40     9        0.000000       -0.121139         1    ;  uncertainty k = 0.530384
         5         9        14        40     9      180.000000        6.977607         2    ;  uncertainty k = 0.418958
         5         9        14        40     9        0.000000        0.812707         3    ;  uncertainty k = 0.145102
         5         9        14        40     9      180.000000        1.191355         4    ;  uncertainty k = 0.184105
         6         2         3        15     9        0.000000       -0.644219         1    ;  uncertainty k = 1.282793
         6         2         3        15     9      180.000000       11.073351         2    ;  uncertainty k = 0.791512
         6         2         3        15     9        0.000000        1.465094         3    ;  uncertainty k = 0.305415
         6         2         3        15     9      180.000000        0.453686         4    ;  uncertainty k = 0.449320
         9         5         4        60     9        0.000000        0.128286         1    ;  uncertainty k = 0.373858
         9         5         4        60     9      180.000000        8.043325         2    ;  uncertainty k = 0.488928
         9         5         4        60     9        0.000000        1.193288         3    ;  uncertainty k = 0.344638
         9         5         4        60     9      180.000000        0.578194         4    ;  uncertainty k = 0.170013
         9        10        11        12     9        0.000000       -0.022147         1    ;  uncertainty k = 0.283409
         9        10        11        12     9      180.000000        7.735794         2    ;  uncertainty k = 0.612386
         9        10        11        12     9        0.000000        0.384857         3    ;  uncertainty k = 0.307314
         9        10        11        12     9      180.000000        1.395652         4    ;  uncertainty k = 0.264983
         9        10        11        20     9        0.000000        0.183754         1    ;  uncertainty k = 0.737036
         9        10        11        20     9      180.000000        8.518440         2    ;  uncertainty k = 0.090518
         9        10        11        20     9        0.000000        0.938675         3    ;  uncertainty k = 0.217051
         9        10        11        20     9      180.000000        1.624894         4    ;  uncertainty k = 0.129507
         9        14        13        12     9        0.000000       -0.022070         1    ;  uncertainty k = 0.381437
         9        14        13        12     9      180.000000       14.467393         2    ;  uncertainty k = 0.245808
         9        14        13        12     9        0.000000       -1.009967         3    ;  uncertainty k = 0.450238
         9        14        13        12     9      180.000000        0.636377         4    ;  uncertainty k = 0.278470
         9        14        13        39     9        0.000000        0.033866         1    ;  uncertainty k = 0.088169
         9        14        13        39     9      180.000000        7.822630         2    ;  uncertainty k = 0.294335
         9        14        13        39     9        0.000000        1.336976         3    ;  uncertainty k = 0.268178
         9        14        13        39     9      180.000000        1.792723         4    ;  uncertainty k = 0.120188
        10         9        14        13     9        0.000000       -0.135227         1    ;  uncertainty k = 0.180583
        10         9        14        13     9      180.000000       11.176358         2    ;  uncertainty k = 0.265694
        10         9        14        13     9        0.000000       -0.350294         3    ;  uncertainty k = 0.268173
        10         9        14        13     9      180.000000        0.984188         4    ;  uncertainty k = 0.263568
        10         9        14        40     9        0.000000        0.072920         1    ;  uncertainty k = 0.333079
        10         9        14        40     9      180.000000        6.795328         2    ;  uncertainty k = 0.634922
        10         9        14        40     9        0.000000        1.444775         3    ;  uncertainty k = 0.257219
        10         9        14        40     9      180.000000        1.638486         4    ;  uncertainty k = 0.246584
        10        11        12        13     9        0.000000       -0.058641         1    ;  uncertainty k = 0.140678
        10        11        12        13     9      180.000000        8.035003         2    ;  uncertainty k = 0.728120
        10        11        12        13     9        0.000000        0.239845         3    ;  uncertainty k = 0.366702
        10        11        12        13     9      180.000000        1.321210         4    ;  uncertainty k = 0.361028
        10        11        12        38     9        0.000000        0.170941         1    ;  uncertainty k = 0.585528
        10        11        12        38     9      180.000000        5.871115         2    ;  uncertainty k = 0.738562
        10        11        12        38     9        0.000000        1.239873         3    ;  uncertainty k = 0.214272
        10        11        12        38     9      180.000000        1.455439         4    ;  uncertainty k = 0.176171
        10        11        20        21     9        0.000000        3.404129         1    ;  uncertainty k = 0.515135
        10        11        20        21     9      180.000000        6.422823         2    ;  uncertainty k = 0.218297
        10        11        20        21     9        0.000000        0.616345         3    ;  uncertainty k = 0.200885
        10        11        20        21     9      180.000000       -0.000747         4    ;  uncertainty k = 0.095346
        10        11        20        43     9        0.000000        4.682959         1    ;  uncertainty k = 0.488860
        10        11        20        43     9      180.000000        6.269376         2    ;  uncertainty k = 0.367662
        10        11        20        43     9        0.000000        0.751084         3    ;  uncertainty k = 0.276538
        10        11        20        43     9      180.000000       -0.340864         4    ;  uncertainty k = 0.052719
        11        10         9        14     9        0.000000       -0.069932         1    ;  uncertainty k = 0.213883
        11        10         9        14     9      180.000000       11.005712         2    ;  uncertainty k = 0.289983
        11        10         9        14     9        0.000000       -0.205898         3    ;  uncertainty k = 0.220079
        11        10         9        14     9      180.000000        0.967083         4    ;  uncertainty k = 0.160658
        11        12        13        14     9        0.000000       -0.171699         1    ;  uncertainty k = 0.306847
        11        12        13        14     9      180.000000       14.273702         2    ;  uncertainty k = 0.197725
        11        12        13        14     9        0.000000       -0.995489         3    ;  uncertainty k = 0.379104
        11        12        13        14     9      180.000000        0.685089         4    ;  uncertainty k = 0.218761
        11        12        13        39     9        0.000000        0.008745         1    ;  uncertainty k = 0.271105
        11        12        13        39     9      180.000000        7.906785         2    ;  uncertainty k = 0.355014
        11        12        13        39     9        0.000000        1.181555         3    ;  uncertainty k = 0.304014
        11        12        13        39     9      180.000000        1.549599         4    ;  uncertainty k = 0.193568
        11        20        21        22     9        0.000000       -0.277193         1    ;  uncertainty k = 0.242795
        11        20        21        22     9      180.000000       -0.160612         2    ;  uncertainty k = 0.301049
        11        20        21        22     9        0.000000        0.860041         3    ;  uncertainty k = 0.088359
        11        20        21        22     9      180.000000        0.309882         4    ;  uncertainty k = 0.097552
        11        20        21        26     9        0.000000       -0.277193         1    ;  uncertainty k = 0.242795
        11        20        21        26     9      180.000000       -0.160612         2    ;  uncertainty k = 0.301049
        11        20        21        26     9        0.000000        0.860041         3    ;  uncertainty k = 0.088359
        11        20        21        26     9      180.000000        0.309882         4    ;  uncertainty k = 0.097552
        11        20        21        44     9        0.000000       -1.619691         1    ;  uncertainty k = 0.408978
        11        20        21        44     9      180.000000       -1.111115         2    ;  uncertainty k = 0.450739
        11        20        21        44     9        0.000000        0.908050         3    ;  uncertainty k = 0.141012
        11        20        21        44     9      180.000000        0.296216         4    ;  uncertainty k = 0.060925
        12        11        10        37     9        0.000000        0.221150         1    ;  uncertainty k = 0.416711
        12        11        10        37     9      180.000000        5.938836         2    ;  uncertainty k = 0.561527
        12        11        10        37     9        0.000000        1.296450         3    ;  uncertainty k = 0.244087
        12        11        10        37     9      180.000000        1.547558         4    ;  uncertainty k = 0.174575
        12        11        20        21     9        0.000000        3.529469         1    ;  uncertainty k = 0.406540
        12        11        20        21     9      180.000000        6.300627         2    ;  uncertainty k = 0.174227
        12        11        20        21     9        0.000000        0.644658         3    ;  uncertainty k = 0.126724
        12        11        20        21     9      180.000000        0.018042         4    ;  uncertainty k = 0.101649
        12        11        20        43     9        0.000000        4.567643         1    ;  uncertainty k = 0.339780
        12        11        20        43     9      180.000000        6.194534         2    ;  uncertainty k = 0.262213
        12        11        20        43     9        0.000000        0.836430         3    ;  uncertainty k = 0.198459
        12        11        20        43     9      180.000000       -0.344411         4    ;  uncertainty k = 0.056041
        12        13        14        40     9        0.000000        0.105128         1    ;  uncertainty k = 0.191035
        12        13        14        40     9      180.000000        7.773299         2    ;  uncertainty k = 0.197761
        12        13        14        40     9        0.000000        1.363042         3    ;  uncertainty k = 0.254919
        12        13        14        40     9      180.000000        1.856277         4    ;  uncertainty k = 0.143822
        13        12        11        20     9        0.000000        0.120920         1    ;  uncertainty k = 0.549044
        13        12        11        20     9      180.000000        8.442271         2    ;  uncertainty k = 0.265232
        13        12        11        20     9        0.000000        1.023839         3    ;  uncertainty k = 0.255340
        13        12        11        20     9      180.000000        1.595114         4    ;  uncertainty k = 0.100329
        14         9        10        37     9        0.000000        0.218885         1    ;  uncertainty k = 0.244209
        14         9        10        37     9      180.000000        7.118903         2    ;  uncertainty k = 0.403504
        14         9        10        37     9        0.000000        1.513296         3    ;  uncertainty k = 0.240037
        14         9        10        37     9      180.000000        1.597104         4    ;  uncertainty k = 0.232966
        14        13        12        38     9        0.000000        0.166728         1    ;  uncertainty k = 0.095959
        14        13        12        38     9      180.000000        8.067476         2    ;  uncertainty k = 0.344635
        14        13        12        38     9        0.000000        1.505012         3    ;  uncertainty k = 0.300202
        14        13        12        38     9      180.000000        1.804692         4    ;  uncertainty k = 0.114355
        15         3         4        60     9        0.000000        0.321676         1    ;  uncertainty k = 1.335916
        15         3         4        60     9      180.000000        8.756952         2    ;  uncertainty k = 0.795864
        15         3         4        60     9        0.000000        1.045736         3    ;  uncertainty k = 0.450898
        15         3         4        60     9      180.000000        0.421566         4    ;  uncertainty k = 0.219775
        15        16        17        18     9        0.000000        1.059079         1    ;  uncertainty k = 1.014202
        15        16        17        18     9      180.000000        5.627772         2    ;  uncertainty k = 0.630114
        15        16        17        18     9        0.000000        1.141451         3    ;  uncertainty k = 0.384827
        15        16        17        18     9      180.000000        0.280523         4    ;  uncertainty k = 0.177836
        15        16        17        19     9        0.000000        1.059079         1    ;  uncertainty k = 1.014202
        15        16        17        19     9      180.000000        5.627772         2    ;  uncertainty k = 0.630114
        15        16        17        19     9        0.000000        1.141451         3    ;  uncertainty k = 0.384827
        15        16        17        19     9      180.000000        0.280523         4    ;  uncertainty k = 0.177836
        18        17        16        41     9        0.000000       -2.412631         1    ;  uncertainty k = 1.098362
        18        17        16        41     9      180.000000        1.787674         2    ;  uncertainty k = 0.641088
        18        17        16        41     9        0.000000        0.823300         3    ;  uncertainty k = 0.200515
        18        17        16        41     9      180.000000        0.236198         4    ;  uncertainty k = 0.095876
        18        17        16        42     9        0.000000       -2.412631         1    ;  uncertainty k = 1.098362
        18        17        16        42     9      180.000000        1.787674         2    ;  uncertainty k = 0.641088
        18        17        16        42     9        0.000000        0.823300         3    ;  uncertainty k = 0.200515
        18        17        16        42     9      180.000000        0.236198         4    ;  uncertainty k = 0.095876
        19        17        16        41     9        0.000000       -2.412631         1    ;  uncertainty k = 1.098362
        19        17        16        41     9      180.000000        1.787674         2    ;  uncertainty k = 0.641088
        19        17        16        41     9        0.000000        0.823300         3    ;  uncertainty k = 0.200515
        19        17        16        41     9      180.000000        0.236198         4    ;  uncertainty k = 0.095876
        19        17        16        42     9        0.000000       -2.412631         1    ;  uncertainty k = 1.098362
        19        17        16        42     9      180.000000        1.787674         2    ;  uncertainty k = 0.641088
        19        17        16        42     9        0.000000        0.823300         3    ;  uncertainty k = 0.200515
        19        17        16        42     9      180.000000        0.236198         4    ;  uncertainty k = 0.095876
        20        11        10        37     9        0.000000       -0.335865         1    ;  uncertainty k = 0.166109
        20        11        10        37     9      180.000000        7.370478         2    ;  uncertainty k = 0.475144
        20        11        10        37     9        0.000000        0.903112         3    ;  uncertainty k = 0.200304
        20        11        10        37     9      180.000000        1.097626         4    ;  uncertainty k = 0.202097
        20        11        12        38     9        0.000000       -0.208112         1    ;  uncertainty k = 0.295706
        20        11        12        38     9      180.000000        7.253053         2    ;  uncertainty k = 0.347875
        20        11        12        38     9        0.000000        0.951981         3    ;  uncertainty k = 0.279935
        20        11        12        38     9      180.000000        1.062878         4    ;  uncertainty k = 0.186193
        20        21        22        23     9        0.000000       -5.136098         1    ;  uncertainty k = 1.043848
        20        21        22        23     9      180.000000       -0.051193         2    ;  uncertainty k = 0.439582
        20        21        22        23     9        0.000000        1.238893         3    ;  uncertainty k = 0.245171
        20        21        22        23     9      180.000000       -0.144028         4    ;  uncertainty k = 0.066282
        20        21        22        45     9        0.000000       -0.535460         1    ;  uncertainty k = 0.150632
        20        21        22        45     9      180.000000       -0.364854         2    ;  uncertainty k = 0.186150
        20        21        22        45     9        0.000000        1.179605         3    ;  uncertainty k = 0.213686
        20        21        22        45     9      180.000000       -0.153264         4    ;  uncertainty k = 0.061851
        20        21        22        46     9        0.000000       -0.535460         1    ;  uncertainty k = 0.150632
        20        21        22        46     9      180.000000       -0.364854         2    ;  uncertainty k = 0.186150
        20        21        22        46     9        0.000000        1.179605         3    ;  uncertainty k = 0.213686
        20        21        22        46     9      180.000000       -0.153264         4    ;  uncertainty k = 0.061851
        20        21        26        25     9        0.000000       -5.136098         1    ;  uncertainty k = 1.043848
        20        21        26        25     9      180.000000       -0.051193         2    ;  uncertainty k = 0.439582
        20        21        26        25     9        0.000000        1.238893         3    ;  uncertainty k = 0.245171
        20        21        26        25     9      180.000000       -0.144028         4    ;  uncertainty k = 0.066282
        20        21        26        51     9        0.000000       -0.535460         1    ;  uncertainty k = 0.150632
        20        21        26        51     9      180.000000       -0.364854         2    ;  uncertainty k = 0.186150
        20        21        26        51     9        0.000000        1.179605         3    ;  uncertainty k = 0.213686
        20        21        26        51     9      180.000000       -0.153264         4    ;  uncertainty k = 0.061851
        20        21        26        52     9        0.000000       -0.535460         1    ;  uncertainty k = 0.150632
        20        21        26        52     9      180.000000       -0.364854         2    ;  uncertainty k = 0.186150
        20        21        26        52     9        0.000000        1.179605         3    ;  uncertainty k = 0.213686
        20        21        26        52     9      180.000000       -0.153264         4    ;  uncertainty k = 0.061851
        21        22        23        24     9        0.000000       -0.148847         1    ;  uncertainty k = 0.397834
        21        22        23        24     9      180.000000       -4.571385         2    ;  uncertainty k = 1.019097
        21        22        23        24     9        0.000000        2.114453         3    ;  uncertainty k = 0.368217
        21        22        23        24     9      180.000000       -0.488533         4    ;  uncertainty k = 0.117256
        21        22        23        47     9        0.000000        2.785845         1    ;  uncertainty k = 0.530042
        21        22        23        47     9      180.000000       -2.330233         2    ;  uncertainty k = 0.276082
        21        22        23        47     9        0.000000       -0.079434         3    ;  uncertainty k = 0.175618
        21        22        23        47     9      180.000000        0.352534         4    ;  uncertainty k = 0.135804
        21        22        23        48     9        0.000000        2.785845         1    ;  uncertainty k = 0.530042
        21        22        23        48     9      180.000000       -2.330233         2    ;  uncertainty k = 0.276082
        21        22        23        48     9        0.000000       -0.079434         3    ;  uncertainty k = 0.175618
        21        22        23        48     9      180.000000        0.352534         4    ;  uncertainty k = 0.135804
        21        26        25        24     9        0.000000       -0.148847         1    ;  uncertainty k = 0.397834
        21        26        25        24     9      180.000000       -4.571385         2    ;  uncertainty k = 1.019097
        21        26        25        24     9        0.000000        2.114453         3    ;  uncertainty k = 0.368217
        21        26        25        24     9      180.000000       -0.488533         4    ;  uncertainty k = 0.117256
        21        26        25        49     9        0.000000        2.785845         1    ;  uncertainty k = 0.530042
        21        26        25        49     9      180.000000       -2.330233         2    ;  uncertainty k = 0.276082
        21        26        25        49     9        0.000000       -0.079434         3    ;  uncertainty k = 0.175618
        21        26        25        49     9      180.000000        0.352534         4    ;  uncertainty k = 0.135804
        21        26        25        50     9        0.000000        2.785845         1    ;  uncertainty k = 0.530042
        21        26        25        50     9      180.000000       -2.330233         2    ;  uncertainty k = 0.276082
        21        26        25        50     9        0.000000       -0.079434         3    ;  uncertainty k = 0.175618
        21        26        25        50     9      180.000000        0.352534         4    ;  uncertainty k = 0.135804
        22        21        20        43     9        0.000000        2.841835         1    ;  uncertainty k = 0.368019
        22        21        20        43     9      180.000000       -1.817583         2    ;  uncertainty k = 0.255149
        22        21        20        43     9        0.000000        0.197702         3    ;  uncertainty k = 0.122169
        22        21        20        43     9      180.000000        0.111128         4    ;  uncertainty k = 0.094779
        22        21        26        25     9        0.000000       -7.398289         1    ;  uncertainty k = 1.114205
        22        21        26        25     9      180.000000        0.772994         2    ;  uncertainty k = 0.787748
        22        21        26        25     9        0.000000        1.284273         3    ;  uncertainty k = 0.148211
        22        21        26        25     9      180.000000       -1.372294         4    ;  uncertainty k = 0.205237
        22        21        26        51     9        0.000000       -1.844686         1    ;  uncertainty k = 0.323911
        22        21        26        51     9      180.000000       -0.032260         2    ;  uncertainty k = 0.103578
        22        21        26        51     9        0.000000        0.269779         3    ;  uncertainty k = 0.112380
        22        21        26        51     9      180.000000       -0.144836         4    ;  uncertainty k = 0.053686
        22        21        26        52     9        0.000000       -1.844686         1    ;  uncertainty k = 0.323911
        22        21        26        52     9      180.000000       -0.032260         2    ;  uncertainty k = 0.103578
        22        21        26        52     9        0.000000        0.269779         3    ;  uncertainty k = 0.112380
        22        21        26        52     9      180.000000       -0.144836         4    ;  uncertainty k = 0.053686
        22        23        24        25     9        0.000000       -4.088458         1    ;  uncertainty k = 1.867282
        22        23        24        25     9      180.000000        0.889714         2    ;  uncertainty k = 0.667890
        22        23        24        25     9        0.000000        0.584557         3    ;  uncertainty k = 0.291659
        22        23        24        25     9      180.000000       -0.636593         4    ;  uncertainty k = 0.223033
        22        23        24        27     9        0.000000       -7.348500         1    ;  uncertainty k = 0.834720
        22        23        24        27     9      180.000000       -1.724542         2    ;  uncertainty k = 0.551083
        22        23        24        27     9        0.000000       -0.216030         3    ;  uncertainty k = 0.339972
        22        23        24        27     9      180.000000       -0.827606         4    ;  uncertainty k = 0.173862
        23        22        21        26     9        0.000000       -7.398289         1    ;  uncertainty k = 1.114205
        23        22        21        26     9      180.000000        0.772994         2    ;  uncertainty k = 0.787748
        23        22        21        26     9        0.000000        1.284273         3    ;  uncertainty k = 0.148211
        23        22        21        26     9      180.000000       -1.372294         4    ;  uncertainty k = 0.205237
        23        22        21        44     9        0.000000       -1.489834         1    ;  uncertainty k = 0.498262
        23        22        21        44     9      180.000000       -0.726861         2    ;  uncertainty k = 0.320028
        23        22        21        44     9        0.000000        0.084383         3    ;  uncertainty k = 0.138187
        23        22        21        44     9      180.000000       -0.160514         4    ;  uncertainty k = 0.093764
        23        24        25        26     9        0.000000       -4.088458         1    ;  uncertainty k = 1.867282
        23        24        25        26     9      180.000000        0.889714         2    ;  uncertainty k = 0.667890
        23        24        25        26     9        0.000000        0.584557         3    ;  uncertainty k = 0.291659
        23        24        25        26     9      180.000000       -0.636593         4    ;  uncertainty k = 0.223033
        23        24        25        49     9        0.000000       -6.211466         1    ;  uncertainty k = 0.401821
        23        24        25        49     9      180.000000        0.273829         2    ;  uncertainty k = 0.303792
        23        24        25        49     9        0.000000        0.752021         3    ;  uncertainty k = 0.192836
        23        24        25        49     9      180.000000       -0.002512         4    ;  uncertainty k = 0.021259
        23        24        25        50     9        0.000000       -6.211466         1    ;  uncertainty k = 0.401821
        23        24        25        50     9      180.000000        0.273829         2    ;  uncertainty k = 0.303792
        23        24        25        50     9        0.000000        0.752021         3    ;  uncertainty k = 0.192836
        23        24        25        50     9      180.000000       -0.002512         4    ;  uncertainty k = 0.021259
        23        24        27        28     9        0.000000        1.270237         1    ;  uncertainty k = 0.500475
        23        24        27        28     9      180.000000        2.505361         2    ;  uncertainty k = 0.401482
        23        24        27        28     9        0.000000        0.779609         3    ;  uncertainty k = 0.159997
        23        24        27        28     9      180.000000       -0.308889         4    ;  uncertainty k = 0.140057
        23        24        27        29     9        0.000000        1.270237         1    ;  uncertainty k = 0.500475
        23        24        27        29     9      180.000000        2.505361         2    ;  uncertainty k = 0.401482
        23        24        27        29     9        0.000000        0.779609         3    ;  uncertainty k = 0.159997
        23        24        27        29     9      180.000000       -0.308889         4    ;  uncertainty k = 0.140057
        23        24        27        30     9        0.000000       -7.549010         1    ;  uncertainty k = 0.541322
        23        24        27        30     9      180.000000       -2.996510         2    ;  uncertainty k = 0.664699
        23        24        27        30     9        0.000000       -0.101282         3    ;  uncertainty k = 0.314563
        23        24        27        30     9      180.000000       -0.343229         4    ;  uncertainty k = 0.158947
        24        23        22        45     9        0.000000       -0.852861         1    ;  uncertainty k = 0.235199
        24        23        22        45     9      180.000000       -0.179849         2    ;  uncertainty k = 0.440860
        24        23        22        45     9        0.000000        0.882203         3    ;  uncertainty k = 0.149383
        24        23        22        45     9      180.000000       -0.285173         4    ;  uncertainty k = 0.185067
        24        23        22        46     9        0.000000       -0.852861         1    ;  uncertainty k = 0.235199
        24        23        22        46     9      180.000000       -0.179849         2    ;  uncertainty k = 0.440860
        24        23        22        46     9        0.000000        0.882203         3    ;  uncertainty k = 0.149383
        24        23        22        46     9      180.000000       -0.285173         4    ;  uncertainty k = 0.185067
        24        25        26        51     9        0.000000       -0.852861         1    ;  uncertainty k = 0.235199
        24        25        26        51     9      180.000000       -0.179849         2    ;  uncertainty k = 0.440860
        24        25        26        51     9        0.000000        0.882203         3    ;  uncertainty k = 0.149383
        24        25        26        51     9      180.000000       -0.285173         4    ;  uncertainty k = 0.185067
        24        25        26        52     9        0.000000       -0.852861         1    ;  uncertainty k = 0.235199
        24        25        26        52     9      180.000000       -0.179849         2    ;  uncertainty k = 0.440860
        24        25        26        52     9        0.000000        0.882203         3    ;  uncertainty k = 0.149383
        24        25        26        52     9      180.000000       -0.285173         4    ;  uncertainty k = 0.185067
        24        27        30        31     9        0.000000       -2.103207         1    ;  uncertainty k = 0.645315
        24        27        30        31     9      180.000000        0.538217         2    ;  uncertainty k = 0.647124
        24        27        30        31     9        0.000000        0.746804         3    ;  uncertainty k = 0.323280
        24        27        30        31     9      180.000000       -0.042398         4    ;  uncertainty k = 0.164024
        24        27        30        53     9        0.000000        1.729671         1    ;  uncertainty k = 0.676531
        24        27        30        53     9      180.000000       -1.483246         2    ;  uncertainty k = 0.373232
        24        27        30        53     9        0.000000        0.248175         3    ;  uncertainty k = 0.195062
        24        27        30        53     9      180.000000        0.016534         4    ;  uncertainty k = 0.061632
        24        27        30        54     9        0.000000        1.729671         1    ;  uncertainty k = 0.676531
        24        27        30        54     9      180.000000       -1.483246         2    ;  uncertainty k = 0.373232
        24        27        30        54     9        0.000000        0.248175         3    ;  uncertainty k = 0.195062
        24        27        30        54     9      180.000000        0.016534         4    ;  uncertainty k = 0.061632
        25        24        23        47     9        0.000000       -6.211466         1    ;  uncertainty k = 0.401821
        25        24        23        47     9      180.000000        0.273829         2    ;  uncertainty k = 0.303792
        25        24        23        47     9        0.000000        0.752021         3    ;  uncertainty k = 0.192836
        25        24        23        47     9      180.000000       -0.002512         4    ;  uncertainty k = 0.021259
        25        24        23        48     9        0.000000       -6.211466         1    ;  uncertainty k = 0.401821
        25        24        23        48     9      180.000000        0.273829         2    ;  uncertainty k = 0.303792
        25        24        23        48     9        0.000000        0.752021         3    ;  uncertainty k = 0.192836
        25        24        23        48     9      180.000000       -0.002512         4    ;  uncertainty k = 0.021259
        25        24        27        28     9        0.000000        1.270237         1    ;  uncertainty k = 0.500475
        25        24        27        28     9      180.000000        2.505361         2    ;  uncertainty k = 0.401482
        25        24        27        28     9        0.000000        0.779609         3    ;  uncertainty k = 0.159997
        25        24        27        28     9      180.000000       -0.308889         4    ;  uncertainty k = 0.140057
        25        24        27        29     9        0.000000        1.270237         1    ;  uncertainty k = 0.500475
        25        24        27        29     9      180.000000        2.505361         2    ;  uncertainty k = 0.401482
        25        24        27        29     9        0.000000        0.779609         3    ;  uncertainty k = 0.159997
        25        24        27        29     9      180.000000       -0.308889         4    ;  uncertainty k = 0.140057
        25        24        27        30     9        0.000000       -7.549010         1    ;  uncertainty k = 0.541322
        25        24        27        30     9      180.000000       -2.996510         2    ;  uncertainty k = 0.664699
        25        24        27        30     9        0.000000       -0.101282         3    ;  uncertainty k = 0.314563
        25        24        27        30     9      180.000000       -0.343229         4    ;  uncertainty k = 0.158947
        25        26        21        44     9        0.000000       -1.489834         1    ;  uncertainty k = 0.498262
        25        26        21        44     9      180.000000       -0.726861         2    ;  uncertainty k = 0.320028
        25        26        21        44     9        0.000000        0.084383         3    ;  uncertainty k = 0.138187
        25        26        21        44     9      180.000000       -0.160514         4    ;  uncertainty k = 0.093764
        26        21        20        43     9        0.000000        2.841835         1    ;  uncertainty k = 0.368019
        26        21        20        43     9      180.000000       -1.817583         2    ;  uncertainty k = 0.255149
        26        21        20        43     9        0.000000        0.197702         3    ;  uncertainty k = 0.122169
        26        21        20        43     9      180.000000        0.111128         4    ;  uncertainty k = 0.094779
        26        21        22        45     9        0.000000       -1.844686         1    ;  uncertainty k = 0.323911
        26        21        22        45     9      180.000000       -0.032260         2    ;  uncertainty k = 0.103578
        26        21        22        45     9        0.000000        0.269779         3    ;  uncertainty k = 0.112380
        26        21        22        45     9      180.000000       -0.144836         4    ;  uncertainty k = 0.053686
        26        21        22        46     9        0.000000       -1.844686         1    ;  uncertainty k = 0.323911
        26        21        22        46     9      180.000000       -0.032260         2    ;  uncertainty k = 0.103578
        26        21        22        46     9        0.000000        0.269779         3    ;  uncertainty k = 0.112380
        26        21        22        46     9      180.000000       -0.144836         4    ;  uncertainty k = 0.053686
        26        25        24        27     9        0.000000       -7.348500         1    ;  uncertainty k = 0.834720
        26        25        24        27     9      180.000000       -1.724542         2    ;  uncertainty k = 0.551083
        26        25        24        27     9        0.000000       -0.216030         3    ;  uncertainty k = 0.339972
        26        25        24        27     9      180.000000       -0.827606         4    ;  uncertainty k = 0.173862
        27        24        23        47     9        0.000000        0.216597         1    ;  uncertainty k = 0.387098
        27        24        23        47     9      180.000000       -3.233432         2    ;  uncertainty k = 0.278301
        27        24        23        47     9        0.000000       -0.390106         3    ;  uncertainty k = 0.180329
        27        24        23        47     9      180.000000        0.207073         4    ;  uncertainty k = 0.075818
        27        24        23        48     9        0.000000        0.216597         1    ;  uncertainty k = 0.387098
        27        24        23        48     9      180.000000       -3.233432         2    ;  uncertainty k = 0.278301
        27        24        23        48     9        0.000000       -0.390106         3    ;  uncertainty k = 0.180329
        27        24        23        48     9      180.000000        0.207073         4    ;  uncertainty k = 0.075818
        27        24        25        49     9        0.000000        0.216597         1    ;  uncertainty k = 0.387098
        27        24        25        49     9      180.000000       -3.233432         2    ;  uncertainty k = 0.278301
        27        24        25        49     9        0.000000       -0.390106         3    ;  uncertainty k = 0.180329
        27        24        25        49     9      180.000000        0.207073         4    ;  uncertainty k = 0.075818
        27        24        25        50     9        0.000000        0.216597         1    ;  uncertainty k = 0.387098
        27        24        25        50     9      180.000000       -3.233432         2    ;  uncertainty k = 0.278301
        27        24        25        50     9        0.000000       -0.390106         3    ;  uncertainty k = 0.180329
        27        24        25        50     9      180.000000        0.207073         4    ;  uncertainty k = 0.075818
        27        30        31        32     9        0.000000       -0.508671         1    ;  uncertainty k = 0.400327
        27        30        31        32     9      180.000000        0.109861         2    ;  uncertainty k = 0.292575
        27        30        31        32     9        0.000000        0.489267         3    ;  uncertainty k = 0.148326
        27        30        31        32     9      180.000000        0.136143         4    ;  uncertainty k = 0.161357
        27        30        31        36     9        0.000000       -0.508671         1    ;  uncertainty k = 0.400327
        27        30        31        36     9      180.000000        0.109861         2    ;  uncertainty k = 0.292575
        27        30        31        36     9        0.000000        0.489267         3    ;  uncertainty k = 0.148326
        27        30        31        36     9      180.000000        0.136143         4    ;  uncertainty k = 0.161357
        28        27        30        31     9        0.000000       -3.517773         1    ;  uncertainty k = 0.508402
        28        27        30        31     9      180.000000        1.057358         2    ;  uncertainty k = 0.169990
        28        27        30        31     9        0.000000        0.875046         3    ;  uncertainty k = 0.164735
        28        27        30        31     9      180.000000       -0.037433         4    ;  uncertainty k = 0.176839
        28        27        30        53     9        0.000000        0.274046         1    ;  uncertainty k = 0.457905
        28        27        30        53     9      180.000000       -0.270909         2    ;  uncertainty k = 0.108223
        28        27        30        53     9        0.000000        0.500037         3    ;  uncertainty k = 0.075726
        28        27        30        53     9      180.000000        0.120953         4    ;  uncertainty k = 0.061549
        28        27        30        54     9        0.000000        0.274046         1    ;  uncertainty k = 0.457905
        28        27        30        54     9      180.000000       -0.270909         2    ;  uncertainty k = 0.108223
        28        27        30        54     9        0.000000        0.500037         3    ;  uncertainty k = 0.075726
        28        27        30        54     9      180.000000        0.120953         4    ;  uncertainty k = 0.061549
        29        27        30        31     9        0.000000       -3.517773         1    ;  uncertainty k = 0.508402
        29        27        30        31     9      180.000000        1.057358         2    ;  uncertainty k = 0.169990
        29        27        30        31     9        0.000000        0.875046         3    ;  uncertainty k = 0.164735
        29        27        30        31     9      180.000000       -0.037433         4    ;  uncertainty k = 0.176839
        29        27        30        53     9        0.000000        0.274046         1    ;  uncertainty k = 0.457905
        29        27        30        53     9      180.000000       -0.270909         2    ;  uncertainty k = 0.108223
        29        27        30        53     9        0.000000        0.500037         3    ;  uncertainty k = 0.075726
        29        27        30        53     9      180.000000        0.120953         4    ;  uncertainty k = 0.061549
        29        27        30        54     9        0.000000        0.274046         1    ;  uncertainty k = 0.457905
        29        27        30        54     9      180.000000       -0.270909         2    ;  uncertainty k = 0.108223
        29        27        30        54     9        0.000000        0.500037         3    ;  uncertainty k = 0.075726
        29        27        30        54     9      180.000000        0.120953         4    ;  uncertainty k = 0.061549
        30        31        32        33     9        0.000000        0.029691         1    ;  uncertainty k = 0.134748
        30        31        32        33     9      180.000000        9.540094         2    ;  uncertainty k = 0.393169
        30        31        32        33     9        0.000000        1.316637         3    ;  uncertainty k = 0.160709
        30        31        32        33     9      180.000000        1.781504         4    ;  uncertainty k = 0.172287
        30        31        32        55     9        0.000000       -0.192139         1    ;  uncertainty k = 0.488988
        30        31        32        55     9      180.000000        7.818156         2    ;  uncertainty k = 0.131520
        30        31        32        55     9        0.000000        0.488756         3    ;  uncertainty k = 0.323898
        30        31        32        55     9      180.000000        0.963453         4    ;  uncertainty k = 0.223176
        30        31        36        35     9        0.000000        0.029691         1    ;  uncertainty k = 0.134748
        30        31        36        35     9      180.000000        9.540094         2    ;  uncertainty k = 0.393169
        30        31        36        35     9        0.000000        1.316637         3    ;  uncertainty k = 0.160709
        30        31        36        35     9      180.000000        1.781504         4    ;  uncertainty k = 0.172287
        30        31        36        59     9        0.000000       -0.192139         1    ;  uncertainty k = 0.488988
        30        31        36        59     9      180.000000        7.818156         2    ;  uncertainty k = 0.131520
        30        31        36        59     9        0.000000        0.488756         3    ;  uncertainty k = 0.323898
        30        31        36        59     9      180.000000        0.963453         4    ;  uncertainty k = 0.223176
        31        32        33        34     9        0.000000       -0.141405         1    ;  uncertainty k = 0.080074
        31        32        33        34     9      180.000000       14.211439         2    ;  uncertainty k = 0.296513
        31        32        33        34     9        0.000000       -0.909381         3    ;  uncertainty k = 0.407921
        31        32        33        34     9      180.000000        0.696824         4    ;  uncertainty k = 0.203750
        31        32        33        56     9        0.000000        0.040951         1    ;  uncertainty k = 0.256241
        31        32        33        56     9      180.000000        7.906327         2    ;  uncertainty k = 0.275548
        31        32        33        56     9        0.000000        1.455980         3    ;  uncertainty k = 0.278750
        31        32        33        56     9      180.000000        1.767703         4    ;  uncertainty k = 0.078271
        31        36        35        34     9        0.000000       -0.141405         1    ;  uncertainty k = 0.080074
        31        36        35        34     9      180.000000       14.211439         2    ;  uncertainty k = 0.296513
        31        36        35        34     9        0.000000       -0.909381         3    ;  uncertainty k = 0.407921
        31        36        35        34     9      180.000000        0.696824         4    ;  uncertainty k = 0.203750
        31        36        35        58     9        0.000000        0.040951         1    ;  uncertainty k = 0.256241
        31        36        35        58     9      180.000000        7.906327         2    ;  uncertainty k = 0.275548
        31        36        35        58     9        0.000000        1.455980         3    ;  uncertainty k = 0.278750
        31        36        35        58     9      180.000000        1.767703         4    ;  uncertainty k = 0.078271
        32        31        30        53     9        0.000000       -0.670198         1    ;  uncertainty k = 0.310313
        32        31        30        53     9      180.000000        2.335620         2    ;  uncertainty k = 0.290355
        32        31        30        53     9        0.000000        0.573185         3    ;  uncertainty k = 0.091459
        32        31        30        53     9      180.000000        0.141123         4    ;  uncertainty k = 0.051500
        32        31        30        54     9        0.000000       -0.670198         1    ;  uncertainty k = 0.310313
        32        31        30        54     9      180.000000        2.335620         2    ;  uncertainty k = 0.290355
        32        31        30        54     9        0.000000        0.573185         3    ;  uncertainty k = 0.091459
        32        31        30        54     9      180.000000        0.141123         4    ;  uncertainty k = 0.051500
        32        31        36        35     9        0.000000       -0.274200         1    ;  uncertainty k = 0.155012
        32        31        36        35     9      180.000000       12.419941         2    ;  uncertainty k = 0.367621
        32        31        36        35     9        0.000000       -0.613983         3    ;  uncertainty k = 0.363169
        32        31        36        35     9      180.000000        0.748134         4    ;  uncertainty k = 0.335220
        32        31        36        59     9        0.000000        0.235684         1    ;  uncertainty k = 0.179119
        32        31        36        59     9      180.000000        7.335105         2    ;  uncertainty k = 0.512439
        32        31        36        59     9        0.000000        1.444830         3    ;  uncertainty k = 0.318985
        32        31        36        59     9      180.000000        1.632138         4    ;  uncertainty k = 0.184799
        32        33        34        35     9        0.000000       -0.024061         1    ;  uncertainty k = 0.037887
        32        33        34        35     9      180.000000       15.000372         2    ;  uncertainty k = 0.295768
        32        33        34        35     9        0.000000       -1.149710         3    ;  uncertainty k = 0.449579
        32        33        34        35     9      180.000000        0.517636         4    ;  uncertainty k = 0.267684
        32        33        34        57     9        0.000000        0.006545         1    ;  uncertainty k = 0.122113
        32        33        34        57     9      180.000000        7.490839         2    ;  uncertainty k = 0.284308
        32        33        34        57     9        0.000000        1.487446         3    ;  uncertainty k = 0.291683
        32        33        34        57     9      180.000000        1.788809         4    ;  uncertainty k = 0.187633
        33        32        31        36     9        0.000000       -0.274200         1    ;  uncertainty k = 0.155012
        33        32        31        36     9      180.000000       12.419941         2    ;  uncertainty k = 0.367621
        33        32        31        36     9        0.000000       -0.613983         3    ;  uncertainty k = 0.363169
        33        32        31        36     9      180.000000        0.748134         4    ;  uncertainty k = 0.335220
        33        34        35        36     9        0.000000       -0.024061         1    ;  uncertainty k = 0.037887
        33        34        35        36     9      180.000000       15.000372         2    ;  uncertainty k = 0.295768
        33        34        35        36     9        0.000000       -1.149710         3    ;  uncertainty k = 0.449579
        33        34        35        36     9      180.000000        0.517636         4    ;  uncertainty k = 0.267684
        33        34        35        58     9        0.000000        0.055135         1    ;  uncertainty k = 0.036562
        33        34        35        58     9      180.000000        7.569523         2    ;  uncertainty k = 0.317634
        33        34        35        58     9        0.000000        1.452465         3    ;  uncertainty k = 0.319971
        33        34        35        58     9      180.000000        1.800290         4    ;  uncertainty k = 0.152963
        34        33        32        55     9        0.000000        0.056452         1    ;  uncertainty k = 0.065580
        34        33        32        55     9      180.000000        7.913053         2    ;  uncertainty k = 0.295561
        34        33        32        55     9        0.000000        1.417120         3    ;  uncertainty k = 0.293002
        34        33        32        55     9      180.000000        1.854041         4    ;  uncertainty k = 0.169678
        34        35        36        59     9        0.000000        0.056452         1    ;  uncertainty k = 0.065580
        34        35        36        59     9      180.000000        7.913053         2    ;  uncertainty k = 0.295561
        34        35        36        59     9        0.000000        1.417120         3    ;  uncertainty k = 0.293002
        34        35        36        59     9      180.000000        1.854041         4    ;  uncertainty k = 0.169678
        35        34        33        56     9        0.000000        0.055135         1    ;  uncertainty k = 0.036562
        35        34        33        56     9      180.000000        7.569523         2    ;  uncertainty k = 0.317634
        35        34        33        56     9        0.000000        1.452465         3    ;  uncertainty k = 0.319971
        35        34        33        56     9      180.000000        1.800290         4    ;  uncertainty k = 0.152963
        36        31        30        53     9        0.000000       -0.670198         1    ;  uncertainty k = 0.310313
        36        31        30        53     9      180.000000        2.335620         2    ;  uncertainty k = 0.290355
        36        31        30        53     9        0.000000        0.573185         3    ;  uncertainty k = 0.091459
        36        31        30        53     9      180.000000        0.141123         4    ;  uncertainty k = 0.051500
        36        31        30        54     9        0.000000       -0.670198         1    ;  uncertainty k = 0.310313
        36        31        30        54     9      180.000000        2.335620         2    ;  uncertainty k = 0.290355
        36        31        30        54     9        0.000000        0.573185         3    ;  uncertainty k = 0.091459
        36        31        30        54     9      180.000000        0.141123         4    ;  uncertainty k = 0.051500
        36        31        32        55     9        0.000000        0.235684         1    ;  uncertainty k = 0.179119
        36        31        32        55     9      180.000000        7.335105         2    ;  uncertainty k = 0.512439
        36        31        32        55     9        0.000000        1.444830         3    ;  uncertainty k = 0.318985
        36        31        32        55     9      180.000000        1.632138         4    ;  uncertainty k = 0.184799
        36        35        34        57     9        0.000000        0.006545         1    ;  uncertainty k = 0.122113
        36        35        34        57     9      180.000000        7.490839         2    ;  uncertainty k = 0.284308
        36        35        34        57     9        0.000000        1.487446         3    ;  uncertainty k = 0.291683
        36        35        34        57     9      180.000000        1.788809         4    ;  uncertainty k = 0.187633
        38        12        13        39     9        0.000000       -0.030964         1    ;  uncertainty k = 0.241397
        38        12        13        39     9      180.000000        7.640900         2    ;  uncertainty k = 0.355361
        38        12        13        39     9        0.000000       -0.381487         3    ;  uncertainty k = 0.259502
        38        12        13        39     9      180.000000        0.184223         4    ;  uncertainty k = 0.153158
        39        13        14        40     9        0.000000       -0.041889         1    ;  uncertainty k = 0.247030
        39        13        14        40     9      180.000000        7.655804         2    ;  uncertainty k = 0.383512
        39        13        14        40     9        0.000000       -0.441371         3    ;  uncertainty k = 0.291898
        39        13        14        40     9      180.000000        0.122865         4    ;  uncertainty k = 0.120293
        43        20        21        44     9        0.000000        1.900511         1    ;  uncertainty k = 0.549901
        43        20        21        44     9      180.000000       -3.254433         2    ;  uncertainty k = 0.371707
        43        20        21        44     9        0.000000       -0.041544         3    ;  uncertainty k = 0.134753
        43        20        21        44     9      180.000000        0.164363         4    ;  uncertainty k = 0.065312
        44        21        22        45     9        0.000000        1.424511         1    ;  uncertainty k = 0.552611
        44        21        22        45     9      180.000000       -0.379491         2    ;  uncertainty k = 0.197817
        44        21        22        45     9        0.000000        0.015021         3    ;  uncertainty k = 0.104245
        44        21        22        45     9      180.000000        0.051316         4    ;  uncertainty k = 0.025024
        44        21        22        46     9        0.000000        1.424511         1    ;  uncertainty k = 0.552611
        44        21        22        46     9      180.000000       -0.379491         2    ;  uncertainty k = 0.197817
        44        21        22        46     9        0.000000        0.015021         3    ;  uncertainty k = 0.104245
        44        21        22        46     9      180.000000        0.051316         4    ;  uncertainty k = 0.025024
        44        21        26        51     9        0.000000        1.424511         1    ;  uncertainty k = 0.552611
        44        21        26        51     9      180.000000       -0.379491         2    ;  uncertainty k = 0.197817
        44        21        26        51     9        0.000000        0.015021         3    ;  uncertainty k = 0.104245
        44        21        26        51     9      180.000000        0.051316         4    ;  uncertainty k = 0.025024
        44        21        26        52     9        0.000000        1.424511         1    ;  uncertainty k = 0.552611
        44        21        26        52     9      180.000000       -0.379491         2    ;  uncertainty k = 0.197817
        44        21        26        52     9        0.000000        0.015021         3    ;  uncertainty k = 0.104245
        44        21        26        52     9      180.000000        0.051316         4    ;  uncertainty k = 0.025024
        45        22        23        47     9        0.000000       -0.035997         1    ;  uncertainty k = 0.290447
        45        22        23        47     9      180.000000        0.482516         2    ;  uncertainty k = 0.352023
        45        22        23        47     9        0.000000        0.104594         3    ;  uncertainty k = 0.074944
        45        22        23        47     9      180.000000       -0.250465         4    ;  uncertainty k = 0.095361
        45        22        23        48     9        0.000000       -0.035997         1    ;  uncertainty k = 0.290447
        45        22        23        48     9      180.000000        0.482516         2    ;  uncertainty k = 0.352023
        45        22        23        48     9        0.000000        0.104594         3    ;  uncertainty k = 0.074944
        45        22        23        48     9      180.000000       -0.250465         4    ;  uncertainty k = 0.095361
        46        22        23        47     9        0.000000       -0.035997         1    ;  uncertainty k = 0.290447
        46        22        23        47     9      180.000000        0.482516         2    ;  uncertainty k = 0.352023
        46        22        23        47     9        0.000000        0.104594         3    ;  uncertainty k = 0.074944
        46        22        23        47     9      180.000000       -0.250465         4    ;  uncertainty k = 0.095361
        46        22        23        48     9        0.000000       -0.035997         1    ;  uncertainty k = 0.290447
        46        22        23        48     9      180.000000        0.482516         2    ;  uncertainty k = 0.352023
        46        22        23        48     9        0.000000        0.104594         3    ;  uncertainty k = 0.074944
        46        22        23        48     9      180.000000       -0.250465         4    ;  uncertainty k = 0.095361
        49        25        26        51     9        0.000000       -0.035997         1    ;  uncertainty k = 0.290447
        49        25        26        51     9      180.000000        0.482516         2    ;  uncertainty k = 0.352023
        49        25        26        51     9        0.000000        0.104594         3    ;  uncertainty k = 0.074944
        49        25        26        51     9      180.000000       -0.250465         4    ;  uncertainty k = 0.095361
        49        25        26        52     9        0.000000       -0.035997         1    ;  uncertainty k = 0.290447
        49        25        26        52     9      180.000000        0.482516         2    ;  uncertainty k = 0.352023
        49        25        26        52     9        0.000000        0.104594         3    ;  uncertainty k = 0.074944
        49        25        26        52     9      180.000000       -0.250465         4    ;  uncertainty k = 0.095361
        50        25        26        51     9        0.000000       -0.035997         1    ;  uncertainty k = 0.290447
        50        25        26        51     9      180.000000        0.482516         2    ;  uncertainty k = 0.352023
        50        25        26        51     9        0.000000        0.104594         3    ;  uncertainty k = 0.074944
        50        25        26        51     9      180.000000       -0.250465         4    ;  uncertainty k = 0.095361
        50        25        26        52     9        0.000000       -0.035997         1    ;  uncertainty k = 0.290447
        50        25        26        52     9      180.000000        0.482516         2    ;  uncertainty k = 0.352023
        50        25        26        52     9        0.000000        0.104594         3    ;  uncertainty k = 0.074944
        50        25        26        52     9      180.000000       -0.250465         4    ;  uncertainty k = 0.095361
        55        32        33        56     9        0.000000       -0.057002         1    ;  uncertainty k = 0.102498
        55        32        33        56     9      180.000000        7.749801         2    ;  uncertainty k = 0.346074
        55        32        33        56     9        0.000000       -0.473069         3    ;  uncertainty k = 0.287088
        55        32        33        56     9      180.000000        0.087408         4    ;  uncertainty k = 0.115760
        56        33        34        57     9        0.000000       -0.014268         1    ;  uncertainty k = 0.081434
        56        33        34        57     9      180.000000        7.540895         2    ;  uncertainty k = 0.372950
        56        33        34        57     9        0.000000       -0.423023         3    ;  uncertainty k = 0.279630
        56        33        34        57     9      180.000000        0.044035         4    ;  uncertainty k = 0.144091
        57        34        35        58     9        0.000000       -0.014268         1    ;  uncertainty k = 0.081434
        57        34        35        58     9      180.000000        7.540896         2    ;  uncertainty k = 0.372950
        57        34        35        58     9        0.000000       -0.423023         3    ;  uncertainty k = 0.279630
        57        34        35        58     9      180.000000        0.044035         4    ;  uncertainty k = 0.144091
        58        35        36        59     9        0.000000       -0.057002         1    ;  uncertainty k = 0.102498
        58        35        36        59     9      180.000000        7.749801         2    ;  uncertainty k = 0.346074
        58        35        36        59     9        0.000000       -0.473069         3    ;  uncertainty k = 0.287088
        58        35        36        59     9      180.000000        0.087408         4    ;  uncertainty k = 0.115760

[ dihedrals ] ; impropers
;       ai        aj        ak        al funct           phase               k        pn
         2         1         3         6     4      180.000000        3.160931         2    ;  uncertainty k = 0.920618
         2         3         6         1     4      180.000000        3.160931         2    ;  uncertainty k = 0.920618
         2         6         1         3     4      180.000000        3.160931         2    ;  uncertainty k = 0.920618
         3         2         4        15     4      180.000000        7.345235         2    ;  uncertainty k = 0.646649
         3         4        15         2     4      180.000000        7.345235         2    ;  uncertainty k = 0.646649
         3        15         2         4     4      180.000000        7.345235         2    ;  uncertainty k = 0.646649
         4         3         5        60     4      180.000000        0.215800         2    ;  uncertainty k = 0.482544
         4         5        60         3     4      180.000000        0.215800         2    ;  uncertainty k = 0.482544
         4        60         3         5     4      180.000000        0.215800         2    ;  uncertainty k = 0.482544
         5         1         4         9     4      180.000000        4.759983         2    ;  uncertainty k = 0.454887
         5         4         9         1     4      180.000000        4.759983         2    ;  uncertainty k = 0.454887
         5         9         1         4     4      180.000000        4.759983         2    ;  uncertainty k = 0.454887
         6         2         7         8     4      180.000000       66.198939         2    ;  uncertainty k = 0.062328
         6         7         8         2     4      180.000000       66.198939         2    ;  uncertainty k = 0.062328
         6         8         2         7     4      180.000000       66.198939         2    ;  uncertainty k = 0.062328
         9         5        10        14     4      180.000000       14.664305         2    ;  uncertainty k = 0.041979
         9        10        14         5     4      180.000000       14.664305         2    ;  uncertainty k = 0.041979
         9        14         5        10     4      180.000000       14.664305         2    ;  uncertainty k = 0.041979
        10         9        11        37     4      180.000000        2.027863         2    ;  uncertainty k = 0.434475
        10        11        37         9     4      180.000000        2.027863         2    ;  uncertainty k = 0.434475
        10        37         9        11     4      180.000000        2.027863         2    ;  uncertainty k = 0.434475
        11        10        12        20     4      180.000000       20.808278         2    ;  uncertainty k = 0.079023
        11        12        20        10     4      180.000000       20.808278         2    ;  uncertainty k = 0.079023
        11        20        10        12     4      180.000000       20.808278         2    ;  uncertainty k = 0.079023
        12        11        13        38     4      180.000000        2.355810         2    ;  uncertainty k = 0.307570
        12        13        38        11     4      180.000000        2.355810         2    ;  uncertainty k = 0.307570
        12        38        11        13     4      180.000000        2.355810         2    ;  uncertainty k = 0.307570
        13        12        14        39     4      180.000000        4.244307         2    ;  uncertainty k = 0.179063
        13        14        39        12     4      180.000000        4.244307         2    ;  uncertainty k = 0.179063
        13        39        12        14     4      180.000000        4.244307         2    ;  uncertainty k = 0.179063
        14         9        13        40     4      180.000000        2.981451         2    ;  uncertainty k = 0.214791
        14        13        40         9     4      180.000000        2.981451         2    ;  uncertainty k = 0.214791
        14        40         9        13     4      180.000000        2.981451         2    ;  uncertainty k = 0.214791
        17        16        18        19     4      180.000000       68.064675         2    ;  uncertainty k = 0.018223
        17        18        19        16     4      180.000000       68.064675         2    ;  uncertainty k = 0.018223
        17        19        16        18     4      180.000000       68.064675         2    ;  uncertainty k = 0.018223
        31        30        32        36     4      180.000000       12.069193         2    ;  uncertainty k = 0.153646
        31        32        36        30     4      180.000000       12.069193         2    ;  uncertainty k = 0.153646
        31        36        30        32     4      180.000000       12.069193         2    ;  uncertainty k = 0.153646
        32        31        33        55     4      180.000000        3.892302         2    ;  uncertainty k = 0.151209
        32        33        55        31     4      180.000000        3.892302         2    ;  uncertainty k = 0.151209
        32        55        31        33     4      180.000000        3.892302         2    ;  uncertainty k = 0.151209
        33        32        34        56     4      180.000000        4.208112         2    ;  uncertainty k = 0.090757
        33        34        56        32     4      180.000000        4.208112         2    ;  uncertainty k = 0.090757
        33        56        32        34     4      180.000000        4.208112         2    ;  uncertainty k = 0.090757
        34        33        35        57     4      180.000000        4.444632         2    ;  uncertainty k = 0.168114
        34        35        57        33     4      180.000000        4.444632         2    ;  uncertainty k = 0.168114
        34        57        33        35     4      180.000000        4.444632         2    ;  uncertainty k = 0.168114
        35        34        36        58     4      180.000000        4.208112         2    ;  uncertainty k = 0.090757
        35        36        58        34     4      180.000000        4.208112         2    ;  uncertainty k = 0.090757
        35        58        34        36     4      180.000000        4.208112         2    ;  uncertainty k = 0.090757
        36        31        35        59     4      180.000000        3.892302         2    ;  uncertainty k = 0.151209
        36        35        59        31     4      180.000000        3.892302         2    ;  uncertainty k = 0.151209
        36        59        31        35     4      180.000000        3.892302         2    ;  uncertainty k = 0.151209

[ pairs ]
;       ai        aj funct
         1         7     1
         1         8     1
         1        10     1
         1        14     1
         1        15     1
         1        60     1
         2         9     1
         2        16     1
         2        60     1
         3         7     1
         3         8     1
         3         9     1
         3        17     1
         3        41     1
         3        42     1
         4         6     1
         4        10     1
         4        14     1
         4        16     1
         5         6     1
         5        11     1
         5        13     1
         5        15     1
         5        37     1
         5        40     1
         6        15     1
         9        12     1
         9        20     1
         9        39     1
         9        60     1
        10        13     1
        10        21     1
        10        38     1
        10        40     1
        10        43     1
        11        14     1
        11        22     1
        11        26     1
        11        39     1
        11        44     1
        12        21     1
        12        37     1
        12        40     1
        12        43     1
        13        20     1
        14        37     1
        14        38     1
        15        18     1
        15        19     1
        15        60     1
        18        41     1
        18        42     1
        19        41     1
        19        42     1
        20        23     1
        20        25     1
        20        37     1
        20        38     1
        20        45     1
        20        46     1
        20        51     1
        20        52     1
        21        24     1
        21        47     1
        21        48     1
        21        49     1
        21        50     1
        22        25     1
        22        27     1
        22        43     1
        22        51     1
        22        52     1
        23        26     1
        23        28     1
        23        29     1
        23        30     1
        23        44     1
        23        49     1
        23        50     1
        24        31     1
        24        45     1
        24        46     1
        24        51     1
        24        52     1
        24        53     1
        24        54     1
        25        28     1
        25        29     1
        25        30     1
        25        44     1
        25        47     1
        25        48     1
        26        27     1
        26        43     1
        26        45     1
        26        46     1
        27        32     1
        27        36     1
        27        47     1
        27        48     1
        27        49     1
        27        50     1
        28        31     1
        28        53     1
        28        54     1
        29        31     1
        29        53     1
        29        54     1
        30        33     1
        30        35     1
        30        55     1
        30        59     1
        31        34     1
        31        56     1
        31        58     1
        32        35     1
        32        53     1
        32        54     1
        32        57     1
        32        59     1
        33        36     1
        33        58     1
        34        55     1
        34        59     1
        35        56     1
        36        53     1
        36        54     1
        36        55     1
        36        57     1
        38        39     1
        39        40     1
        43        44     1
        44        45     1
        44        46     1
        44        51     1
        44        52     1
        45        47     1
        45        48     1
        46        47     1
        46        48     1
        49        51     1
        49        52     1
        50        51     1
        50        52     1
        55        56     1
        56        57     1
        57        58     1
        58        59     1
