; ITP file created by ByteFF-joint-25, 2026-02-17 09:30:00.300443

[ atomtypes ]
;name           bonded.type        at.num        mass        charge   ptype           sigma         epsilon
 s0bf                                  16      0.0000       0.00000       A     3.53165e-01     1.18204e+00    ;  uncertainty sigma = 0.000053, epsilon = 0.003055
 c1bf                                   6      0.0000       0.00000       A     3.31495e-01     4.13373e-01    ;  uncertainty sigma = 0.000032, epsilon = 0.002340
 c2bf                                   6      0.0000       0.00000       A     3.31500e-01     4.12069e-01    ;  uncertainty sigma = 0.000033, epsilon = 0.001338
 c3bf                                   6      0.0000       0.00000       A     3.31511e-01     4.13455e-01    ;  uncertainty sigma = 0.000012, epsilon = 0.000975
 c4bf                                   6      0.0000       0.00000       A     3.31514e-01     4.13061e-01    ;  uncertainty sigma = 0.000022, epsilon = 0.000877
 c5bf                                   6      0.0000       0.00000       A     3.31529e-01     4.13194e-01    ;  uncertainty sigma = 0.000055, epsilon = 0.002345
 o6bf                                   8      0.0000       0.00000       A     3.04804e-01     6.11836e-01    ;  uncertainty sigma = 0.000044, epsilon = 0.001672
 o7bf                                   8      0.0000       0.00000       A     3.04804e-01     6.11836e-01    ;  uncertainty sigma = 0.000044, epsilon = 0.001672
 c8bf                                   6      0.0000       0.00000       A     3.31502e-01     4.12993e-01    ;  uncertainty sigma = 0.000011, epsilon = 0.000429
 c9bf                                   6      0.0000       0.00000       A     3.31524e-01     4.13376e-01    ;  uncertainty sigma = 0.000005, epsilon = 0.000868
 c10bf                                  6      0.0000       0.00000       A     3.31507e-01     4.13226e-01    ;  uncertainty sigma = 0.000013, epsilon = 0.000870
 c11bf                                  6      0.0000       0.00000       A     3.31521e-01     4.13203e-01    ;  uncertainty sigma = 0.000002, epsilon = 0.000548
 c12bf                                  6      0.0000       0.00000       A     3.31522e-01     4.13513e-01    ;  uncertainty sigma = 0.000003, epsilon = 0.000666
 c13bf                                  6      0.0000       0.00000       A     3.31520e-01     4.13276e-01    ;  uncertainty sigma = 0.000003, epsilon = 0.000632
 br14bf                                35      0.0000       0.00000       A     3.61258e-01     1.64394e+00    ;  uncertainty sigma = 0.000027, epsilon = 0.006365
 o15bf                                  8      0.0000       0.00000       A     3.15802e-01     3.03913e-01    ;  uncertainty sigma = 0.000078, epsilon = 0.010291
 c16bf                                  6      0.0000       0.00000       A     3.39717e-01     4.50736e-01    ;  uncertainty sigma = 0.000028, epsilon = 0.002811
 c17bf                                  6      0.0000       0.00000       A     3.31523e-01     4.12941e-01    ;  uncertainty sigma = 0.000026, epsilon = 0.002863
 o18bf                                  8      0.0000       0.00000       A     3.04805e-01     6.12312e-01    ;  uncertainty sigma = 0.000022, epsilon = 0.002455
 o19bf                                  8      0.0000       0.00000       A     3.04805e-01     6.12312e-01    ;  uncertainty sigma = 0.000022, epsilon = 0.002455
 n20bf                                  7      0.0000       0.00000       A     3.27946e-01     6.44717e-01    ;  uncertainty sigma = 0.000033, epsilon = 0.000917
 c21bf                                  6      0.0000       0.00000       A     3.39792e-01     4.51330e-01    ;  uncertainty sigma = 0.000011, epsilon = 0.000898
 c22bf                                  6      0.0000       0.00000       A     3.39794e-01     4.50895e-01    ;  uncertainty sigma = 0.000006, epsilon = 0.000594
 c23bf                                  6      0.0000       0.00000       A     3.39759e-01     4.50303e-01    ;  uncertainty sigma = 0.000005, epsilon = 0.000449
 n24bf                                  7      0.0000       0.00000       A     3.36559e-01     3.58825e-01    ;  uncertainty sigma = 0.000022, epsilon = 0.001728
 c25bf                                  6      0.0000       0.00000       A     3.39759e-01     4.50303e-01    ;  uncertainty sigma = 0.000005, epsilon = 0.000449
 c26bf                                  6      0.0000       0.00000       A     3.39794e-01     4.50895e-01    ;  uncertainty sigma = 0.000006, epsilon = 0.000594
 s27bf                                 16      0.0000       0.00000       A     4.05838e-01     2.57158e-01    ;  uncertainty sigma = 0.000017, epsilon = 0.001997
 o28bf                                  8      0.0000       0.00000       A     3.04820e-01     6.11990e-01    ;  uncertainty sigma = 0.000009, epsilon = 0.000742
 o29bf                                  8      0.0000       0.00000       A     3.04820e-01     6.11990e-01    ;  uncertainty sigma = 0.000009, epsilon = 0.000742
 c30bf                                  6      0.0000       0.00000       A     3.39767e-01     4.50874e-01    ;  uncertainty sigma = 0.000014, epsilon = 0.000800
 h31bf                                  1      0.0000       0.00000       A     2.62548e-01     6.70805e-02    ;  uncertainty sigma = 0.000012, epsilon = 0.000580
 h32bf                                  1      0.0000       0.00000       A     2.62556e-01     6.70450e-02    ;  uncertainty sigma = 0.000012, epsilon = 0.000463
 h33bf                                  1      0.0000       0.00000       A     2.62563e-01     6.69897e-02    ;  uncertainty sigma = 0.000012, epsilon = 0.000446
 h34bf                                  1      0.0000       0.00000       A     2.62561e-01     6.70428e-02    ;  uncertainty sigma = 0.000012, epsilon = 0.000452
 h35bf                                  1      0.0000       0.00000       A     2.42291e-01     8.67021e-02    ;  uncertainty sigma = 0.000194, epsilon = 0.000950
 h36bf                                  1      0.0000       0.00000       A     2.42291e-01     8.67021e-02    ;  uncertainty sigma = 0.000194, epsilon = 0.000950
 h37bf                                  1      0.0000       0.00000       A     1.10678e-01     4.13568e-02    ;  uncertainty sigma = 0.000090, epsilon = 0.000744
 h38bf                                  1      0.0000       0.00000       A     2.42228e-01     8.69235e-02    ;  uncertainty sigma = 0.000023, epsilon = 0.000690
 h39bf                                  1      0.0000       0.00000       A     2.60030e-01     8.68440e-02    ;  uncertainty sigma = 0.000010, epsilon = 0.000536
 h40bf                                  1      0.0000       0.00000       A     2.60030e-01     8.68440e-02    ;  uncertainty sigma = 0.000010, epsilon = 0.000536
 h41bf                                  1      0.0000       0.00000       A     2.42194e-01     8.69282e-02    ;  uncertainty sigma = 0.000025, epsilon = 0.000692
 h42bf                                  1      0.0000       0.00000       A     2.42194e-01     8.69282e-02    ;  uncertainty sigma = 0.000025, epsilon = 0.000692
 h43bf                                  1      0.0000       0.00000       A     2.42194e-01     8.69282e-02    ;  uncertainty sigma = 0.000025, epsilon = 0.000692
 h44bf                                  1      0.0000       0.00000       A     2.42194e-01     8.69282e-02    ;  uncertainty sigma = 0.000025, epsilon = 0.000692
 h45bf                                  1      0.0000       0.00000       A     2.60030e-01     8.68440e-02    ;  uncertainty sigma = 0.000010, epsilon = 0.000536
 h46bf                                  1      0.0000       0.00000       A     2.60030e-01     8.68440e-02    ;  uncertainty sigma = 0.000010, epsilon = 0.000536
 h47bf                                  1      0.0000       0.00000       A     2.42191e-01     8.65668e-02    ;  uncertainty sigma = 0.000021, epsilon = 0.000517
 h48bf                                  1      0.0000       0.00000       A     2.42191e-01     8.65669e-02    ;  uncertainty sigma = 0.000021, epsilon = 0.000517
 h49bf                                  1      0.0000       0.00000       A     2.42191e-01     8.65670e-02    ;  uncertainty sigma = 0.000021, epsilon = 0.000517

[ moleculetype ]
;name             nrexcl
 MOL                   3

[ atoms ]
;       nr            type      resi   res      atom      cgnr      charge          mass ; qtot
         1            s0bf         1   UNL        s0         1    -0.06026       32.0670 ; qtot   -0.060
         2            c1bf         1   UNL        c1         2    -0.15250       12.0110 ; qtot   -0.213
         3            c2bf         1   UNL        c2         3     0.12085       12.0110 ; qtot   -0.092
         4            c3bf         1   UNL        c3         4    -0.04845       12.0110 ; qtot   -0.140
         5            c4bf         1   UNL        c4         5    -0.04862       12.0110 ; qtot   -0.189
         6            c5bf         1   UNL        c5         6     0.93104       12.0110 ; qtot    0.742
         7            o6bf         1   UNL        o6         7    -0.81786       15.9990 ; qtot   -0.076
         8            o7bf         1   UNL        o7         8    -0.81786       15.9990 ; qtot   -0.894
         9            c8bf         1   UNL        c8         9     0.02218       12.0110 ; qtot   -0.871
        10            c9bf         1   UNL        c9        10    -0.18104       12.0110 ; qtot   -1.053
        11           c10bf         1   UNL       c10        11     0.16136       12.0110 ; qtot   -0.891
        12           c11bf         1   UNL       c11        12    -0.19079       12.0110 ; qtot   -1.082
        13           c12bf         1   UNL       c12        13    -0.09078       12.0110 ; qtot   -1.173
        14           c13bf         1   UNL       c13        14    -0.13415       12.0110 ; qtot   -1.307
        15          br14bf         1   UNL      br14        15    -0.09860       79.9040 ; qtot   -1.405
        16           o15bf         1   UNL       o15        16    -0.32674       15.9990 ; qtot   -1.732
        17           c16bf         1   UNL       c16        17    -0.04389       12.0110 ; qtot   -1.776
        18           c17bf         1   UNL       c17        18     0.91650       12.0110 ; qtot   -0.860
        19           o18bf         1   UNL       o18        19    -0.83281       15.9990 ; qtot   -1.692
        20           o19bf         1   UNL       o19        20    -0.83281       15.9990 ; qtot   -2.525
        21           n20bf         1   UNL       n20        21    -0.74906       14.0070 ; qtot   -3.274
        22           c21bf         1   UNL       c21        22     0.20770       12.0110 ; qtot   -3.067
        23           c22bf         1   UNL       c22        23    -0.10423       12.0110 ; qtot   -3.171
        24           c23bf         1   UNL       c23        24     0.20158       12.0110 ; qtot   -2.969
        25           n24bf         1   UNL       n24        25    -0.72611       14.0070 ; qtot   -3.695
        26           c25bf         1   UNL       c25        26     0.20158       12.0110 ; qtot   -3.494
        27           c26bf         1   UNL       c26        27    -0.10423       12.0110 ; qtot   -3.598
        28           s27bf         1   UNL       s27        28     1.15417       32.0670 ; qtot   -2.444
        29           o28bf         1   UNL       o28        29    -0.59684       15.9990 ; qtot   -3.041
        30           o29bf         1   UNL       o29        30    -0.59684       15.9990 ; qtot   -3.638
        31           c30bf         1   UNL       c30        31    -0.20940       12.0110 ; qtot   -3.847
        32           h31bf         1   UNL       h31        32     0.13981        1.0080 ; qtot   -3.707
        33           h32bf         1   UNL       h32        33     0.13179        1.0080 ; qtot   -3.575
        34           h33bf         1   UNL       h33        34     0.13626        1.0080 ; qtot   -3.439
        35           h34bf         1   UNL       h34        35     0.14276        1.0080 ; qtot   -3.296
        36           h35bf         1   UNL       h35        36     0.02291        1.0080 ; qtot   -3.273
        37           h36bf         1   UNL       h36        37     0.02291        1.0080 ; qtot   -3.250
        38           h37bf         1   UNL       h37        38     0.39961        1.0080 ; qtot   -2.851
        39           h38bf         1   UNL       h38        39     0.06053        1.0080 ; qtot   -2.790
        40           h39bf         1   UNL       h39        40     0.05926        1.0080 ; qtot   -2.731
        41           h40bf         1   UNL       h40        41     0.05926        1.0080 ; qtot   -2.672
        42           h41bf         1   UNL       h41        42     0.06159        1.0080 ; qtot   -2.610
        43           h42bf         1   UNL       h42        43     0.06159        1.0080 ; qtot   -2.549
        44           h43bf         1   UNL       h43        44     0.06159        1.0080 ; qtot   -2.487
        45           h44bf         1   UNL       h44        45     0.06159        1.0080 ; qtot   -2.425
        46           h45bf         1   UNL       h45        46     0.05926        1.0080 ; qtot   -2.366
        47           h46bf         1   UNL       h46        47     0.05926        1.0080 ; qtot   -2.307
        48           h47bf         1   UNL       h47        48     0.10232        1.0080 ; qtot   -2.205
        49           h48bf         1   UNL       h48        49     0.10232        1.0080 ; qtot   -2.102
        50           h49bf         1   UNL       h49        50     0.10229        1.0080 ; qtot   -2.000

[ bonds ]
;       ai        aj funct               r               k
         1         2     1        0.174192   168649.560181    ;  uncertainty r = 0.000346, k = 32.148596
         1         5     1        0.174357   166232.447241    ;  uncertainty r = 0.000237, k = 14.888510
         2         3     1        0.138080   385642.911377    ;  uncertainty r = 0.000134, k = 36.968685
         2         6     1        0.154055   191773.233960    ;  uncertainty r = 0.000283, k = 45.899503
         3         4     1        0.143810   249799.356152    ;  uncertainty r = 0.000373, k = 34.755195
         3        16     1        0.136007   307552.652637    ;  uncertainty r = 0.000403, k = 36.149075
         4         5     1        0.137757   380537.379248    ;  uncertainty r = 0.000227, k = 7.612841
         4        15     1        0.190420   156686.726831    ;  uncertainty r = 0.000144, k = 29.636935
         5         9     1        0.146498   276255.265186    ;  uncertainty r = 0.000143, k = 7.998639
         6         7     1        0.126149   550576.911523    ;  uncertainty r = 0.000229, k = 9.262788
         6         8     1        0.126149   550576.911523    ;  uncertainty r = 0.000229, k = 9.262788
         9        10     1        0.139866   346656.581201    ;  uncertainty r = 0.000090, k = 3.370148
         9        14     1        0.140211   349325.336816    ;  uncertainty r = 0.000029, k = 3.652698
        10        11     1        0.140727   361666.272607    ;  uncertainty r = 0.000046, k = 6.105763
        10        32     1        0.108901   336801.478711    ;  uncertainty r = 0.000022, k = 2.489614
        11        12     1        0.140941   361928.206738    ;  uncertainty r = 0.000067, k = 7.751592
        11        21     1        0.139656   340533.778320    ;  uncertainty r = 0.000093, k = 9.299274
        12        13     1        0.139380   371821.742578    ;  uncertainty r = 0.000036, k = 2.429869
        12        33     1        0.108873   337023.140820    ;  uncertainty r = 0.000023, k = 0.936943
        13        14     1        0.139370   367208.565918    ;  uncertainty r = 0.000033, k = 1.516097
        13        34     1        0.108779   332374.620801    ;  uncertainty r = 0.000017, k = 1.550752
        14        35     1        0.108759   334843.242090    ;  uncertainty r = 0.000027, k = 0.771472
        16        17     1        0.144489   220596.573486    ;  uncertainty r = 0.000632, k = 19.356591
        17        18     1        0.155273   162501.513867    ;  uncertainty r = 0.000271, k = 66.063610
        17        36     1        0.109682   316919.485596    ;  uncertainty r = 0.000081, k = 8.518153
        17        37     1        0.109682   316919.485596    ;  uncertainty r = 0.000081, k = 8.518153
        18        19     1        0.126286   541570.585938    ;  uncertainty r = 0.000058, k = 12.189171
        18        20     1        0.126286   541570.585938    ;  uncertainty r = 0.000058, k = 12.189171
        21        22     1        0.146259   234136.578711    ;  uncertainty r = 0.000084, k = 7.753098
        21        38     1        0.101386   415221.140625    ;  uncertainty r = 0.000050, k = 2.421602
        22        23     1        0.153823   205581.391602    ;  uncertainty r = 0.000032, k = 5.695215
        22        27     1        0.153823   205581.391602    ;  uncertainty r = 0.000032, k = 5.695215
        22        39     1        0.109618   302969.992822    ;  uncertainty r = 0.000029, k = 3.107582
        23        24     1        0.153052   210654.466064    ;  uncertainty r = 0.000040, k = 2.358374
        23        40     1        0.109607   310899.341895    ;  uncertainty r = 0.000023, k = 1.329036
        23        41     1        0.109607   310899.341895    ;  uncertainty r = 0.000023, k = 1.329036
        24        25     1        0.147452   221101.518750    ;  uncertainty r = 0.000088, k = 12.549233
        24        42     1        0.109571   306420.847949    ;  uncertainty r = 0.000038, k = 1.386278
        24        43     1        0.109571   306420.847949    ;  uncertainty r = 0.000038, k = 1.386278
        25        26     1        0.147452   221101.518750    ;  uncertainty r = 0.000088, k = 12.549233
        25        28     1        0.168419   118294.772876    ;  uncertainty r = 0.000231, k = 16.016137
        26        27     1        0.153052   210654.466064    ;  uncertainty r = 0.000040, k = 2.358374
        26        44     1        0.109571   306420.847949    ;  uncertainty r = 0.000038, k = 1.386278
        26        45     1        0.109571   306420.847949    ;  uncertainty r = 0.000038, k = 1.386278
        27        46     1        0.109607   310899.341895    ;  uncertainty r = 0.000023, k = 1.329036
        27        47     1        0.109607   310899.341895    ;  uncertainty r = 0.000023, k = 1.329036
        28        29     1        0.147068   528388.279004    ;  uncertainty r = 0.000060, k = 6.533006
        28        30     1        0.147068   528388.279004    ;  uncertainty r = 0.000060, k = 6.533006
        28        31     1        0.180926   182105.126953    ;  uncertainty r = 0.000046, k = 8.545107
        31        48     1        0.109266   320776.789355    ;  uncertainty r = 0.000023, k = 1.693545
        31        49     1        0.109266   320776.789355    ;  uncertainty r = 0.000023, k = 1.693533
        31        50     1        0.109266   320776.789355    ;  uncertainty r = 0.000023, k = 1.693533

[ angles ]
;       ai        aj        ak funct           theta             cth
         1         2         3     1      112.357254      490.287825    ;  uncertainty theta = 0.005257, k = 0.446159
         1         2         6     1      115.451401      321.272126    ;  uncertainty theta = 0.011344, k = 0.278095
         1         5         4     1      111.659386      449.584992    ;  uncertainty theta = 0.002310, k = 0.394971
         1         5         9     1      118.728165      342.867040    ;  uncertainty theta = 0.007322, k = 0.153391
         2         1         5     1       93.409683     1113.970975    ;  uncertainty theta = 0.008532, k = 0.189168
         2         3         4     1      115.069199      491.410436    ;  uncertainty theta = 0.004813, k = 0.280924
         2         3        16     1      123.043716      386.336563    ;  uncertainty theta = 0.006879, k = 0.395881
         2         6         7     1      114.979454      369.254791    ;  uncertainty theta = 0.012630, k = 0.171059
         2         6         8     1      114.979454      369.254791    ;  uncertainty theta = 0.012630, k = 0.171059
         3         2         6     1      128.246002      305.353665    ;  uncertainty theta = 0.014744, k = 0.309527
         3         4         5     1      117.601578      512.725910    ;  uncertainty theta = 0.003379, k = 0.473085
         3         4        15     1      119.051048      364.447781    ;  uncertainty theta = 0.003204, k = 0.273279
         3        16        17     1      112.137527      461.556502    ;  uncertainty theta = 0.007449, k = 0.230739
         4         3        16     1      118.536453      394.142587    ;  uncertainty theta = 0.008837, k = 0.130964
         4         5         9     1      126.491371      327.557288    ;  uncertainty theta = 0.004316, k = 0.181971
         5         4        15     1      120.673264      351.209758    ;  uncertainty theta = 0.006817, k = 0.079938
         5         9        10     1      120.397461      415.443409    ;  uncertainty theta = 0.002814, k = 0.087126
         5         9        14     1      121.217979      420.375742    ;  uncertainty theta = 0.001875, k = 0.061522
         7         6         8     1      131.649750      807.008217    ;  uncertainty theta = 0.009047, k = 0.187853
         9        10        11     1      120.428894      536.832239    ;  uncertainty theta = 0.003964, k = 0.078433
         9        10        32     1      119.446228      281.459645    ;  uncertainty theta = 0.002184, k = 0.055595
         9        14        13     1      119.273636      529.780262    ;  uncertainty theta = 0.001628, k = 0.054049
         9        14        35     1      119.473221      279.687114    ;  uncertainty theta = 0.002433, k = 0.056230
        10         9        14     1      121.486282      396.733614    ;  uncertainty theta = 0.005023, k = 0.115979
        10        11        12     1      118.820084      368.448584    ;  uncertainty theta = 0.006898, k = 0.170009
        10        11        21     1      123.207497      559.122880    ;  uncertainty theta = 0.004652, k = 0.225127
        11        10        32     1      119.650734      276.539889    ;  uncertainty theta = 0.001696, k = 0.041192
        11        12        13     1      118.451317      533.334932    ;  uncertainty theta = 0.003729, k = 0.122588
        11        12        33     1      119.619423      267.231708    ;  uncertainty theta = 0.002416, k = 0.066386
        11        21        22     1      114.779846      429.072533    ;  uncertainty theta = 0.004451, k = 0.146915
        11        21        38     1      110.680946      371.423657    ;  uncertainty theta = 0.004168, k = 0.065248
        12        11        21     1      123.735001      591.600465    ;  uncertainty theta = 0.004505, k = 0.147872
        12        13        14     1      121.365150      506.111639    ;  uncertainty theta = 0.002455, k = 0.077037
        12        13        34     1      120.189308      280.032408    ;  uncertainty theta = 0.001024, k = 0.065623
        13        12        33     1      121.003220      294.864680    ;  uncertainty theta = 0.002261, k = 0.074534
        13        14        35     1      120.754356      296.535541    ;  uncertainty theta = 0.001263, k = 0.063263
        14        13        34     1      120.097679      281.198464    ;  uncertainty theta = 0.001024, k = 0.024519
        16        17        18     1      108.358414      484.414258    ;  uncertainty theta = 0.009599, k = 0.239378
        16        17        36     1      106.609215      413.715920    ;  uncertainty theta = 0.002333, k = 0.101205
        16        17        37     1      106.609215      413.715920    ;  uncertainty theta = 0.002333, k = 0.101205
        17        18        19     1      116.281067      425.507680    ;  uncertainty theta = 0.009799, k = 0.299635
        17        18        20     1      116.281067      425.507680    ;  uncertainty theta = 0.009799, k = 0.299635
        18        17        36     1      110.053444      352.214644    ;  uncertainty theta = 0.003968, k = 0.110269
        18        17        37     1      110.053444      352.214644    ;  uncertainty theta = 0.003968, k = 0.110269
        19        18        20     1      131.546265      818.159315    ;  uncertainty theta = 0.002374, k = 0.066126
        21        22        23     1      111.874893      608.781640    ;  uncertainty theta = 0.002670, k = 0.056193
        21        22        27     1      111.874893      608.781640    ;  uncertainty theta = 0.002670, k = 0.056193
        21        22        39     1      105.105202      431.697684    ;  uncertainty theta = 0.000667, k = 0.128592
        22        21        38     1      109.826096      364.700566    ;  uncertainty theta = 0.003958, k = 0.118398
        22        23        24     1      110.067398      566.312725    ;  uncertainty theta = 0.003120, k = 0.091662
        22        23        40     1      108.163086      389.798501    ;  uncertainty theta = 0.000562, k = 0.019447
        22        23        41     1      108.163086      389.798501    ;  uncertainty theta = 0.000562, k = 0.019447
        22        27        26     1      110.067398      566.312725    ;  uncertainty theta = 0.003120, k = 0.091662
        22        27        46     1      108.163086      389.798501    ;  uncertainty theta = 0.000562, k = 0.019447
        22        27        47     1      108.163086      389.798501    ;  uncertainty theta = 0.000562, k = 0.019447
        23        22        27     1      108.550858      573.147413    ;  uncertainty theta = 0.002717, k = 0.112066
        23        22        39     1      107.951881      404.294482    ;  uncertainty theta = 0.002626, k = 0.042159
        23        24        25     1      109.349937      665.514819    ;  uncertainty theta = 0.002161, k = 0.183318
        23        24        42     1      109.566185      415.227333    ;  uncertainty theta = 0.000472, k = 0.039989
        23        24        43     1      109.566185      415.227333    ;  uncertainty theta = 0.000472, k = 0.039989
        24        23        40     1      107.824814      398.015258    ;  uncertainty theta = 0.000535, k = 0.059936
        24        23        41     1      107.824814      398.015258    ;  uncertainty theta = 0.000535, k = 0.059936
        24        25        26     1      108.321091      475.076294    ;  uncertainty theta = 0.004358, k = 0.101055
        24        25        28     1      107.529160      430.716899    ;  uncertainty theta = 0.002404, k = 0.067110
        25        24        42     1      107.526001      441.654283    ;  uncertainty theta = 0.001380, k = 0.055654
        25        24        43     1      107.526001      441.654283    ;  uncertainty theta = 0.001380, k = 0.055654
        25        26        27     1      109.349937      665.514819    ;  uncertainty theta = 0.002161, k = 0.183318
        25        26        44     1      107.526001      441.654283    ;  uncertainty theta = 0.001380, k = 0.055654
        25        26        45     1      107.526001      441.654283    ;  uncertainty theta = 0.001380, k = 0.055654
        25        28        29     1      113.056778      761.077236    ;  uncertainty theta = 0.001894, k = 0.028898
        25        28        30     1      113.056778      761.077236    ;  uncertainty theta = 0.001894, k = 0.028898
        25        28        31     1      104.620216      640.129655    ;  uncertainty theta = 0.001224, k = 0.114401
        26        25        28     1      107.529175      430.716899    ;  uncertainty theta = 0.002404, k = 0.067110
        26        27        46     1      107.824814      398.015258    ;  uncertainty theta = 0.000535, k = 0.059936
        26        27        47     1      107.824814      398.015258    ;  uncertainty theta = 0.000535, k = 0.059936
        27        22        39     1      107.951881      404.294450    ;  uncertainty theta = 0.002626, k = 0.042159
        27        26        44     1      109.566185      415.227333    ;  uncertainty theta = 0.000472, k = 0.039989
        27        26        45     1      109.566185      415.227333    ;  uncertainty theta = 0.000472, k = 0.039989
        28        31        48     1      107.188980      366.096744    ;  uncertainty theta = 0.001901, k = 0.057344
        28        31        49     1      107.188980      366.096712    ;  uncertainty theta = 0.001901, k = 0.057344
        28        31        50     1      107.188980      366.096712    ;  uncertainty theta = 0.001901, k = 0.057344
        29        28        30     1      122.935013      818.144950    ;  uncertainty theta = 0.004322, k = 0.077601
        29        28        31     1      111.797806      701.163538    ;  uncertainty theta = 0.001698, k = 0.014126
        30        28        31     1      111.797806      701.163538    ;  uncertainty theta = 0.001698, k = 0.014126
        36        17        37     1      108.449623      321.244163    ;  uncertainty theta = 0.009962, k = 0.176306
        40        23        41     1      105.624390      312.800446    ;  uncertainty theta = 0.001718, k = 0.026570
        42        24        43     1      105.554100      321.373062    ;  uncertainty theta = 0.000915, k = 0.059774
        44        26        45     1      105.554100      321.373062    ;  uncertainty theta = 0.000915, k = 0.059774
        46        27        47     1      105.624390      312.800446    ;  uncertainty theta = 0.001718, k = 0.026570
        48        31        49     1      108.782570      296.283937    ;  uncertainty theta = 0.002894, k = 0.028014
        48        31        50     1      108.782570      296.283937    ;  uncertainty theta = 0.002894, k = 0.028014
        49        31        50     1      108.782578      296.283937    ;  uncertainty theta = 0.002894, k = 0.028014

[ dihedrals ] ; propers for gromacs 4.5 or higher, use funct 9
;       ai        aj        ak        al funct           phase               k        pn
         1         2         3         4     9        0.000000       -0.320833         1    ;  uncertainty k = 0.754080
         1         2         3         4     9      180.000000       17.555282         2    ;  uncertainty k = 0.424189
         1         2         3         4     9        0.000000       -2.376894         3    ;  uncertainty k = 1.115238
         1         2         3         4     9      180.000000        0.923152         4    ;  uncertainty k = 0.610957
         1         2         3        16     9        0.000000        0.376558         1    ;  uncertainty k = 1.230098
         1         2         3        16     9      180.000000       18.623043         2    ;  uncertainty k = 0.210713
         1         2         3        16     9        0.000000        1.608484         3    ;  uncertainty k = 0.452084
         1         2         3        16     9      180.000000        0.624278         4    ;  uncertainty k = 0.345564
         1         2         6         7     9        0.000000        0.648298         1    ;  uncertainty k = 2.496588
         1         2         6         7     9      180.000000        4.832235         2    ;  uncertainty k = 0.504618
         1         2         6         7     9        0.000000        0.188147         3    ;  uncertainty k = 0.527138
         1         2         6         7     9      180.000000        0.229089         4    ;  uncertainty k = 0.149777
         1         2         6         8     9        0.000000        0.648298         1    ;  uncertainty k = 2.496588
         1         2         6         8     9      180.000000        4.832235         2    ;  uncertainty k = 0.504618
         1         2         6         8     9        0.000000        0.188147         3    ;  uncertainty k = 0.527138
         1         2         6         8     9      180.000000        0.229089         4    ;  uncertainty k = 0.149777
         1         5         4         3     9        0.000000       -0.230943         1    ;  uncertainty k = 0.350057
         1         5         4         3     9      180.000000       15.958089         2    ;  uncertainty k = 0.404103
         1         5         4         3     9        0.000000       -2.380903         3    ;  uncertainty k = 0.809268
         1         5         4         3     9      180.000000        0.865666         4    ;  uncertainty k = 0.750586
         1         5         4        15     9        0.000000        0.242023         1    ;  uncertainty k = 0.389261
         1         5         4        15     9      180.000000       12.724293         2    ;  uncertainty k = 0.534639
         1         5         4        15     9        0.000000        2.310394         3    ;  uncertainty k = 0.489088
         1         5         4        15     9      180.000000        0.570757         4    ;  uncertainty k = 0.408314
         1         5         9        10     9        0.000000       -0.656981         1    ;  uncertainty k = 0.571836
         1         5         9        10     9      180.000000        3.252194         2    ;  uncertainty k = 0.077129
         1         5         9        10     9        0.000000        0.284571         3    ;  uncertainty k = 0.258066
         1         5         9        10     9      180.000000        0.122527         4    ;  uncertainty k = 0.130736
         1         5         9        14     9        0.000000       -0.233259         1    ;  uncertainty k = 0.548333
         1         5         9        14     9      180.000000        3.321067         2    ;  uncertainty k = 0.213032
         1         5         9        14     9        0.000000        0.471770         3    ;  uncertainty k = 0.250673
         1         5         9        14     9      180.000000        0.112740         4    ;  uncertainty k = 0.126557
         2         1         5         4     9        0.000000       -0.381502         1    ;  uncertainty k = 1.018320
         2         1         5         4     9      180.000000       14.624384         2    ;  uncertainty k = 0.929119
         2         1         5         4     9        0.000000       -6.005800         3    ;  uncertainty k = 1.036762
         2         1         5         4     9      180.000000        1.151585         4    ;  uncertainty k = 0.363309
         2         1         5         9     9        0.000000        0.589347         1    ;  uncertainty k = 1.308291
         2         1         5         9     9      180.000000       11.699598         2    ;  uncertainty k = 0.623079
         2         1         5         9     9        0.000000        0.979108         3    ;  uncertainty k = 1.167760
         2         1         5         9     9      180.000000       -0.045828         4    ;  uncertainty k = 0.492309
         2         3         4         5     9        0.000000       -0.163892         1    ;  uncertainty k = 0.802841
         2         3         4         5     9      180.000000        9.355372         2    ;  uncertainty k = 0.794784
         2         3         4         5     9        0.000000       -2.165171         3    ;  uncertainty k = 0.822975
         2         3         4         5     9      180.000000        0.987821         4    ;  uncertainty k = 0.358170
         2         3         4        15     9        0.000000        0.463445         1    ;  uncertainty k = 0.544884
         2         3         4        15     9      180.000000        7.807701         2    ;  uncertainty k = 0.817270
         2         3         4        15     9        0.000000        1.640989         3    ;  uncertainty k = 0.318182
         2         3         4        15     9      180.000000        0.389068         4    ;  uncertainty k = 0.234157
         2         3        16        17     9        0.000000        0.562638         1    ;  uncertainty k = 2.473037
         2         3        16        17     9      180.000000        4.453660         2    ;  uncertainty k = 1.236403
         2         3        16        17     9        0.000000       -0.243071         3    ;  uncertainty k = 0.584348
         2         3        16        17     9      180.000000        0.011309         4    ;  uncertainty k = 0.249195
         3         2         1         5     9        0.000000       -1.343735         1    ;  uncertainty k = 1.825069
         3         2         1         5     9      180.000000       12.410483         2    ;  uncertainty k = 0.765515
         3         2         1         5     9        0.000000       -3.924755         3    ;  uncertainty k = 1.286096
         3         2         1         5     9      180.000000        1.226932         4    ;  uncertainty k = 0.620813
         3         2         6         7     9        0.000000       -0.600971         1    ;  uncertainty k = 1.233380
         3         2         6         7     9      180.000000        2.750847         2    ;  uncertainty k = 0.470266
         3         2         6         7     9        0.000000        0.420307         3    ;  uncertainty k = 0.314900
         3         2         6         7     9      180.000000        0.072508         4    ;  uncertainty k = 0.103468
         3         2         6         8     9        0.000000       -0.600971         1    ;  uncertainty k = 1.233380
         3         2         6         8     9      180.000000        2.750847         2    ;  uncertainty k = 0.470266
         3         2         6         8     9        0.000000        0.420307         3    ;  uncertainty k = 0.314900
         3         2         6         8     9      180.000000        0.072508         4    ;  uncertainty k = 0.103468
         3         4         5         9     9        0.000000        0.194284         1    ;  uncertainty k = 0.219592
         3         4         5         9     9      180.000000       11.409582         2    ;  uncertainty k = 0.271107
         3         4         5         9     9        0.000000        1.980401         3    ;  uncertainty k = 0.456250
         3         4         5         9     9      180.000000        0.657823         4    ;  uncertainty k = 0.315054
         3        16        17        18     9        0.000000       -2.546996         1    ;  uncertainty k = 2.263476
         3        16        17        18     9      180.000000       -2.071281         2    ;  uncertainty k = 0.852216
         3        16        17        18     9        0.000000        0.377848         3    ;  uncertainty k = 0.447363
         3        16        17        18     9      180.000000        0.728091         4    ;  uncertainty k = 0.372243
         3        16        17        36     9        0.000000        1.943735         1    ;  uncertainty k = 0.725643
         3        16        17        36     9      180.000000       -1.013528         2    ;  uncertainty k = 0.770891
         3        16        17        36     9        0.000000        0.504468         3    ;  uncertainty k = 0.367188
         3        16        17        36     9      180.000000        0.022954         4    ;  uncertainty k = 0.163828
         3        16        17        37     9        0.000000        1.943735         1    ;  uncertainty k = 0.725643
         3        16        17        37     9      180.000000       -1.013528         2    ;  uncertainty k = 0.770891
         3        16        17        37     9        0.000000        0.504468         3    ;  uncertainty k = 0.367188
         3        16        17        37     9      180.000000        0.022954         4    ;  uncertainty k = 0.163828
         4         3         2         6     9        0.000000        0.750539         1    ;  uncertainty k = 1.420042
         4         3         2         6     9      180.000000        9.225337         2    ;  uncertainty k = 0.449657
         4         3         2         6     9        0.000000        2.146628         3    ;  uncertainty k = 0.096833
         4         3         2         6     9      180.000000        0.908103         4    ;  uncertainty k = 0.276689
         4         3        16        17     9        0.000000        4.003546         1    ;  uncertainty k = 2.209639
         4         3        16        17     9      180.000000        4.149396         2    ;  uncertainty k = 0.785914
         4         3        16        17     9        0.000000        0.594406         3    ;  uncertainty k = 0.772201
         4         3        16        17     9      180.000000       -0.129795         4    ;  uncertainty k = 0.090251
         4         5         9        10     9        0.000000        0.353515         1    ;  uncertainty k = 0.518464
         4         5         9        10     9      180.000000        2.904106         2    ;  uncertainty k = 0.313612
         4         5         9        10     9        0.000000        0.455749         3    ;  uncertainty k = 0.523304
         4         5         9        10     9      180.000000       -0.006953         4    ;  uncertainty k = 0.142758
         4         5         9        14     9        0.000000        0.468422         1    ;  uncertainty k = 0.543316
         4         5         9        14     9      180.000000        3.088237         2    ;  uncertainty k = 0.260629
         4         5         9        14     9        0.000000        0.475580         3    ;  uncertainty k = 0.388282
         4         5         9        14     9      180.000000       -0.025865         4    ;  uncertainty k = 0.122964
         5         1         2         6     9        0.000000        0.451497         1    ;  uncertainty k = 2.202869
         5         1         2         6     9      180.000000        8.209202         2    ;  uncertainty k = 0.569487
         5         1         2         6     9        0.000000        1.043882         3    ;  uncertainty k = 0.663821
         5         1         2         6     9      180.000000        0.550351         4    ;  uncertainty k = 0.309694
         5         4         3        16     9        0.000000        0.887263         1    ;  uncertainty k = 1.387606
         5         4         3        16     9      180.000000       11.850633         2    ;  uncertainty k = 0.768527
         5         4         3        16     9        0.000000        1.717065         3    ;  uncertainty k = 0.314044
         5         4         3        16     9      180.000000        0.438991         4    ;  uncertainty k = 0.459203
         5         9        10        11     9        0.000000        0.215494         1    ;  uncertainty k = 0.383663
         5         9        10        11     9      180.000000        8.822034         2    ;  uncertainty k = 0.578324
         5         9        10        11     9        0.000000        1.259536         3    ;  uncertainty k = 0.294337
         5         9        10        11     9      180.000000        1.579315         4    ;  uncertainty k = 0.186089
         5         9        10        32     9        0.000000       -0.118096         1    ;  uncertainty k = 0.464671
         5         9        10        32     9      180.000000        7.094356         2    ;  uncertainty k = 0.451824
         5         9        10        32     9        0.000000        0.693463         3    ;  uncertainty k = 0.250327
         5         9        10        32     9      180.000000        1.251162         4    ;  uncertainty k = 0.217118
         5         9        14        13     9        0.000000       -0.012159         1    ;  uncertainty k = 0.343542
         5         9        14        13     9      180.000000        9.008833         2    ;  uncertainty k = 0.493794
         5         9        14        13     9        0.000000        1.121536         3    ;  uncertainty k = 0.283096
         5         9        14        13     9      180.000000        1.726057         4    ;  uncertainty k = 0.162672
         5         9        14        35     9        0.000000       -0.167143         1    ;  uncertainty k = 0.574521
         5         9        14        35     9      180.000000        6.858649         2    ;  uncertainty k = 0.387138
         5         9        14        35     9        0.000000        0.754216         3    ;  uncertainty k = 0.222931
         5         9        14        35     9      180.000000        1.253932         4    ;  uncertainty k = 0.164620
         6         2         3        16     9        0.000000       -0.665249         1    ;  uncertainty k = 0.977507
         6         2         3        16     9      180.000000       11.691680         2    ;  uncertainty k = 0.581130
         6         2         3        16     9        0.000000        1.652052         3    ;  uncertainty k = 0.309495
         6         2         3        16     9      180.000000        0.410579         4    ;  uncertainty k = 0.549466
         9         5         4        15     9        0.000000        0.037386         1    ;  uncertainty k = 0.686408
         9         5         4        15     9      180.000000        8.650582         2    ;  uncertainty k = 0.563137
         9         5         4        15     9        0.000000        1.546341         3    ;  uncertainty k = 0.089957
         9         5         4        15     9      180.000000        0.838665         4    ;  uncertainty k = 0.167551
         9        10        11        12     9        0.000000       -0.074148         1    ;  uncertainty k = 0.332965
         9        10        11        12     9      180.000000        7.483719         2    ;  uncertainty k = 0.623420
         9        10        11        12     9        0.000000        0.428210         3    ;  uncertainty k = 0.279487
         9        10        11        12     9      180.000000        1.427985         4    ;  uncertainty k = 0.272185
         9        10        11        21     9        0.000000        0.207505         1    ;  uncertainty k = 0.774216
         9        10        11        21     9      180.000000        8.418789         2    ;  uncertainty k = 0.216020
         9        10        11        21     9        0.000000        0.945095         3    ;  uncertainty k = 0.203223
         9        10        11        21     9      180.000000        1.631448         4    ;  uncertainty k = 0.155889
         9        14        13        12     9        0.000000       -0.059272         1    ;  uncertainty k = 0.367616
         9        14        13        12     9      180.000000       14.573975         2    ;  uncertainty k = 0.295850
         9        14        13        12     9        0.000000       -1.019944         3    ;  uncertainty k = 0.445748
         9        14        13        12     9      180.000000        0.617677         4    ;  uncertainty k = 0.302018
         9        14        13        34     9        0.000000        0.069339         1    ;  uncertainty k = 0.069200
         9        14        13        34     9      180.000000        7.749906         2    ;  uncertainty k = 0.302242
         9        14        13        34     9        0.000000        1.324182         3    ;  uncertainty k = 0.264322
         9        14        13        34     9      180.000000        1.821714         4    ;  uncertainty k = 0.104858
        10         9        14        13     9        0.000000       -0.203690         1    ;  uncertainty k = 0.123253
        10         9        14        13     9      180.000000       11.480953         2    ;  uncertainty k = 0.260324
        10         9        14        13     9        0.000000       -0.404305         3    ;  uncertainty k = 0.248781
        10         9        14        13     9      180.000000        0.965820         4    ;  uncertainty k = 0.267591
        10         9        14        35     9        0.000000        0.150213         1    ;  uncertainty k = 0.316032
        10         9        14        35     9      180.000000        6.874749         2    ;  uncertainty k = 0.612333
        10         9        14        35     9        0.000000        1.482867         3    ;  uncertainty k = 0.213165
        10         9        14        35     9      180.000000        1.679697         4    ;  uncertainty k = 0.258977
        10        11        12        13     9        0.000000       -0.073712         1    ;  uncertainty k = 0.159132
        10        11        12        13     9      180.000000        7.945433         2    ;  uncertainty k = 0.728072
        10        11        12        13     9        0.000000        0.237869         3    ;  uncertainty k = 0.361995
        10        11        12        13     9      180.000000        1.328537         4    ;  uncertainty k = 0.358964
        10        11        12        33     9        0.000000        0.176090         1    ;  uncertainty k = 0.574540
        10        11        12        33     9      180.000000        5.845761         2    ;  uncertainty k = 0.726173
        10        11        12        33     9        0.000000        1.234507         3    ;  uncertainty k = 0.225381
        10        11        12        33     9      180.000000        1.458598         4    ;  uncertainty k = 0.177455
        10        11        21        22     9        0.000000        3.384366         1    ;  uncertainty k = 0.530089
        10        11        21        22     9      180.000000        6.460792         2    ;  uncertainty k = 0.153242
        10        11        21        22     9        0.000000        0.619464         3    ;  uncertainty k = 0.211579
        10        11        21        22     9      180.000000        0.000331         4    ;  uncertainty k = 0.096879
        10        11        21        38     9        0.000000        4.557200         1    ;  uncertainty k = 0.494329
        10        11        21        38     9      180.000000        6.372880         2    ;  uncertainty k = 0.392836
        10        11        21        38     9        0.000000        0.758624         3    ;  uncertainty k = 0.296327
        10        11        21        38     9      180.000000       -0.348227         4    ;  uncertainty k = 0.041135
        11        10         9        14     9        0.000000       -0.102423         1    ;  uncertainty k = 0.211277
        11        10         9        14     9      180.000000       11.067681         2    ;  uncertainty k = 0.309326
        11        10         9        14     9        0.000000       -0.235296         3    ;  uncertainty k = 0.258684
        11        10         9        14     9      180.000000        0.977510         4    ;  uncertainty k = 0.143871
        11        12        13        14     9        0.000000       -0.191175         1    ;  uncertainty k = 0.296372
        11        12        13        14     9      180.000000       14.192922         2    ;  uncertainty k = 0.193875
        11        12        13        14     9        0.000000       -0.988808         3    ;  uncertainty k = 0.358747
        11        12        13        14     9      180.000000        0.689347         4    ;  uncertainty k = 0.215409
        11        12        13        34     9        0.000000        0.008745         1    ;  uncertainty k = 0.271105
        11        12        13        34     9      180.000000        7.906785         2    ;  uncertainty k = 0.355014
        11        12        13        34     9        0.000000        1.181555         3    ;  uncertainty k = 0.304014
        11        12        13        34     9      180.000000        1.549599         4    ;  uncertainty k = 0.193568
        11        21        22        23     9        0.000000       -0.277193         1    ;  uncertainty k = 0.242795
        11        21        22        23     9      180.000000       -0.160612         2    ;  uncertainty k = 0.301049
        11        21        22        23     9        0.000000        0.860041         3    ;  uncertainty k = 0.088359
        11        21        22        23     9      180.000000        0.309882         4    ;  uncertainty k = 0.097552
        11        21        22        27     9        0.000000       -0.277193         1    ;  uncertainty k = 0.242795
        11        21        22        27     9      180.000000       -0.160612         2    ;  uncertainty k = 0.301049
        11        21        22        27     9        0.000000        0.860041         3    ;  uncertainty k = 0.088359
        11        21        22        27     9      180.000000        0.309882         4    ;  uncertainty k = 0.097552
        11        21        22        39     9        0.000000       -1.619691         1    ;  uncertainty k = 0.408978
        11        21        22        39     9      180.000000       -1.111115         2    ;  uncertainty k = 0.450739
        11        21        22        39     9        0.000000        0.908050         3    ;  uncertainty k = 0.141012
        11        21        22        39     9      180.000000        0.296216         4    ;  uncertainty k = 0.060925
        12        11        10        32     9        0.000000        0.231149         1    ;  uncertainty k = 0.394154
        12        11        10        32     9      180.000000        5.904814         2    ;  uncertainty k = 0.574407
        12        11        10        32     9        0.000000        1.304281         3    ;  uncertainty k = 0.238156
        12        11        10        32     9      180.000000        1.559688         4    ;  uncertainty k = 0.176136
        12        11        21        22     9        0.000000        3.529469         1    ;  uncertainty k = 0.406540
        12        11        21        22     9      180.000000        6.300627         2    ;  uncertainty k = 0.174227
        12        11        21        22     9        0.000000        0.644658         3    ;  uncertainty k = 0.126724
        12        11        21        22     9      180.000000        0.018042         4    ;  uncertainty k = 0.101649
        12        11        21        38     9        0.000000        4.567643         1    ;  uncertainty k = 0.339780
        12        11        21        38     9      180.000000        6.194534         2    ;  uncertainty k = 0.262213
        12        11        21        38     9        0.000000        0.836430         3    ;  uncertainty k = 0.198459
        12        11        21        38     9      180.000000       -0.344411         4    ;  uncertainty k = 0.056041
        12        13        14        35     9        0.000000        0.088368         1    ;  uncertainty k = 0.180682
        12        13        14        35     9      180.000000        7.766930         2    ;  uncertainty k = 0.210467
        12        13        14        35     9        0.000000        1.340742         3    ;  uncertainty k = 0.259609
        12        13        14        35     9      180.000000        1.860457         4    ;  uncertainty k = 0.145823
        13        12        11        21     9        0.000000        0.120920         1    ;  uncertainty k = 0.549044
        13        12        11        21     9      180.000000        8.442271         2    ;  uncertainty k = 0.265232
        13        12        11        21     9        0.000000        1.023839         3    ;  uncertainty k = 0.255340
        13        12        11        21     9      180.000000        1.595114         4    ;  uncertainty k = 0.100329
        14         9        10        32     9        0.000000        0.230556         1    ;  uncertainty k = 0.246255
        14         9        10        32     9      180.000000        7.165952         2    ;  uncertainty k = 0.381940
        14         9        10        32     9        0.000000        1.531849         3    ;  uncertainty k = 0.214497
        14         9        10        32     9      180.000000        1.622865         4    ;  uncertainty k = 0.218540
        14        13        12        33     9        0.000000        0.141650         1    ;  uncertainty k = 0.102849
        14        13        12        33     9      180.000000        8.103568         2    ;  uncertainty k = 0.348066
        14        13        12        33     9        0.000000        1.502037         3    ;  uncertainty k = 0.296762
        14        13        12        33     9      180.000000        1.786260         4    ;  uncertainty k = 0.120930
        15         4         3        16     9        0.000000       -0.300934         1    ;  uncertainty k = 0.650861
        15         4         3        16     9      180.000000        9.165092         2    ;  uncertainty k = 0.275746
        15         4         3        16     9        0.000000        1.456381         3    ;  uncertainty k = 0.310393
        15         4         3        16     9      180.000000        0.631618         4    ;  uncertainty k = 0.388932
        16        17        18        19     9        0.000000        1.079222         1    ;  uncertainty k = 0.841475
        16        17        18        19     9      180.000000        5.864588         2    ;  uncertainty k = 0.515928
        16        17        18        19     9        0.000000        1.140649         3    ;  uncertainty k = 0.463168
        16        17        18        19     9      180.000000        0.279519         4    ;  uncertainty k = 0.238932
        16        17        18        20     9        0.000000        1.079222         1    ;  uncertainty k = 0.841475
        16        17        18        20     9      180.000000        5.864588         2    ;  uncertainty k = 0.515928
        16        17        18        20     9        0.000000        1.140649         3    ;  uncertainty k = 0.463168
        16        17        18        20     9      180.000000        0.279519         4    ;  uncertainty k = 0.238932
        19        18        17        36     9        0.000000       -2.498422         1    ;  uncertainty k = 1.124580
        19        18        17        36     9      180.000000        1.806048         2    ;  uncertainty k = 0.648461
        19        18        17        36     9        0.000000        0.840718         3    ;  uncertainty k = 0.199496
        19        18        17        36     9      180.000000        0.238884         4    ;  uncertainty k = 0.091169
        19        18        17        37     9        0.000000       -2.498422         1    ;  uncertainty k = 1.124580
        19        18        17        37     9      180.000000        1.806048         2    ;  uncertainty k = 0.648461
        19        18        17        37     9        0.000000        0.840718         3    ;  uncertainty k = 0.199496
        19        18        17        37     9      180.000000        0.238884         4    ;  uncertainty k = 0.091169
        20        18        17        36     9        0.000000       -2.498422         1    ;  uncertainty k = 1.124580
        20        18        17        36     9      180.000000        1.806048         2    ;  uncertainty k = 0.648461
        20        18        17        36     9        0.000000        0.840718         3    ;  uncertainty k = 0.199496
        20        18        17        36     9      180.000000        0.238884         4    ;  uncertainty k = 0.091169
        20        18        17        37     9        0.000000       -2.498422         1    ;  uncertainty k = 1.124580
        20        18        17        37     9      180.000000        1.806048         2    ;  uncertainty k = 0.648461
        20        18        17        37     9        0.000000        0.840718         3    ;  uncertainty k = 0.199496
        20        18        17        37     9      180.000000        0.238884         4    ;  uncertainty k = 0.091169
        21        11        10        32     9        0.000000       -0.341765         1    ;  uncertainty k = 0.178279
        21        11        10        32     9      180.000000        7.315110         2    ;  uncertainty k = 0.470144
        21        11        10        32     9        0.000000        0.901262         3    ;  uncertainty k = 0.203045
        21        11        10        32     9      180.000000        1.103426         4    ;  uncertainty k = 0.208578
        21        11        12        33     9        0.000000       -0.208112         1    ;  uncertainty k = 0.295706
        21        11        12        33     9      180.000000        7.253053         2    ;  uncertainty k = 0.347875
        21        11        12        33     9        0.000000        0.951981         3    ;  uncertainty k = 0.279935
        21        11        12        33     9      180.000000        1.062878         4    ;  uncertainty k = 0.186193
        21        22        23        24     9        0.000000       -5.120912         1    ;  uncertainty k = 1.035310
        21        22        23        24     9      180.000000       -0.065894         2    ;  uncertainty k = 0.440425
        21        22        23        24     9        0.000000        1.231597         3    ;  uncertainty k = 0.254817
        21        22        23        24     9      180.000000       -0.143735         4    ;  uncertainty k = 0.075115
        21        22        23        40     9        0.000000       -0.535460         1    ;  uncertainty k = 0.150632
        21        22        23        40     9      180.000000       -0.364854         2    ;  uncertainty k = 0.186150
        21        22        23        40     9        0.000000        1.179605         3    ;  uncertainty k = 0.213686
        21        22        23        40     9      180.000000       -0.153264         4    ;  uncertainty k = 0.061851
        21        22        23        41     9        0.000000       -0.535460         1    ;  uncertainty k = 0.150632
        21        22        23        41     9      180.000000       -0.364854         2    ;  uncertainty k = 0.186150
        21        22        23        41     9        0.000000        1.179605         3    ;  uncertainty k = 0.213686
        21        22        23        41     9      180.000000       -0.153264         4    ;  uncertainty k = 0.061851
        21        22        27        26     9        0.000000       -5.120912         1    ;  uncertainty k = 1.035310
        21        22        27        26     9      180.000000       -0.065894         2    ;  uncertainty k = 0.440425
        21        22        27        26     9        0.000000        1.231597         3    ;  uncertainty k = 0.254817
        21        22        27        26     9      180.000000       -0.143735         4    ;  uncertainty k = 0.075115
        21        22        27        46     9        0.000000       -0.535460         1    ;  uncertainty k = 0.150632
        21        22        27        46     9      180.000000       -0.364854         2    ;  uncertainty k = 0.186150
        21        22        27        46     9        0.000000        1.179605         3    ;  uncertainty k = 0.213686
        21        22        27        46     9      180.000000       -0.153264         4    ;  uncertainty k = 0.061851
        21        22        27        47     9        0.000000       -0.535460         1    ;  uncertainty k = 0.150632
        21        22        27        47     9      180.000000       -0.364854         2    ;  uncertainty k = 0.186150
        21        22        27        47     9        0.000000        1.179605         3    ;  uncertainty k = 0.213686
        21        22        27        47     9      180.000000       -0.153264         4    ;  uncertainty k = 0.061851
        22        23        24        25     9        0.000000       -0.138552         1    ;  uncertainty k = 0.423309
        22        23        24        25     9      180.000000       -4.604611         2    ;  uncertainty k = 1.100745
        22        23        24        25     9        0.000000        2.102335         3    ;  uncertainty k = 0.383267
        22        23        24        25     9      180.000000       -0.491002         4    ;  uncertainty k = 0.128408
        22        23        24        42     9        0.000000        2.808432         1    ;  uncertainty k = 0.519470
        22        23        24        42     9      180.000000       -2.335500         2    ;  uncertainty k = 0.270923
        22        23        24        42     9        0.000000       -0.081316         3    ;  uncertainty k = 0.174607
        22        23        24        42     9      180.000000        0.353836         4    ;  uncertainty k = 0.140329
        22        23        24        43     9        0.000000        2.808432         1    ;  uncertainty k = 0.519470
        22        23        24        43     9      180.000000       -2.335500         2    ;  uncertainty k = 0.270923
        22        23        24        43     9        0.000000       -0.081316         3    ;  uncertainty k = 0.174607
        22        23        24        43     9      180.000000        0.353836         4    ;  uncertainty k = 0.140329
        22        27        26        25     9        0.000000       -0.138552         1    ;  uncertainty k = 0.423309
        22        27        26        25     9      180.000000       -4.604611         2    ;  uncertainty k = 1.100745
        22        27        26        25     9        0.000000        2.102335         3    ;  uncertainty k = 0.383267
        22        27        26        25     9      180.000000       -0.491002         4    ;  uncertainty k = 0.128408
        22        27        26        44     9        0.000000        2.808432         1    ;  uncertainty k = 0.519470
        22        27        26        44     9      180.000000       -2.335500         2    ;  uncertainty k = 0.270923
        22        27        26        44     9        0.000000       -0.081316         3    ;  uncertainty k = 0.174607
        22        27        26        44     9      180.000000        0.353836         4    ;  uncertainty k = 0.140329
        22        27        26        45     9        0.000000        2.808432         1    ;  uncertainty k = 0.519470
        22        27        26        45     9      180.000000       -2.335500         2    ;  uncertainty k = 0.270923
        22        27        26        45     9        0.000000       -0.081316         3    ;  uncertainty k = 0.174607
        22        27        26        45     9      180.000000        0.353836         4    ;  uncertainty k = 0.140329
        23        22        21        38     9        0.000000        2.841835         1    ;  uncertainty k = 0.368019
        23        22        21        38     9      180.000000       -1.817583         2    ;  uncertainty k = 0.255149
        23        22        21        38     9        0.000000        0.197702         3    ;  uncertainty k = 0.122169
        23        22        21        38     9      180.000000        0.111128         4    ;  uncertainty k = 0.094779
        23        22        27        26     9        0.000000       -7.387009         1    ;  uncertainty k = 1.097980
        23        22        27        26     9      180.000000        0.758205         2    ;  uncertainty k = 0.792366
        23        22        27        26     9        0.000000        1.278065         3    ;  uncertainty k = 0.152954
        23        22        27        26     9      180.000000       -1.374110         4    ;  uncertainty k = 0.204710
        23        22        27        46     9        0.000000       -1.844686         1    ;  uncertainty k = 0.323911
        23        22        27        46     9      180.000000       -0.032260         2    ;  uncertainty k = 0.103578
        23        22        27        46     9        0.000000        0.269779         3    ;  uncertainty k = 0.112380
        23        22        27        46     9      180.000000       -0.144836         4    ;  uncertainty k = 0.053686
        23        22        27        47     9        0.000000       -1.844686         1    ;  uncertainty k = 0.323911
        23        22        27        47     9      180.000000       -0.032260         2    ;  uncertainty k = 0.103578
        23        22        27        47     9        0.000000        0.269779         3    ;  uncertainty k = 0.112380
        23        22        27        47     9      180.000000       -0.144836         4    ;  uncertainty k = 0.053686
        23        24        25        26     9        0.000000       -4.045265         1    ;  uncertainty k = 1.883853
        23        24        25        26     9      180.000000        0.756014         2    ;  uncertainty k = 0.766658
        23        24        25        26     9        0.000000        0.570690         3    ;  uncertainty k = 0.309064
        23        24        25        26     9      180.000000       -0.636959         4    ;  uncertainty k = 0.222480
        23        24        25        28     9        0.000000       -7.720604         1    ;  uncertainty k = 0.941876
        23        24        25        28     9      180.000000       -1.760450         2    ;  uncertainty k = 0.499368
        23        24        25        28     9        0.000000       -0.179407         3    ;  uncertainty k = 0.364803
        23        24        25        28     9      180.000000       -0.837081         4    ;  uncertainty k = 0.198014
        24        23        22        27     9        0.000000       -7.387009         1    ;  uncertainty k = 1.097980
        24        23        22        27     9      180.000000        0.758205         2    ;  uncertainty k = 0.792366
        24        23        22        27     9        0.000000        1.278065         3    ;  uncertainty k = 0.152954
        24        23        22        27     9      180.000000       -1.374110         4    ;  uncertainty k = 0.204710
        24        23        22        39     9        0.000000       -1.466194         1    ;  uncertainty k = 0.475855
        24        23        22        39     9      180.000000       -0.743289         2    ;  uncertainty k = 0.326178
        24        23        22        39     9        0.000000        0.078219         3    ;  uncertainty k = 0.142319
        24        23        22        39     9      180.000000       -0.158908         4    ;  uncertainty k = 0.089167
        24        25        26        27     9        0.000000       -4.045265         1    ;  uncertainty k = 1.883853
        24        25        26        27     9      180.000000        0.756014         2    ;  uncertainty k = 0.766658
        24        25        26        27     9        0.000000        0.570690         3    ;  uncertainty k = 0.309064
        24        25        26        27     9      180.000000       -0.636959         4    ;  uncertainty k = 0.222480
        24        25        26        44     9        0.000000       -6.120272         1    ;  uncertainty k = 0.452249
        24        25        26        44     9      180.000000        0.159031         2    ;  uncertainty k = 0.335729
        24        25        26        44     9        0.000000        0.726772         3    ;  uncertainty k = 0.201732
        24        25        26        44     9      180.000000        0.025221         4    ;  uncertainty k = 0.014413
        24        25        26        45     9        0.000000       -6.120272         1    ;  uncertainty k = 0.452249
        24        25        26        45     9      180.000000        0.159031         2    ;  uncertainty k = 0.335729
        24        25        26        45     9        0.000000        0.726772         3    ;  uncertainty k = 0.201732
        24        25        26        45     9      180.000000        0.025221         4    ;  uncertainty k = 0.014413
        24        25        28        29     9        0.000000        1.334055         1    ;  uncertainty k = 0.304373
        24        25        28        29     9      180.000000        2.384772         2    ;  uncertainty k = 0.492533
        24        25        28        29     9        0.000000        0.793160         3    ;  uncertainty k = 0.183565
        24        25        28        29     9      180.000000       -0.333233         4    ;  uncertainty k = 0.140446
        24        25        28        30     9        0.000000        1.334055         1    ;  uncertainty k = 0.304373
        24        25        28        30     9      180.000000        2.384772         2    ;  uncertainty k = 0.492533
        24        25        28        30     9        0.000000        0.793160         3    ;  uncertainty k = 0.183565
        24        25        28        30     9      180.000000       -0.333233         4    ;  uncertainty k = 0.140446
        24        25        28        31     9        0.000000       -6.615107         1    ;  uncertainty k = 0.403882
        24        25        28        31     9      180.000000       -2.758582         2    ;  uncertainty k = 0.639122
        24        25        28        31     9        0.000000       -0.075769         3    ;  uncertainty k = 0.431348
        24        25        28        31     9      180.000000       -0.248496         4    ;  uncertainty k = 0.155559
        25        24        23        40     9        0.000000       -0.839642         1    ;  uncertainty k = 0.248411
        25        24        23        40     9      180.000000       -0.197491         2    ;  uncertainty k = 0.438849
        25        24        23        40     9        0.000000        0.873156         3    ;  uncertainty k = 0.127018
        25        24        23        40     9      180.000000       -0.276458         4    ;  uncertainty k = 0.197594
        25        24        23        41     9        0.000000       -0.839642         1    ;  uncertainty k = 0.248411
        25        24        23        41     9      180.000000       -0.197491         2    ;  uncertainty k = 0.438849
        25        24        23        41     9        0.000000        0.873156         3    ;  uncertainty k = 0.127018
        25        24        23        41     9      180.000000       -0.276458         4    ;  uncertainty k = 0.197594
        25        26        27        46     9        0.000000       -0.839642         1    ;  uncertainty k = 0.248411
        25        26        27        46     9      180.000000       -0.197491         2    ;  uncertainty k = 0.438849
        25        26        27        46     9        0.000000        0.873156         3    ;  uncertainty k = 0.127018
        25        26        27        46     9      180.000000       -0.276458         4    ;  uncertainty k = 0.197594
        25        26        27        47     9        0.000000       -0.839642         1    ;  uncertainty k = 0.248411
        25        26        27        47     9      180.000000       -0.197491         2    ;  uncertainty k = 0.438849
        25        26        27        47     9        0.000000        0.873156         3    ;  uncertainty k = 0.127018
        25        26        27        47     9      180.000000       -0.276458         4    ;  uncertainty k = 0.197594
        25        28        31        48     9        0.000000        1.305129         1    ;  uncertainty k = 1.273187
        25        28        31        48     9      180.000000       -1.676336         2    ;  uncertainty k = 0.327846
        25        28        31        48     9        0.000000        0.245733         3    ;  uncertainty k = 0.151407
        25        28        31        48     9      180.000000        0.016749         4    ;  uncertainty k = 0.119540
        25        28        31        49     9        0.000000        1.305130         1    ;  uncertainty k = 1.273187
        25        28        31        49     9      180.000000       -1.676336         2    ;  uncertainty k = 0.327846
        25        28        31        49     9        0.000000        0.245734         3    ;  uncertainty k = 0.151407
        25        28        31        49     9      180.000000        0.016749         4    ;  uncertainty k = 0.119540
        25        28        31        50     9        0.000000        1.305130         1    ;  uncertainty k = 1.273187
        25        28        31        50     9      180.000000       -1.676336         2    ;  uncertainty k = 0.327846
        25        28        31        50     9        0.000000        0.245734         3    ;  uncertainty k = 0.151407
        25        28        31        50     9      180.000000        0.016749         4    ;  uncertainty k = 0.119540
        26        25        24        42     9        0.000000       -6.120272         1    ;  uncertainty k = 0.452249
        26        25        24        42     9      180.000000        0.159031         2    ;  uncertainty k = 0.335729
        26        25        24        42     9        0.000000        0.726772         3    ;  uncertainty k = 0.201732
        26        25        24        42     9      180.000000        0.025221         4    ;  uncertainty k = 0.014413
        26        25        24        43     9        0.000000       -6.120272         1    ;  uncertainty k = 0.452249
        26        25        24        43     9      180.000000        0.159031         2    ;  uncertainty k = 0.335729
        26        25        24        43     9        0.000000        0.726772         3    ;  uncertainty k = 0.201732
        26        25        24        43     9      180.000000        0.025221         4    ;  uncertainty k = 0.014413
        26        25        28        29     9        0.000000        1.334055         1    ;  uncertainty k = 0.304373
        26        25        28        29     9      180.000000        2.384772         2    ;  uncertainty k = 0.492533
        26        25        28        29     9        0.000000        0.793160         3    ;  uncertainty k = 0.183565
        26        25        28        29     9      180.000000       -0.333233         4    ;  uncertainty k = 0.140446
        26        25        28        30     9        0.000000        1.334055         1    ;  uncertainty k = 0.304373
        26        25        28        30     9      180.000000        2.384772         2    ;  uncertainty k = 0.492533
        26        25        28        30     9        0.000000        0.793160         3    ;  uncertainty k = 0.183565
        26        25        28        30     9      180.000000       -0.333233         4    ;  uncertainty k = 0.140446
        26        25        28        31     9        0.000000       -6.615107         1    ;  uncertainty k = 0.403882
        26        25        28        31     9      180.000000       -2.758582         2    ;  uncertainty k = 0.639122
        26        25        28        31     9        0.000000       -0.075769         3    ;  uncertainty k = 0.431348
        26        25        28        31     9      180.000000       -0.248496         4    ;  uncertainty k = 0.155559
        26        27        22        39     9        0.000000       -1.466194         1    ;  uncertainty k = 0.475855
        26        27        22        39     9      180.000000       -0.743289         2    ;  uncertainty k = 0.326178
        26        27        22        39     9        0.000000        0.078219         3    ;  uncertainty k = 0.142319
        26        27        22        39     9      180.000000       -0.158908         4    ;  uncertainty k = 0.089167
        27        22        21        38     9        0.000000        2.841835         1    ;  uncertainty k = 0.368019
        27        22        21        38     9      180.000000       -1.817583         2    ;  uncertainty k = 0.255149
        27        22        21        38     9        0.000000        0.197702         3    ;  uncertainty k = 0.122169
        27        22        21        38     9      180.000000        0.111128         4    ;  uncertainty k = 0.094779
        27        22        23        40     9        0.000000       -1.844686         1    ;  uncertainty k = 0.323911
        27        22        23        40     9      180.000000       -0.032260         2    ;  uncertainty k = 0.103578
        27        22        23        40     9        0.000000        0.269779         3    ;  uncertainty k = 0.112380
        27        22        23        40     9      180.000000       -0.144836         4    ;  uncertainty k = 0.053686
        27        22        23        41     9        0.000000       -1.844686         1    ;  uncertainty k = 0.323911
        27        22        23        41     9      180.000000       -0.032260         2    ;  uncertainty k = 0.103578
        27        22        23        41     9        0.000000        0.269779         3    ;  uncertainty k = 0.112380
        27        22        23        41     9      180.000000       -0.144836         4    ;  uncertainty k = 0.053686
        27        26        25        28     9        0.000000       -7.720604         1    ;  uncertainty k = 0.941876
        27        26        25        28     9      180.000000       -1.760450         2    ;  uncertainty k = 0.499368
        27        26        25        28     9        0.000000       -0.179407         3    ;  uncertainty k = 0.364803
        27        26        25        28     9      180.000000       -0.837081         4    ;  uncertainty k = 0.198014
        28        25        24        42     9        0.000000        0.200683         1    ;  uncertainty k = 0.437250
        28        25        24        42     9      180.000000       -3.187510         2    ;  uncertainty k = 0.335173
        28        25        24        42     9        0.000000       -0.409585         3    ;  uncertainty k = 0.134748
        28        25        24        42     9      180.000000        0.219333         4    ;  uncertainty k = 0.071033
        28        25        24        43     9        0.000000        0.200683         1    ;  uncertainty k = 0.437250
        28        25        24        43     9      180.000000       -3.187510         2    ;  uncertainty k = 0.335173
        28        25        24        43     9        0.000000       -0.409585         3    ;  uncertainty k = 0.134748
        28        25        24        43     9      180.000000        0.219333         4    ;  uncertainty k = 0.071033
        28        25        26        44     9        0.000000        0.200683         1    ;  uncertainty k = 0.437250
        28        25        26        44     9      180.000000       -3.187510         2    ;  uncertainty k = 0.335173
        28        25        26        44     9        0.000000       -0.409585         3    ;  uncertainty k = 0.134748
        28        25        26        44     9      180.000000        0.219333         4    ;  uncertainty k = 0.071033
        28        25        26        45     9        0.000000        0.200683         1    ;  uncertainty k = 0.437250
        28        25        26        45     9      180.000000       -3.187510         2    ;  uncertainty k = 0.335173
        28        25        26        45     9        0.000000       -0.409585         3    ;  uncertainty k = 0.134748
        28        25        26        45     9      180.000000        0.219333         4    ;  uncertainty k = 0.071033
        29        28        31        48     9        0.000000        0.154912         1    ;  uncertainty k = 0.731258
        29        28        31        48     9      180.000000       -0.339597         2    ;  uncertainty k = 0.391768
        29        28        31        48     9        0.000000        0.664765         3    ;  uncertainty k = 0.078046
        29        28        31        48     9      180.000000        0.046399         4    ;  uncertainty k = 0.112363
        29        28        31        49     9        0.000000        0.154912         1    ;  uncertainty k = 0.731258
        29        28        31        49     9      180.000000       -0.339597         2    ;  uncertainty k = 0.391768
        29        28        31        49     9        0.000000        0.664765         3    ;  uncertainty k = 0.078046
        29        28        31        49     9      180.000000        0.046399         4    ;  uncertainty k = 0.112363
        29        28        31        50     9        0.000000        0.154912         1    ;  uncertainty k = 0.731258
        29        28        31        50     9      180.000000       -0.339597         2    ;  uncertainty k = 0.391768
        29        28        31        50     9        0.000000        0.664765         3    ;  uncertainty k = 0.078046
        29        28        31        50     9      180.000000        0.046399         4    ;  uncertainty k = 0.112363
        30        28        31        48     9        0.000000        0.154912         1    ;  uncertainty k = 0.731258
        30        28        31        48     9      180.000000       -0.339597         2    ;  uncertainty k = 0.391768
        30        28        31        48     9        0.000000        0.664765         3    ;  uncertainty k = 0.078046
        30        28        31        48     9      180.000000        0.046399         4    ;  uncertainty k = 0.112363
        30        28        31        49     9        0.000000        0.154912         1    ;  uncertainty k = 0.731258
        30        28        31        49     9      180.000000       -0.339597         2    ;  uncertainty k = 0.391768
        30        28        31        49     9        0.000000        0.664765         3    ;  uncertainty k = 0.078046
        30        28        31        49     9      180.000000        0.046399         4    ;  uncertainty k = 0.112363
        30        28        31        50     9        0.000000        0.154912         1    ;  uncertainty k = 0.731258
        30        28        31        50     9      180.000000       -0.339597         2    ;  uncertainty k = 0.391768
        30        28        31        50     9        0.000000        0.664765         3    ;  uncertainty k = 0.078046
        30        28        31        50     9      180.000000        0.046399         4    ;  uncertainty k = 0.112363
        33        12        13        34     9        0.000000       -0.030964         1    ;  uncertainty k = 0.241397
        33        12        13        34     9      180.000000        7.640900         2    ;  uncertainty k = 0.355361
        33        12        13        34     9        0.000000       -0.381487         3    ;  uncertainty k = 0.259502
        33        12        13        34     9      180.000000        0.184223         4    ;  uncertainty k = 0.153158
        34        13        14        35     9        0.000000       -0.050526         1    ;  uncertainty k = 0.285711
        34        13        14        35     9      180.000000        7.657891         2    ;  uncertainty k = 0.366062
        34        13        14        35     9        0.000000       -0.453043         3    ;  uncertainty k = 0.297900
        34        13        14        35     9      180.000000        0.118834         4    ;  uncertainty k = 0.128780
        38        21        22        39     9        0.000000        1.900511         1    ;  uncertainty k = 0.549901
        38        21        22        39     9      180.000000       -3.254433         2    ;  uncertainty k = 0.371707
        38        21        22        39     9        0.000000       -0.041544         3    ;  uncertainty k = 0.134753
        38        21        22        39     9      180.000000        0.164363         4    ;  uncertainty k = 0.065312
        39        22        23        40     9        0.000000        1.424511         1    ;  uncertainty k = 0.552611
        39        22        23        40     9      180.000000       -0.379491         2    ;  uncertainty k = 0.197817
        39        22        23        40     9        0.000000        0.015021         3    ;  uncertainty k = 0.104245
        39        22        23        40     9      180.000000        0.051316         4    ;  uncertainty k = 0.025024
        39        22        23        41     9        0.000000        1.424511         1    ;  uncertainty k = 0.552611
        39        22        23        41     9      180.000000       -0.379491         2    ;  uncertainty k = 0.197817
        39        22        23        41     9        0.000000        0.015021         3    ;  uncertainty k = 0.104245
        39        22        23        41     9      180.000000        0.051316         4    ;  uncertainty k = 0.025024
        39        22        27        46     9        0.000000        1.424511         1    ;  uncertainty k = 0.552611
        39        22        27        46     9      180.000000       -0.379491         2    ;  uncertainty k = 0.197817
        39        22        27        46     9        0.000000        0.015021         3    ;  uncertainty k = 0.104245
        39        22        27        46     9      180.000000        0.051316         4    ;  uncertainty k = 0.025024
        39        22        27        47     9        0.000000        1.424511         1    ;  uncertainty k = 0.552611
        39        22        27        47     9      180.000000       -0.379491         2    ;  uncertainty k = 0.197817
        39        22        27        47     9        0.000000        0.015021         3    ;  uncertainty k = 0.104245
        39        22        27        47     9      180.000000        0.051316         4    ;  uncertainty k = 0.025024
        40        23        24        42     9        0.000000       -0.040393         1    ;  uncertainty k = 0.294728
        40        23        24        42     9      180.000000        0.481534         2    ;  uncertainty k = 0.347792
        40        23        24        42     9        0.000000        0.104722         3    ;  uncertainty k = 0.077847
        40        23        24        42     9      180.000000       -0.248964         4    ;  uncertainty k = 0.093447
        40        23        24        43     9        0.000000       -0.040393         1    ;  uncertainty k = 0.294728
        40        23        24        43     9      180.000000        0.481534         2    ;  uncertainty k = 0.347792
        40        23        24        43     9        0.000000        0.104722         3    ;  uncertainty k = 0.077847
        40        23        24        43     9      180.000000       -0.248964         4    ;  uncertainty k = 0.093447
        41        23        24        42     9        0.000000       -0.040393         1    ;  uncertainty k = 0.294728
        41        23        24        42     9      180.000000        0.481534         2    ;  uncertainty k = 0.347792
        41        23        24        42     9        0.000000        0.104722         3    ;  uncertainty k = 0.077847
        41        23        24        42     9      180.000000       -0.248964         4    ;  uncertainty k = 0.093447
        41        23        24        43     9        0.000000       -0.040393         1    ;  uncertainty k = 0.294728
        41        23        24        43     9      180.000000        0.481534         2    ;  uncertainty k = 0.347792
        41        23        24        43     9        0.000000        0.104722         3    ;  uncertainty k = 0.077847
        41        23        24        43     9      180.000000       -0.248964         4    ;  uncertainty k = 0.093447
        44        26        27        46     9        0.000000       -0.040393         1    ;  uncertainty k = 0.294728
        44        26        27        46     9      180.000000        0.481534         2    ;  uncertainty k = 0.347792
        44        26        27        46     9        0.000000        0.104722         3    ;  uncertainty k = 0.077847
        44        26        27        46     9      180.000000       -0.248964         4    ;  uncertainty k = 0.093447
        44        26        27        47     9        0.000000       -0.040393         1    ;  uncertainty k = 0.294728
        44        26        27        47     9      180.000000        0.481534         2    ;  uncertainty k = 0.347792
        44        26        27        47     9        0.000000        0.104722         3    ;  uncertainty k = 0.077847
        44        26        27        47     9      180.000000       -0.248964         4    ;  uncertainty k = 0.093447
        45        26        27        46     9        0.000000       -0.040393         1    ;  uncertainty k = 0.294728
        45        26        27        46     9      180.000000        0.481534         2    ;  uncertainty k = 0.347792
        45        26        27        46     9        0.000000        0.104722         3    ;  uncertainty k = 0.077847
        45        26        27        46     9      180.000000       -0.248964         4    ;  uncertainty k = 0.093447
        45        26        27        47     9        0.000000       -0.040393         1    ;  uncertainty k = 0.294728
        45        26        27        47     9      180.000000        0.481534         2    ;  uncertainty k = 0.347792
        45        26        27        47     9        0.000000        0.104722         3    ;  uncertainty k = 0.077847
        45        26        27        47     9      180.000000       -0.248964         4    ;  uncertainty k = 0.093447

[ dihedrals ] ; impropers
;       ai        aj        ak        al funct           phase               k        pn
         2         1         3         6     4      180.000000        2.833395         2    ;  uncertainty k = 1.376267
         2         3         6         1     4      180.000000        2.833395         2    ;  uncertainty k = 1.376267
         2         6         1         3     4      180.000000        2.833395         2    ;  uncertainty k = 1.376267
         3         2         4        16     4      180.000000        5.361893         2    ;  uncertainty k = 0.990709
         3         4        16         2     4      180.000000        5.361893         2    ;  uncertainty k = 0.990709
         3        16         2         4     4      180.000000        5.361893         2    ;  uncertainty k = 0.990709
         4         3         5        15     4      180.000000        2.498686         2    ;  uncertainty k = 0.371762
         4         5        15         3     4      180.000000        2.498686         2    ;  uncertainty k = 0.371762
         4        15         3         5     4      180.000000        2.498686         2    ;  uncertainty k = 0.371762
         5         1         4         9     4      180.000000        5.470434         2    ;  uncertainty k = 0.356711
         5         4         9         1     4      180.000000        5.470434         2    ;  uncertainty k = 0.356711
         5         9         1         4     4      180.000000        5.470434         2    ;  uncertainty k = 0.356711
         6         2         7         8     4      180.000000       66.076957         2    ;  uncertainty k = 0.057409
         6         7         8         2     4      180.000000       66.076957         2    ;  uncertainty k = 0.057409
         6         8         2         7     4      180.000000       66.076957         2    ;  uncertainty k = 0.057409
         9         5        10        14     4      180.000000       14.801118         2    ;  uncertainty k = 0.086155
         9        10        14         5     4      180.000000       14.801118         2    ;  uncertainty k = 0.086155
         9        14         5        10     4      180.000000       14.801118         2    ;  uncertainty k = 0.086155
        10         9        11        32     4      180.000000        2.257831         2    ;  uncertainty k = 0.405434
        10        11        32         9     4      180.000000        2.257831         2    ;  uncertainty k = 0.405434
        10        32         9        11     4      180.000000        2.257831         2    ;  uncertainty k = 0.405434
        11        10        12        21     4      180.000000       20.823615         2    ;  uncertainty k = 0.084663
        11        12        21        10     4      180.000000       20.823615         2    ;  uncertainty k = 0.084663
        11        21        10        12     4      180.000000       20.823615         2    ;  uncertainty k = 0.084663
        12        11        13        33     4      180.000000        2.355810         2    ;  uncertainty k = 0.307570
        12        13        33        11     4      180.000000        2.355810         2    ;  uncertainty k = 0.307570
        12        33        11        13     4      180.000000        2.355810         2    ;  uncertainty k = 0.307570
        13        12        14        34     4      180.000000        4.269650         2    ;  uncertainty k = 0.170671
        13        14        34        12     4      180.000000        4.269650         2    ;  uncertainty k = 0.170671
        13        34        12        14     4      180.000000        4.269650         2    ;  uncertainty k = 0.170671
        14         9        13        35     4      180.000000        3.287673         2    ;  uncertainty k = 0.208425
        14        13        35         9     4      180.000000        3.287673         2    ;  uncertainty k = 0.208425
        14        35         9        13     4      180.000000        3.287673         2    ;  uncertainty k = 0.208425
        18        17        19        20     4      180.000000       68.314311         2    ;  uncertainty k = 0.022612
        18        19        20        17     4      180.000000       68.314311         2    ;  uncertainty k = 0.022612
        18        20        17        19     4      180.000000       68.314311         2    ;  uncertainty k = 0.022612

[ pairs ]
;       ai        aj funct
         1         7     1
         1         8     1
         1        10     1
         1        14     1
         1        15     1
         1        16     1
         2         9     1
         2        15     1
         2        17     1
         3         7     1
         3         8     1
         3         9     1
         3        18     1
         3        36     1
         3        37     1
         4         6     1
         4        10     1
         4        14     1
         4        17     1
         5         6     1
         5        11     1
         5        13     1
         5        16     1
         5        32     1
         5        35     1
         6        16     1
         9        12     1
         9        15     1
         9        21     1
         9        34     1
        10        13     1
        10        22     1
        10        33     1
        10        35     1
        10        38     1
        11        14     1
        11        23     1
        11        27     1
        11        34     1
        11        39     1
        12        22     1
        12        32     1
        12        35     1
        12        38     1
        13        21     1
        14        32     1
        14        33     1
        15        16     1
        16        19     1
        16        20     1
        19        36     1
        19        37     1
        20        36     1
        20        37     1
        21        24     1
        21        26     1
        21        32     1
        21        33     1
        21        40     1
        21        41     1
        21        46     1
        21        47     1
        22        25     1
        22        42     1
        22        43     1
        22        44     1
        22        45     1
        23        26     1
        23        28     1
        23        38     1
        23        46     1
        23        47     1
        24        27     1
        24        29     1
        24        30     1
        24        31     1
        24        39     1
        24        44     1
        24        45     1
        25        40     1
        25        41     1
        25        46     1
        25        47     1
        25        48     1
        25        49     1
        25        50     1
        26        29     1
        26        30     1
        26        31     1
        26        39     1
        26        42     1
        26        43     1
        27        28     1
        27        38     1
        27        40     1
        27        41     1
        28        42     1
        28        43     1
        28        44     1
        28        45     1
        29        48     1
        29        49     1
        29        50     1
        30        48     1
        30        49     1
        30        50     1
        33        34     1
        34        35     1
        38        39     1
        39        40     1
        39        41     1
        39        46     1
        39        47     1
        40        42     1
        40        43     1
        41        42     1
        41        43     1
        44        46     1
        44        47     1
        45        46     1
        45        47     1
