; ITP file created by ByteFF-joint-25, 2026-02-17 09:29:44.699113

[ atomtypes ]
;name           bonded.type        at.num        mass        charge   ptype           sigma         epsilon
 s0bf                                  16      0.0000       0.00000       A     3.53169e-01     1.18257e+00    ;  uncertainty sigma = 0.000054, epsilon = 0.003526
 c1bf                                   6      0.0000       0.00000       A     3.31500e-01     4.13284e-01    ;  uncertainty sigma = 0.000032, epsilon = 0.002310
 c2bf                                   6      0.0000       0.00000       A     3.31499e-01     4.12379e-01    ;  uncertainty sigma = 0.000033, epsilon = 0.001430
 c3bf                                   6      0.0000       0.00000       A     3.31521e-01     4.13601e-01    ;  uncertainty sigma = 0.000011, epsilon = 0.000933
 c4bf                                   6      0.0000       0.00000       A     3.31519e-01     4.13116e-01    ;  uncertainty sigma = 0.000021, epsilon = 0.000931
 c5bf                                   6      0.0000       0.00000       A     3.31527e-01     4.13208e-01    ;  uncertainty sigma = 0.000054, epsilon = 0.002324
 o6bf                                   8      0.0000       0.00000       A     3.04804e-01     6.11836e-01    ;  uncertainty sigma = 0.000044, epsilon = 0.001672
 o7bf                                   8      0.0000       0.00000       A     3.04804e-01     6.11836e-01    ;  uncertainty sigma = 0.000044, epsilon = 0.001672
 c8bf                                   6      0.0000       0.00000       A     3.31501e-01     4.13012e-01    ;  uncertainty sigma = 0.000009, epsilon = 0.000448
 c9bf                                   6      0.0000       0.00000       A     3.31524e-01     4.13363e-01    ;  uncertainty sigma = 0.000005, epsilon = 0.000865
 c10bf                                  6      0.0000       0.00000       A     3.31507e-01     4.13226e-01    ;  uncertainty sigma = 0.000013, epsilon = 0.000870
 c11bf                                  6      0.0000       0.00000       A     3.31521e-01     4.13203e-01    ;  uncertainty sigma = 0.000002, epsilon = 0.000548
 c12bf                                  6      0.0000       0.00000       A     3.31522e-01     4.13513e-01    ;  uncertainty sigma = 0.000003, epsilon = 0.000666
 c13bf                                  6      0.0000       0.00000       A     3.31521e-01     4.13277e-01    ;  uncertainty sigma = 0.000003, epsilon = 0.000634
 cl14bf                                17      0.0000       0.00000       A     3.46525e-01     1.10422e+00    ;  uncertainty sigma = 0.000013, epsilon = 0.000711
 o15bf                                  8      0.0000       0.00000       A     3.15797e-01     3.04152e-01    ;  uncertainty sigma = 0.000072, epsilon = 0.010057
 c16bf                                  6      0.0000       0.00000       A     3.39720e-01     4.50749e-01    ;  uncertainty sigma = 0.000029, epsilon = 0.002798
 c17bf                                  6      0.0000       0.00000       A     3.31523e-01     4.12941e-01    ;  uncertainty sigma = 0.000026, epsilon = 0.002863
 o18bf                                  8      0.0000       0.00000       A     3.04805e-01     6.12312e-01    ;  uncertainty sigma = 0.000022, epsilon = 0.002455
 o19bf                                  8      0.0000       0.00000       A     3.04805e-01     6.12312e-01    ;  uncertainty sigma = 0.000022, epsilon = 0.002455
 n20bf                                  7      0.0000       0.00000       A     3.27946e-01     6.44717e-01    ;  uncertainty sigma = 0.000033, epsilon = 0.000917
 c21bf                                  6      0.0000       0.00000       A     3.39792e-01     4.51330e-01    ;  uncertainty sigma = 0.000011, epsilon = 0.000898
 c22bf                                  6      0.0000       0.00000       A     3.39794e-01     4.50895e-01    ;  uncertainty sigma = 0.000006, epsilon = 0.000594
 c23bf                                  6      0.0000       0.00000       A     3.39757e-01     4.50321e-01    ;  uncertainty sigma = 0.000005, epsilon = 0.000485
 n24bf                                  7      0.0000       0.00000       A     3.36516e-01     3.59122e-01    ;  uncertainty sigma = 0.000022, epsilon = 0.001472
 c25bf                                  6      0.0000       0.00000       A     3.39757e-01     4.50321e-01    ;  uncertainty sigma = 0.000005, epsilon = 0.000485
 c26bf                                  6      0.0000       0.00000       A     3.39794e-01     4.50895e-01    ;  uncertainty sigma = 0.000006, epsilon = 0.000594
 s27bf                                 16      0.0000       0.00000       A     4.05888e-01     2.56891e-01    ;  uncertainty sigma = 0.000017, epsilon = 0.000907
 o28bf                                  8      0.0000       0.00000       A     3.04816e-01     6.11998e-01    ;  uncertainty sigma = 0.000009, epsilon = 0.000608
 o29bf                                  8      0.0000       0.00000       A     3.04816e-01     6.11998e-01    ;  uncertainty sigma = 0.000009, epsilon = 0.000608
 c30bf                                  6      0.0000       0.00000       A     3.39799e-01     4.50846e-01    ;  uncertainty sigma = 0.000016, epsilon = 0.001433
 c31bf                                  6      0.0000       0.00000       A     3.31503e-01     4.12959e-01    ;  uncertainty sigma = 0.000017, epsilon = 0.001220
 c32bf                                  6      0.0000       0.00000       A     3.31516e-01     4.13385e-01    ;  uncertainty sigma = 0.000003, epsilon = 0.000454
 c33bf                                  6      0.0000       0.00000       A     3.31517e-01     4.13357e-01    ;  uncertainty sigma = 0.000003, epsilon = 0.000583
 c34bf                                  6      0.0000       0.00000       A     3.31519e-01     4.13331e-01    ;  uncertainty sigma = 0.000003, epsilon = 0.000569
 c35bf                                  6      0.0000       0.00000       A     3.31517e-01     4.13357e-01    ;  uncertainty sigma = 0.000003, epsilon = 0.000583
 c36bf                                  6      0.0000       0.00000       A     3.31516e-01     4.13385e-01    ;  uncertainty sigma = 0.000003, epsilon = 0.000454
 h37bf                                  1      0.0000       0.00000       A     2.62548e-01     6.70805e-02    ;  uncertainty sigma = 0.000012, epsilon = 0.000580
 h38bf                                  1      0.0000       0.00000       A     2.62556e-01     6.70450e-02    ;  uncertainty sigma = 0.000012, epsilon = 0.000463
 h39bf                                  1      0.0000       0.00000       A     2.62563e-01     6.69897e-02    ;  uncertainty sigma = 0.000012, epsilon = 0.000446
 h40bf                                  1      0.0000       0.00000       A     2.62561e-01     6.70428e-02    ;  uncertainty sigma = 0.000012, epsilon = 0.000452
 h41bf                                  1      0.0000       0.00000       A     2.42291e-01     8.67021e-02    ;  uncertainty sigma = 0.000194, epsilon = 0.000950
 h42bf                                  1      0.0000       0.00000       A     2.42291e-01     8.67021e-02    ;  uncertainty sigma = 0.000194, epsilon = 0.000950
 h43bf                                  1      0.0000       0.00000       A     1.10678e-01     4.13568e-02    ;  uncertainty sigma = 0.000090, epsilon = 0.000744
 h44bf                                  1      0.0000       0.00000       A     2.42228e-01     8.69235e-02    ;  uncertainty sigma = 0.000023, epsilon = 0.000690
 h45bf                                  1      0.0000       0.00000       A     2.60030e-01     8.68440e-02    ;  uncertainty sigma = 0.000010, epsilon = 0.000536
 h46bf                                  1      0.0000       0.00000       A     2.60030e-01     8.68440e-02    ;  uncertainty sigma = 0.000010, epsilon = 0.000536
 h47bf                                  1      0.0000       0.00000       A     2.42194e-01     8.69282e-02    ;  uncertainty sigma = 0.000025, epsilon = 0.000692
 h48bf                                  1      0.0000       0.00000       A     2.42194e-01     8.69282e-02    ;  uncertainty sigma = 0.000025, epsilon = 0.000692
 h49bf                                  1      0.0000       0.00000       A     2.42194e-01     8.69282e-02    ;  uncertainty sigma = 0.000025, epsilon = 0.000692
 h50bf                                  1      0.0000       0.00000       A     2.42194e-01     8.69282e-02    ;  uncertainty sigma = 0.000025, epsilon = 0.000692
 h51bf                                  1      0.0000       0.00000       A     2.60030e-01     8.68440e-02    ;  uncertainty sigma = 0.000010, epsilon = 0.000536
 h52bf                                  1      0.0000       0.00000       A     2.60030e-01     8.68440e-02    ;  uncertainty sigma = 0.000010, epsilon = 0.000536
 h53bf                                  1      0.0000       0.00000       A     2.42160e-01     8.67038e-02    ;  uncertainty sigma = 0.000064, epsilon = 0.000815
 h54bf                                  1      0.0000       0.00000       A     2.42160e-01     8.67038e-02    ;  uncertainty sigma = 0.000064, epsilon = 0.000815
 h55bf                                  1      0.0000       0.00000       A     2.62562e-01     6.71208e-02    ;  uncertainty sigma = 0.000008, epsilon = 0.000478
 h56bf                                  1      0.0000       0.00000       A     2.62558e-01     6.70323e-02    ;  uncertainty sigma = 0.000010, epsilon = 0.000442
 h57bf                                  1      0.0000       0.00000       A     2.62552e-01     6.70646e-02    ;  uncertainty sigma = 0.000011, epsilon = 0.000453
 h58bf                                  1      0.0000       0.00000       A     2.62558e-01     6.70323e-02    ;  uncertainty sigma = 0.000010, epsilon = 0.000442
 h59bf                                  1      0.0000       0.00000       A     2.62562e-01     6.71208e-02    ;  uncertainty sigma = 0.000008, epsilon = 0.000478

[ moleculetype ]
;name             nrexcl
 MOL                   3

[ atoms ]
;       nr            type      resi   res      atom      cgnr      charge          mass ; qtot
         1            s0bf         1   UNL        s0         1    -0.05944       32.0670 ; qtot   -0.059
         2            c1bf         1   UNL        c1         2    -0.15053       12.0110 ; qtot   -0.210
         3            c2bf         1   UNL        c2         3     0.10544       12.0110 ; qtot   -0.105
         4            c3bf         1   UNL        c3         4    -0.00149       12.0110 ; qtot   -0.106
         5            c4bf         1   UNL        c4         5    -0.06856       12.0110 ; qtot   -0.175
         6            c5bf         1   UNL        c5         6     0.93097       12.0110 ; qtot    0.756
         7            o6bf         1   UNL        o6         7    -0.81810       15.9990 ; qtot   -0.062
         8            o7bf         1   UNL        o7         8    -0.81810       15.9990 ; qtot   -0.880
         9            c8bf         1   UNL        c8         9     0.02475       12.0110 ; qtot   -0.855
        10            c9bf         1   UNL        c9        10    -0.18233       12.0110 ; qtot   -1.037
        11           c10bf         1   UNL       c10        11     0.16133       12.0110 ; qtot   -0.876
        12           c11bf         1   UNL       c11        12    -0.19079       12.0110 ; qtot   -1.067
        13           c12bf         1   UNL       c12        13    -0.09096       12.0110 ; qtot   -1.158
        14           c13bf         1   UNL       c13        14    -0.13574       12.0110 ; qtot   -1.294
        15          cl14bf         1   UNL      cl14        15    -0.11185       35.4530 ; qtot   -1.405
        16           o15bf         1   UNL       o15        16    -0.32684       15.9990 ; qtot   -1.732
        17           c16bf         1   UNL       c16        17    -0.04334       12.0110 ; qtot   -1.776
        18           c17bf         1   UNL       c17        18     0.91648       12.0110 ; qtot   -0.859
        19           o18bf         1   UNL       o18        19    -0.83281       15.9990 ; qtot   -1.692
        20           o19bf         1   UNL       o19        20    -0.83281       15.9990 ; qtot   -2.525
        21           n20bf         1   UNL       n20        21    -0.74906       14.0070 ; qtot   -3.274
        22           c21bf         1   UNL       c21        22     0.20770       12.0110 ; qtot   -3.066
        23           c22bf         1   UNL       c22        23    -0.10422       12.0110 ; qtot   -3.170
        24           c23bf         1   UNL       c23        24     0.20435       12.0110 ; qtot   -2.966
        25           n24bf         1   UNL       n24        25    -0.73938       14.0070 ; qtot   -3.705
        26           c25bf         1   UNL       c25        26     0.20435       12.0110 ; qtot   -3.501
        27           c26bf         1   UNL       c26        27    -0.10422       12.0110 ; qtot   -3.605
        28           s27bf         1   UNL       s27        28     1.14047       32.0670 ; qtot   -2.465
        29           o28bf         1   UNL       o28        29    -0.58827       15.9990 ; qtot   -3.053
        30           o29bf         1   UNL       o29        30    -0.58827       15.9990 ; qtot   -3.641
        31           c30bf         1   UNL       c30        31    -0.10260       12.0110 ; qtot   -3.744
        32           c31bf         1   UNL       c31        32    -0.08640       12.0110 ; qtot   -3.830
        33           c32bf         1   UNL       c32        33    -0.10541       12.0110 ; qtot   -3.936
        34           c33bf         1   UNL       c33        34    -0.12917       12.0110 ; qtot   -4.065
        35           c34bf         1   UNL       c34        35    -0.12175       12.0110 ; qtot   -4.187
        36           c35bf         1   UNL       c35        36    -0.12917       12.0110 ; qtot   -4.316
        37           c36bf         1   UNL       c36        37    -0.10541       12.0110 ; qtot   -4.421
        38           h37bf         1   UNL       h37        38     0.13986        1.0080 ; qtot   -4.281
        39           h38bf         1   UNL       h38        39     0.13179        1.0080 ; qtot   -4.150
        40           h39bf         1   UNL       h39        40     0.13626        1.0080 ; qtot   -4.013
        41           h40bf         1   UNL       h40        41     0.14269        1.0080 ; qtot   -3.871
        42           h41bf         1   UNL       h41        42     0.02267        1.0080 ; qtot   -3.848
        43           h42bf         1   UNL       h42        43     0.02267        1.0080 ; qtot   -3.825
        44           h43bf         1   UNL       h43        44     0.39961        1.0080 ; qtot   -3.426
        45           h44bf         1   UNL       h44        45     0.06053        1.0080 ; qtot   -3.365
        46           h45bf         1   UNL       h45        46     0.05926        1.0080 ; qtot   -3.306
        47           h46bf         1   UNL       h46        47     0.05926        1.0080 ; qtot   -3.247
        48           h47bf         1   UNL       h47        48     0.06174        1.0080 ; qtot   -3.185
        49           h48bf         1   UNL       h48        49     0.06174        1.0080 ; qtot   -3.123
        50           h49bf         1   UNL       h49        50     0.06174        1.0080 ; qtot   -3.061
        51           h50bf         1   UNL       h50        51     0.06174        1.0080 ; qtot   -3.000
        52           h51bf         1   UNL       h51        52     0.05926        1.0080 ; qtot   -2.940
        53           h52bf         1   UNL       h52        53     0.05926        1.0080 ; qtot   -2.881
        54           h53bf         1   UNL       h53        54     0.10127        1.0080 ; qtot   -2.780
        55           h54bf         1   UNL       h54        55     0.10127        1.0080 ; qtot   -2.679
        56           h55bf         1   UNL       h55        56     0.14029        1.0080 ; qtot   -2.538
        57           h56bf         1   UNL       h56        57     0.13299        1.0080 ; qtot   -2.405
        58           h57bf         1   UNL       h57        58     0.13198        1.0080 ; qtot   -2.273
        59           h58bf         1   UNL       h58        59     0.13299        1.0080 ; qtot   -2.140
        60           h59bf         1   UNL       h59        60     0.14031        1.0080 ; qtot   -2.000

[ bonds ]
;       ai        aj funct               r               k
         1         2     1        0.174224   168193.352490    ;  uncertainty r = 0.000346, k = 33.250008
         1         5     1        0.174421   167600.648950    ;  uncertainty r = 0.000219, k = 12.707179
         2         3     1        0.138073   385357.227734    ;  uncertainty r = 0.000144, k = 35.449732
         2         6     1        0.154027   192831.249170    ;  uncertainty r = 0.000284, k = 44.092656
         3         4     1        0.143701   247689.378027    ;  uncertainty r = 0.000422, k = 28.899133
         3        16     1        0.136017   308309.061816    ;  uncertainty r = 0.000374, k = 35.207316
         4         5     1        0.137804   380445.522266    ;  uncertainty r = 0.000206, k = 7.178362
         4        15     1        0.174413   191131.294873    ;  uncertainty r = 0.000189, k = 23.795026
         5         9     1        0.146420   274968.807764    ;  uncertainty r = 0.000142, k = 7.541919
         6         7     1        0.126155   550548.361035    ;  uncertainty r = 0.000230, k = 9.200009
         6         8     1        0.126155   550548.361035    ;  uncertainty r = 0.000230, k = 9.200009
         9        10     1        0.139881   347051.512598    ;  uncertainty r = 0.000094, k = 3.807195
         9        14     1        0.140237   349304.141016    ;  uncertainty r = 0.000025, k = 3.495993
        10        11     1        0.140724   361690.098730    ;  uncertainty r = 0.000045, k = 6.021521
        10        38     1        0.108899   336791.085107    ;  uncertainty r = 0.000022, k = 2.531563
        11        12     1        0.140941   361928.206738    ;  uncertainty r = 0.000067, k = 7.751592
        11        21     1        0.139656   340533.778320    ;  uncertainty r = 0.000093, k = 9.299274
        12        13     1        0.139380   371821.742578    ;  uncertainty r = 0.000036, k = 2.429869
        12        39     1        0.108873   337023.140820    ;  uncertainty r = 0.000023, k = 0.936943
        13        14     1        0.139369   367096.611230    ;  uncertainty r = 0.000034, k = 1.459504
        13        40     1        0.108779   332374.620801    ;  uncertainty r = 0.000017, k = 1.550752
        14        41     1        0.108757   334828.124121    ;  uncertainty r = 0.000027, k = 0.850115
        16        17     1        0.144463   220677.526123    ;  uncertainty r = 0.000617, k = 18.923520
        17        18     1        0.155276   162583.922119    ;  uncertainty r = 0.000268, k = 65.527194
        17        42     1        0.109684   316890.756348    ;  uncertainty r = 0.000080, k = 8.443642
        17        43     1        0.109684   316890.756348    ;  uncertainty r = 0.000080, k = 8.443642
        18        19     1        0.126286   541570.585938    ;  uncertainty r = 0.000058, k = 12.189171
        18        20     1        0.126286   541570.585938    ;  uncertainty r = 0.000058, k = 12.189171
        21        22     1        0.146259   234136.578711    ;  uncertainty r = 0.000084, k = 7.753098
        21        44     1        0.101386   415221.140625    ;  uncertainty r = 0.000050, k = 2.421602
        22        23     1        0.153823   205581.391602    ;  uncertainty r = 0.000032, k = 5.695215
        22        27     1        0.153823   205581.391602    ;  uncertainty r = 0.000032, k = 5.695215
        22        45     1        0.109618   302969.992822    ;  uncertainty r = 0.000029, k = 3.107582
        23        24     1        0.153043   210383.249194    ;  uncertainty r = 0.000034, k = 2.538289
        23        46     1        0.109607   310899.341895    ;  uncertainty r = 0.000023, k = 1.329036
        23        47     1        0.109607   310899.341895    ;  uncertainty r = 0.000023, k = 1.329036
        24        25     1        0.147392   220427.696582    ;  uncertainty r = 0.000066, k = 11.885726
        24        48     1        0.109564   306592.048730    ;  uncertainty r = 0.000043, k = 1.487022
        24        49     1        0.109564   306592.048730    ;  uncertainty r = 0.000043, k = 1.487022
        25        26     1        0.147392   220427.696582    ;  uncertainty r = 0.000066, k = 11.885726
        25        28     1        0.167957   119743.710156    ;  uncertainty r = 0.000111, k = 13.461252
        26        27     1        0.153043   210383.249194    ;  uncertainty r = 0.000034, k = 2.538289
        26        50     1        0.109564   306592.048730    ;  uncertainty r = 0.000043, k = 1.487022
        26        51     1        0.109564   306592.048730    ;  uncertainty r = 0.000043, k = 1.487022
        27        52     1        0.109607   310899.341895    ;  uncertainty r = 0.000023, k = 1.329036
        27        53     1        0.109607   310899.341895    ;  uncertainty r = 0.000023, k = 1.329036
        28        29     1        0.147216   517367.790527    ;  uncertainty r = 0.000046, k = 6.238391
        28        30     1        0.147216   517367.790527    ;  uncertainty r = 0.000046, k = 6.238391
        28        31     1        0.183347   144483.716968    ;  uncertainty r = 0.000059, k = 10.559041
        31        32     1        0.150254   236045.528711    ;  uncertainty r = 0.000070, k = 6.059591
        31        54     1        0.109543   319118.741455    ;  uncertainty r = 0.000033, k = 1.728383
        31        55     1        0.109543   319118.741455    ;  uncertainty r = 0.000033, k = 1.728383
        32        33     1        0.139903   352173.567236    ;  uncertainty r = 0.000032, k = 2.758771
        32        37     1        0.139903   352173.567236    ;  uncertainty r = 0.000032, k = 2.758771
        33        34     1        0.139513   367487.329004    ;  uncertainty r = 0.000019, k = 1.407067
        33        56     1        0.108838   333708.807080    ;  uncertainty r = 0.000023, k = 0.433138
        34        35     1        0.139644   370527.470801    ;  uncertainty r = 0.000023, k = 1.213490
        34        57     1        0.108843   334218.195801    ;  uncertainty r = 0.000011, k = 0.972131
        35        36     1        0.139644   370527.470801    ;  uncertainty r = 0.000023, k = 1.213490
        35        58     1        0.108851   334582.431592    ;  uncertainty r = 0.000012, k = 0.680626
        36        37     1        0.139513   367487.329004    ;  uncertainty r = 0.000019, k = 1.407067
        36        59     1        0.108843   334218.195801    ;  uncertainty r = 0.000011, k = 0.972131
        37        60     1        0.108838   333708.807080    ;  uncertainty r = 0.000023, k = 0.433128

[ angles ]
;       ai        aj        ak funct           theta             cth
         1         2         3     1      112.392563      492.935991    ;  uncertainty theta = 0.004866, k = 0.415082
         1         2         6     1      115.448288      321.306474    ;  uncertainty theta = 0.011508, k = 0.268215
         1         5         4     1      111.658936      456.012172    ;  uncertainty theta = 0.002607, k = 0.414909
         1         5         9     1      118.818382      341.701941    ;  uncertainty theta = 0.007344, k = 0.153786
         2         1         5     1       93.368858     1118.052188    ;  uncertainty theta = 0.008453, k = 0.188350
         2         3         4     1      115.072433      497.764324    ;  uncertainty theta = 0.005973, k = 0.318519
         2         3        16     1      123.115883      385.870192    ;  uncertainty theta = 0.006973, k = 0.396585
         2         6         7     1      114.991516      370.263570    ;  uncertainty theta = 0.012548, k = 0.172706
         2         6         8     1      114.991516      370.263570    ;  uncertainty theta = 0.012548, k = 0.172706
         3         2         6     1      128.278946      304.723473    ;  uncertainty theta = 0.014408, k = 0.303100
         3         4         5     1      117.486526      512.631072    ;  uncertainty theta = 0.002975, k = 0.426129
         3         4        15     1      119.751076      391.760230    ;  uncertainty theta = 0.004990, k = 0.161521
         3        16        17     1      112.097488      463.485671    ;  uncertainty theta = 0.007628, k = 0.226336
         4         3        16     1      118.407387      390.979050    ;  uncertainty theta = 0.008986, k = 0.170943
         4         5         9     1      126.093094      333.117642    ;  uncertainty theta = 0.005083, k = 0.202420
         5         4        15     1      121.093239      377.368760    ;  uncertainty theta = 0.008156, k = 0.178361
         5         9        10     1      120.435135      416.369481    ;  uncertainty theta = 0.002681, k = 0.094610
         5         9        14     1      121.252731      422.237972    ;  uncertainty theta = 0.002097, k = 0.054444
         7         6         8     1      131.630768      806.580534    ;  uncertainty theta = 0.009083, k = 0.188645
         9        10        11     1      120.432785      537.649299    ;  uncertainty theta = 0.003862, k = 0.077958
         9        10        38     1      119.466110      281.486459    ;  uncertainty theta = 0.002162, k = 0.058574
         9        14        13     1      119.284042      530.492684    ;  uncertainty theta = 0.001615, k = 0.057197
         9        14        41     1      119.482666      279.456418    ;  uncertainty theta = 0.002368, k = 0.055494
        10         9        14     1      121.448425      397.213010    ;  uncertainty theta = 0.004778, k = 0.112417
        10        11        12     1      118.849266      368.724289    ;  uncertainty theta = 0.006876, k = 0.170840
        10        11        21     1      123.208908      559.151609    ;  uncertainty theta = 0.004668, k = 0.225835
        11        10        38     1      119.638992      276.691069    ;  uncertainty theta = 0.001838, k = 0.038780
        11        12        13     1      118.451317      533.334932    ;  uncertainty theta = 0.003729, k = 0.122588
        11        12        39     1      119.619423      267.231708    ;  uncertainty theta = 0.002416, k = 0.066386
        11        21        22     1      114.779846      429.072533    ;  uncertainty theta = 0.004451, k = 0.146915
        11        21        44     1      110.680946      371.423657    ;  uncertainty theta = 0.004168, k = 0.065248
        12        11        21     1      123.735001      591.600465    ;  uncertainty theta = 0.004505, k = 0.147872
        12        13        14     1      121.396118      506.239644    ;  uncertainty theta = 0.002498, k = 0.078530
        12        13        40     1      120.189308      280.032408    ;  uncertainty theta = 0.001024, k = 0.065623
        13        12        39     1      121.003220      294.864680    ;  uncertainty theta = 0.002261, k = 0.074534
        13        14        41     1      120.745750      296.685891    ;  uncertainty theta = 0.001272, k = 0.064894
        14        13        40     1      120.096657      281.117544    ;  uncertainty theta = 0.001040, k = 0.024434
        16        17        18     1      108.378250      485.083170    ;  uncertainty theta = 0.009452, k = 0.241328
        16        17        42     1      106.615036      413.543001    ;  uncertainty theta = 0.002441, k = 0.097722
        16        17        43     1      106.615036      413.543001    ;  uncertainty theta = 0.002441, k = 0.097722
        17        18        19     1      116.284836      425.796090    ;  uncertainty theta = 0.009770, k = 0.300315
        17        18        20     1      116.284836      425.796090    ;  uncertainty theta = 0.009770, k = 0.300315
        18        17        42     1      110.051315      352.212409    ;  uncertainty theta = 0.003977, k = 0.110295
        18        17        43     1      110.051315      352.212409    ;  uncertainty theta = 0.003977, k = 0.110295
        19        18        20     1      131.546265      818.159315    ;  uncertainty theta = 0.002374, k = 0.066126
        21        22        23     1      111.874893      608.781640    ;  uncertainty theta = 0.002670, k = 0.056193
        21        22        27     1      111.874893      608.781640    ;  uncertainty theta = 0.002670, k = 0.056193
        21        22        45     1      105.105202      431.697684    ;  uncertainty theta = 0.000667, k = 0.128592
        22        21        44     1      109.826096      364.700566    ;  uncertainty theta = 0.003958, k = 0.118398
        22        23        24     1      110.060074      566.963538    ;  uncertainty theta = 0.002977, k = 0.093252
        22        23        46     1      108.163086      389.798501    ;  uncertainty theta = 0.000562, k = 0.019447
        22        23        47     1      108.163086      389.798501    ;  uncertainty theta = 0.000562, k = 0.019447
        22        27        26     1      110.060074      566.963538    ;  uncertainty theta = 0.002977, k = 0.093252
        22        27        52     1      108.163086      389.798501    ;  uncertainty theta = 0.000562, k = 0.019447
        22        27        53     1      108.163086      389.798501    ;  uncertainty theta = 0.000562, k = 0.019447
        23        22        27     1      108.550858      573.147413    ;  uncertainty theta = 0.002717, k = 0.112066
        23        22        45     1      107.951881      404.294482    ;  uncertainty theta = 0.002626, k = 0.042159
        23        24        25     1      109.259689      661.967140    ;  uncertainty theta = 0.002496, k = 0.165476
        23        24        48     1      109.589439      414.874921    ;  uncertainty theta = 0.000574, k = 0.041752
        23        24        49     1      109.589439      414.874921    ;  uncertainty theta = 0.000574, k = 0.041752
        24        23        46     1      107.819115      397.813036    ;  uncertainty theta = 0.000545, k = 0.058984
        24        23        47     1      107.819115      397.813036    ;  uncertainty theta = 0.000545, k = 0.058984
        24        25        26     1      108.347214      477.043099    ;  uncertainty theta = 0.006497, k = 0.088259
        24        25        28     1      107.526390      421.352824    ;  uncertainty theta = 0.004077, k = 0.136080
        25        24        48     1      107.439697      440.133772    ;  uncertainty theta = 0.001245, k = 0.060515
        25        24        49     1      107.439697      440.133772    ;  uncertainty theta = 0.001245, k = 0.060515
        25        26        27     1      109.259689      661.967140    ;  uncertainty theta = 0.002496, k = 0.165476
        25        26        50     1      107.439697      440.133772    ;  uncertainty theta = 0.001245, k = 0.060515
        25        26        51     1      107.439697      440.133772    ;  uncertainty theta = 0.001245, k = 0.060515
        25        28        29     1      113.095688      783.120613    ;  uncertainty theta = 0.002858, k = 0.059603
        25        28        30     1      113.095688      783.120613    ;  uncertainty theta = 0.002858, k = 0.059603
        25        28        31     1      104.556190      574.445401    ;  uncertainty theta = 0.004758, k = 0.134924
        26        25        28     1      107.526390      421.352824    ;  uncertainty theta = 0.004077, k = 0.136080
        26        27        52     1      107.819115      397.813036    ;  uncertainty theta = 0.000545, k = 0.058984
        26        27        53     1      107.819115      397.813036    ;  uncertainty theta = 0.000545, k = 0.058984
        27        22        45     1      107.951881      404.294482    ;  uncertainty theta = 0.002626, k = 0.042159
        27        26        50     1      109.589439      414.874921    ;  uncertainty theta = 0.000574, k = 0.041752
        27        26        51     1      109.589439      414.874921    ;  uncertainty theta = 0.000574, k = 0.041752
        28        31        32     1      109.649918      495.715035    ;  uncertainty theta = 0.004234, k = 0.061160
        28        31        54     1      105.703957      368.051993    ;  uncertainty theta = 0.002863, k = 0.113098
        28        31        55     1      105.703957      368.051993    ;  uncertainty theta = 0.002863, k = 0.113098
        29        28        30     1      123.102562      837.741170    ;  uncertainty theta = 0.004451, k = 0.055256
        29        28        31     1      111.604637      646.652216    ;  uncertainty theta = 0.003974, k = 0.095117
        30        28        31     1      111.604637      646.652216    ;  uncertainty theta = 0.003974, k = 0.095117
        31        32        33     1      119.892944      402.465801    ;  uncertainty theta = 0.003011, k = 0.179666
        31        32        37     1      119.892944      402.465801    ;  uncertainty theta = 0.003011, k = 0.179666
        32        31        54     1      110.903542      383.204564    ;  uncertainty theta = 0.003465, k = 0.060312
        32        31        55     1      110.903542      383.204564    ;  uncertainty theta = 0.003465, k = 0.060312
        32        33        34     1      120.345314      516.940906    ;  uncertainty theta = 0.001946, k = 0.082955
        32        33        56     1      118.665062      275.796121    ;  uncertainty theta = 0.001604, k = 0.061144
        32        37        36     1      120.345314      516.940906    ;  uncertainty theta = 0.001946, k = 0.082955
        32        37        60     1      118.665062      275.796121    ;  uncertainty theta = 0.001604, k = 0.061144
        33        32        37     1      120.659508      464.018056    ;  uncertainty theta = 0.002029, k = 0.059375
        33        34        35     1      119.373512      517.504989    ;  uncertainty theta = 0.001399, k = 0.034154
        33        34        57     1      119.983643      284.143659    ;  uncertainty theta = 0.001388, k = 0.020024
        34        33        56     1      120.407043      293.275698    ;  uncertainty theta = 0.001871, k = 0.020524
        34        35        36     1      118.513145      527.821821    ;  uncertainty theta = 0.001354, k = 0.028652
        34        35        58     1      120.600479      288.987953    ;  uncertainty theta = 0.001685, k = 0.006948
        35        34        57     1      120.580788      288.011318    ;  uncertainty theta = 0.001274, k = 0.008284
        35        36        37     1      119.373512      517.504989    ;  uncertainty theta = 0.001399, k = 0.034154
        35        36        59     1      120.580788      288.011318    ;  uncertainty theta = 0.001274, k = 0.008284
        36        35        58     1      120.600479      288.987953    ;  uncertainty theta = 0.001685, k = 0.006948
        36        37        60     1      120.407043      293.275698    ;  uncertainty theta = 0.001871, k = 0.020524
        37        36        59     1      119.983643      284.143659    ;  uncertainty theta = 0.001388, k = 0.020024
        42        17        43     1      108.441086      321.141664    ;  uncertainty theta = 0.009903, k = 0.175390
        46        23        47     1      105.624390      312.800446    ;  uncertainty theta = 0.001718, k = 0.026570
        48        24        49     1      105.553688      321.577422    ;  uncertainty theta = 0.001002, k = 0.056967
        50        26        51     1      105.553688      321.577422    ;  uncertainty theta = 0.001002, k = 0.056967
        52        27        53     1      105.624390      312.800478    ;  uncertainty theta = 0.001718, k = 0.026570
        54        31        55     1      107.674545      299.565839    ;  uncertainty theta = 0.003188, k = 0.077713

[ dihedrals ] ; propers for gromacs 4.5 or higher, use funct 9
;       ai        aj        ak        al funct           phase               k        pn
         1         2         3         4     9        0.000000       -0.297949         1    ;  uncertainty k = 0.718970
         1         2         3         4     9      180.000000       17.535200         2    ;  uncertainty k = 0.401401
         1         2         3         4     9        0.000000       -2.351324         3    ;  uncertainty k = 1.105237
         1         2         3         4     9      180.000000        0.906019         4    ;  uncertainty k = 0.590756
         1         2         3        16     9        0.000000        0.382161         1    ;  uncertainty k = 1.189298
         1         2         3        16     9      180.000000       18.412342         2    ;  uncertainty k = 0.196771
         1         2         3        16     9        0.000000        1.640591         3    ;  uncertainty k = 0.450700
         1         2         3        16     9      180.000000        0.637415         4    ;  uncertainty k = 0.336128
         1         2         6         7     9        0.000000        0.644906         1    ;  uncertainty k = 2.439012
         1         2         6         7     9      180.000000        4.845419         2    ;  uncertainty k = 0.460191
         1         2         6         7     9        0.000000        0.192584         3    ;  uncertainty k = 0.526462
         1         2         6         7     9      180.000000        0.233508         4    ;  uncertainty k = 0.149578
         1         2         6         8     9        0.000000        0.644906         1    ;  uncertainty k = 2.439012
         1         2         6         8     9      180.000000        4.845419         2    ;  uncertainty k = 0.460191
         1         2         6         8     9        0.000000        0.192584         3    ;  uncertainty k = 0.526462
         1         2         6         8     9      180.000000        0.233508         4    ;  uncertainty k = 0.149578
         1         5         4         3     9        0.000000       -0.186606         1    ;  uncertainty k = 0.336275
         1         5         4         3     9      180.000000       15.958233         2    ;  uncertainty k = 0.437598
         1         5         4         3     9        0.000000       -2.339401         3    ;  uncertainty k = 0.672281
         1         5         4         3     9      180.000000        0.874231         4    ;  uncertainty k = 0.732260
         1         5         4        15     9        0.000000        0.150381         1    ;  uncertainty k = 0.574266
         1         5         4        15     9      180.000000       13.478646         2    ;  uncertainty k = 0.446538
         1         5         4        15     9        0.000000        2.288351         3    ;  uncertainty k = 0.646753
         1         5         4        15     9      180.000000        0.727439         4    ;  uncertainty k = 0.289991
         1         5         9        10     9        0.000000       -0.623462         1    ;  uncertainty k = 0.565459
         1         5         9        10     9      180.000000        3.265745         2    ;  uncertainty k = 0.078219
         1         5         9        10     9        0.000000        0.304807         3    ;  uncertainty k = 0.250503
         1         5         9        10     9      180.000000        0.109046         4    ;  uncertainty k = 0.133365
         1         5         9        14     9        0.000000       -0.212047         1    ;  uncertainty k = 0.533586
         1         5         9        14     9      180.000000        3.343476         2    ;  uncertainty k = 0.220131
         1         5         9        14     9        0.000000        0.484182         3    ;  uncertainty k = 0.252888
         1         5         9        14     9      180.000000        0.101304         4    ;  uncertainty k = 0.121463
         2         1         5         4     9        0.000000       -0.373573         1    ;  uncertainty k = 1.020459
         2         1         5         4     9      180.000000       14.465494         2    ;  uncertainty k = 0.941497
         2         1         5         4     9        0.000000       -6.044651         3    ;  uncertainty k = 1.111105
         2         1         5         4     9      180.000000        1.158536         4    ;  uncertainty k = 0.393931
         2         1         5         9     9        0.000000        0.600569         1    ;  uncertainty k = 1.336824
         2         1         5         9     9      180.000000       11.519505         2    ;  uncertainty k = 0.679234
         2         1         5         9     9        0.000000        1.008620         3    ;  uncertainty k = 1.166505
         2         1         5         9     9      180.000000       -0.065437         4    ;  uncertainty k = 0.498207
         2         3         4         5     9        0.000000       -0.248849         1    ;  uncertainty k = 0.796345
         2         3         4         5     9      180.000000        9.402326         2    ;  uncertainty k = 0.793010
         2         3         4         5     9        0.000000       -2.242595         3    ;  uncertainty k = 0.759699
         2         3         4         5     9      180.000000        0.991703         4    ;  uncertainty k = 0.324048
         2         3         4        15     9        0.000000        0.471235         1    ;  uncertainty k = 0.686629
         2         3         4        15     9      180.000000        8.094973         2    ;  uncertainty k = 0.757768
         2         3         4        15     9        0.000000        1.724054         3    ;  uncertainty k = 0.370770
         2         3         4        15     9      180.000000        0.529564         4    ;  uncertainty k = 0.192081
         2         3        16        17     9        0.000000        0.479142         1    ;  uncertainty k = 2.428809
         2         3        16        17     9      180.000000        4.387774         2    ;  uncertainty k = 1.267681
         2         3        16        17     9        0.000000       -0.218735         3    ;  uncertainty k = 0.574638
         2         3        16        17     9      180.000000       -0.007295         4    ;  uncertainty k = 0.224149
         3         2         1         5     9        0.000000       -1.268777         1    ;  uncertainty k = 1.797385
         3         2         1         5     9      180.000000       12.542442         2    ;  uncertainty k = 0.766221
         3         2         1         5     9        0.000000       -4.097383         3    ;  uncertainty k = 1.314627
         3         2         1         5     9      180.000000        1.223458         4    ;  uncertainty k = 0.597857
         3         2         6         7     9        0.000000       -0.652471         1    ;  uncertainty k = 1.273134
         3         2         6         7     9      180.000000        2.769202         2    ;  uncertainty k = 0.470940
         3         2         6         7     9        0.000000        0.398381         3    ;  uncertainty k = 0.313641
         3         2         6         7     9      180.000000        0.073927         4    ;  uncertainty k = 0.100220
         3         2         6         8     9        0.000000       -0.652471         1    ;  uncertainty k = 1.273134
         3         2         6         8     9      180.000000        2.769202         2    ;  uncertainty k = 0.470940
         3         2         6         8     9        0.000000        0.398381         3    ;  uncertainty k = 0.313641
         3         2         6         8     9      180.000000        0.073927         4    ;  uncertainty k = 0.100220
         3         4         5         9     9        0.000000        0.167589         1    ;  uncertainty k = 0.194303
         3         4         5         9     9      180.000000       11.349767         2    ;  uncertainty k = 0.205536
         3         4         5         9     9        0.000000        1.931637         3    ;  uncertainty k = 0.417477
         3         4         5         9     9      180.000000        0.660038         4    ;  uncertainty k = 0.312239
         3        16        17        18     9        0.000000       -2.591263         1    ;  uncertainty k = 2.166109
         3        16        17        18     9      180.000000       -2.088231         2    ;  uncertainty k = 0.836473
         3        16        17        18     9        0.000000        0.392390         3    ;  uncertainty k = 0.447111
         3        16        17        18     9      180.000000        0.723810         4    ;  uncertainty k = 0.376008
         3        16        17        42     9        0.000000        1.968743         1    ;  uncertainty k = 0.693016
         3        16        17        42     9      180.000000       -0.987588         2    ;  uncertainty k = 0.772158
         3        16        17        42     9        0.000000        0.514993         3    ;  uncertainty k = 0.362443
         3        16        17        42     9      180.000000        0.024069         4    ;  uncertainty k = 0.163084
         3        16        17        43     9        0.000000        1.968743         1    ;  uncertainty k = 0.693016
         3        16        17        43     9      180.000000       -0.987588         2    ;  uncertainty k = 0.772158
         3        16        17        43     9        0.000000        0.514993         3    ;  uncertainty k = 0.362443
         3        16        17        43     9      180.000000        0.024069         4    ;  uncertainty k = 0.163084
         4         3         2         6     9        0.000000        0.818322         1    ;  uncertainty k = 1.488297
         4         3         2         6     9      180.000000        9.222479         2    ;  uncertainty k = 0.489002
         4         3         2         6     9        0.000000        2.218982         3    ;  uncertainty k = 0.176321
         4         3         2         6     9      180.000000        0.892000         4    ;  uncertainty k = 0.270626
         4         3        16        17     9        0.000000        3.848224         1    ;  uncertainty k = 2.470979
         4         3        16        17     9      180.000000        4.076892         2    ;  uncertainty k = 0.712203
         4         3        16        17     9        0.000000        0.610777         3    ;  uncertainty k = 0.832814
         4         3        16        17     9      180.000000       -0.137890         4    ;  uncertainty k = 0.101579
         4         5         9        10     9        0.000000        0.220760         1    ;  uncertainty k = 0.630812
         4         5         9        10     9      180.000000        2.984342         2    ;  uncertainty k = 0.293711
         4         5         9        10     9        0.000000        0.449624         3    ;  uncertainty k = 0.490922
         4         5         9        10     9      180.000000        0.009191         4    ;  uncertainty k = 0.120974
         4         5         9        14     9        0.000000        0.339556         1    ;  uncertainty k = 0.493917
         4         5         9        14     9      180.000000        3.192437         2    ;  uncertainty k = 0.273073
         4         5         9        14     9        0.000000        0.457684         3    ;  uncertainty k = 0.382375
         4         5         9        14     9      180.000000       -0.013618         4    ;  uncertainty k = 0.099698
         5         1         2         6     9        0.000000        0.367627         1    ;  uncertainty k = 2.269384
         5         1         2         6     9      180.000000        8.262956         2    ;  uncertainty k = 0.561358
         5         1         2         6     9        0.000000        1.058354         3    ;  uncertainty k = 0.653649
         5         1         2         6     9      180.000000        0.541553         4    ;  uncertainty k = 0.298941
         5         4         3        16     9        0.000000        0.700045         1    ;  uncertainty k = 1.386702
         5         4         3        16     9      180.000000       11.667947         2    ;  uncertainty k = 0.798011
         5         4         3        16     9        0.000000        1.700711         3    ;  uncertainty k = 0.315427
         5         4         3        16     9      180.000000        0.448851         4    ;  uncertainty k = 0.461881
         5         9        10        11     9        0.000000        0.202802         1    ;  uncertainty k = 0.353270
         5         9        10        11     9      180.000000        8.797397         2    ;  uncertainty k = 0.589992
         5         9        10        11     9        0.000000        1.229766         3    ;  uncertainty k = 0.286050
         5         9        10        11     9      180.000000        1.578176         4    ;  uncertainty k = 0.198319
         5         9        10        38     9        0.000000       -0.113707         1    ;  uncertainty k = 0.466130
         5         9        10        38     9      180.000000        7.068681         2    ;  uncertainty k = 0.454066
         5         9        10        38     9        0.000000        0.694889         3    ;  uncertainty k = 0.245024
         5         9        10        38     9      180.000000        1.247417         4    ;  uncertainty k = 0.220557
         5         9        14        13     9        0.000000       -0.010562         1    ;  uncertainty k = 0.358853
         5         9        14        13     9      180.000000        8.997073         2    ;  uncertainty k = 0.489287
         5         9        14        13     9        0.000000        1.106307         3    ;  uncertainty k = 0.269513
         5         9        14        13     9      180.000000        1.720039         4    ;  uncertainty k = 0.168066
         5         9        14        41     9        0.000000       -0.159485         1    ;  uncertainty k = 0.570589
         5         9        14        41     9      180.000000        6.832998         2    ;  uncertainty k = 0.391945
         5         9        14        41     9        0.000000        0.755672         3    ;  uncertainty k = 0.221535
         5         9        14        41     9      180.000000        1.250946         4    ;  uncertainty k = 0.164335
         6         2         3        16     9        0.000000       -0.621356         1    ;  uncertainty k = 1.046072
         6         2         3        16     9      180.000000       11.559947         2    ;  uncertainty k = 0.593207
         6         2         3        16     9        0.000000        1.637931         3    ;  uncertainty k = 0.306195
         6         2         3        16     9      180.000000        0.417706         4    ;  uncertainty k = 0.553337
         9         5         4        15     9        0.000000        0.049421         1    ;  uncertainty k = 0.984500
         9         5         4        15     9      180.000000        8.635990         2    ;  uncertainty k = 0.628431
         9         5         4        15     9        0.000000        1.408795         3    ;  uncertainty k = 0.077207
         9         5         4        15     9      180.000000        0.910308         4    ;  uncertainty k = 0.156514
         9        10        11        12     9        0.000000       -0.074103         1    ;  uncertainty k = 0.319605
         9        10        11        12     9      180.000000        7.518375         2    ;  uncertainty k = 0.626727
         9        10        11        12     9        0.000000        0.433955         3    ;  uncertainty k = 0.271124
         9        10        11        12     9      180.000000        1.428974         4    ;  uncertainty k = 0.267700
         9        10        11        21     9        0.000000        0.206370         1    ;  uncertainty k = 0.770379
         9        10        11        21     9      180.000000        8.413386         2    ;  uncertainty k = 0.214025
         9        10        11        21     9        0.000000        0.949035         3    ;  uncertainty k = 0.199922
         9        10        11        21     9      180.000000        1.634231         4    ;  uncertainty k = 0.154038
         9        14        13        12     9        0.000000       -0.057844         1    ;  uncertainty k = 0.368485
         9        14        13        12     9      180.000000       14.580625         2    ;  uncertainty k = 0.290838
         9        14        13        12     9        0.000000       -1.016211         3    ;  uncertainty k = 0.435557
         9        14        13        12     9      180.000000        0.621025         4    ;  uncertainty k = 0.296476
         9        14        13        40     9        0.000000        0.069984         1    ;  uncertainty k = 0.070954
         9        14        13        40     9      180.000000        7.748964         2    ;  uncertainty k = 0.302299
         9        14        13        40     9        0.000000        1.324530         3    ;  uncertainty k = 0.263872
         9        14        13        40     9      180.000000        1.827086         4    ;  uncertainty k = 0.115325
        10         9        14        13     9        0.000000       -0.208030         1    ;  uncertainty k = 0.126804
        10         9        14        13     9      180.000000       11.389913         2    ;  uncertainty k = 0.258524
        10         9        14        13     9        0.000000       -0.383607         3    ;  uncertainty k = 0.246244
        10         9        14        13     9      180.000000        0.977813         4    ;  uncertainty k = 0.265916
        10         9        14        41     9        0.000000        0.157528         1    ;  uncertainty k = 0.329240
        10         9        14        41     9      180.000000        6.861547         2    ;  uncertainty k = 0.616893
        10         9        14        41     9        0.000000        1.487477         3    ;  uncertainty k = 0.217318
        10         9        14        41     9      180.000000        1.679755         4    ;  uncertainty k = 0.259744
        10        11        12        13     9        0.000000       -0.074475         1    ;  uncertainty k = 0.157451
        10        11        12        13     9      180.000000        7.950750         2    ;  uncertainty k = 0.729036
        10        11        12        13     9        0.000000        0.237566         3    ;  uncertainty k = 0.362598
        10        11        12        13     9      180.000000        1.327377         4    ;  uncertainty k = 0.359548
        10        11        12        39     9        0.000000        0.176589         1    ;  uncertainty k = 0.577313
        10        11        12        39     9      180.000000        5.848518         2    ;  uncertainty k = 0.725053
        10        11        12        39     9        0.000000        1.237480         3    ;  uncertainty k = 0.222779
        10        11        12        39     9      180.000000        1.459358         4    ;  uncertainty k = 0.178544
        10        11        21        22     9        0.000000        3.382917         1    ;  uncertainty k = 0.529040
        10        11        21        22     9      180.000000        6.459334         2    ;  uncertainty k = 0.152913
        10        11        21        22     9        0.000000        0.620060         3    ;  uncertainty k = 0.211962
        10        11        21        22     9      180.000000       -0.000265         4    ;  uncertainty k = 0.096403
        10        11        21        44     9        0.000000        4.570744         1    ;  uncertainty k = 0.504339
        10        11        21        44     9      180.000000        6.368048         2    ;  uncertainty k = 0.385573
        10        11        21        44     9        0.000000        0.759408         3    ;  uncertainty k = 0.295014
        10        11        21        44     9      180.000000       -0.348198         4    ;  uncertainty k = 0.040614
        11        10         9        14     9        0.000000       -0.096987         1    ;  uncertainty k = 0.204530
        11        10         9        14     9      180.000000       11.013961         2    ;  uncertainty k = 0.309269
        11        10         9        14     9        0.000000       -0.212985         3    ;  uncertainty k = 0.254239
        11        10         9        14     9      180.000000        0.991432         4    ;  uncertainty k = 0.136474
        11        12        13        14     9        0.000000       -0.192633         1    ;  uncertainty k = 0.296979
        11        12        13        14     9      180.000000       14.192222         2    ;  uncertainty k = 0.193115
        11        12        13        14     9        0.000000       -0.985019         3    ;  uncertainty k = 0.356130
        11        12        13        14     9      180.000000        0.690947         4    ;  uncertainty k = 0.214765
        11        12        13        40     9        0.000000        0.008745         1    ;  uncertainty k = 0.271105
        11        12        13        40     9      180.000000        7.906785         2    ;  uncertainty k = 0.355014
        11        12        13        40     9        0.000000        1.181555         3    ;  uncertainty k = 0.304014
        11        12        13        40     9      180.000000        1.549599         4    ;  uncertainty k = 0.193568
        11        21        22        23     9        0.000000       -0.277193         1    ;  uncertainty k = 0.242795
        11        21        22        23     9      180.000000       -0.160612         2    ;  uncertainty k = 0.301049
        11        21        22        23     9        0.000000        0.860041         3    ;  uncertainty k = 0.088359
        11        21        22        23     9      180.000000        0.309882         4    ;  uncertainty k = 0.097552
        11        21        22        27     9        0.000000       -0.277193         1    ;  uncertainty k = 0.242795
        11        21        22        27     9      180.000000       -0.160612         2    ;  uncertainty k = 0.301049
        11        21        22        27     9        0.000000        0.860041         3    ;  uncertainty k = 0.088359
        11        21        22        27     9      180.000000        0.309882         4    ;  uncertainty k = 0.097552
        11        21        22        45     9        0.000000       -1.619691         1    ;  uncertainty k = 0.408978
        11        21        22        45     9      180.000000       -1.111115         2    ;  uncertainty k = 0.450739
        11        21        22        45     9        0.000000        0.908050         3    ;  uncertainty k = 0.141012
        11        21        22        45     9      180.000000        0.296216         4    ;  uncertainty k = 0.060925
        12        11        10        38     9        0.000000        0.230454         1    ;  uncertainty k = 0.390523
        12        11        10        38     9      180.000000        5.910957         2    ;  uncertainty k = 0.573418
        12        11        10        38     9        0.000000        1.303719         3    ;  uncertainty k = 0.239125
        12        11        10        38     9      180.000000        1.559471         4    ;  uncertainty k = 0.176480
        12        11        21        22     9        0.000000        3.529469         1    ;  uncertainty k = 0.406540
        12        11        21        22     9      180.000000        6.300627         2    ;  uncertainty k = 0.174227
        12        11        21        22     9        0.000000        0.644658         3    ;  uncertainty k = 0.126724
        12        11        21        22     9      180.000000        0.018042         4    ;  uncertainty k = 0.101649
        12        11        21        44     9        0.000000        4.567643         1    ;  uncertainty k = 0.339780
        12        11        21        44     9      180.000000        6.194534         2    ;  uncertainty k = 0.262213
        12        11        21        44     9        0.000000        0.836430         3    ;  uncertainty k = 0.198459
        12        11        21        44     9      180.000000       -0.344411         4    ;  uncertainty k = 0.056041
        12        13        14        41     9        0.000000        0.089640         1    ;  uncertainty k = 0.181903
        12        13        14        41     9      180.000000        7.768998         2    ;  uncertainty k = 0.207969
        12        13        14        41     9        0.000000        1.342547         3    ;  uncertainty k = 0.255493
        12        13        14        41     9      180.000000        1.862098         4    ;  uncertainty k = 0.147189
        13        12        11        21     9        0.000000        0.120920         1    ;  uncertainty k = 0.549044
        13        12        11        21     9      180.000000        8.442271         2    ;  uncertainty k = 0.265232
        13        12        11        21     9        0.000000        1.023839         3    ;  uncertainty k = 0.255340
        13        12        11        21     9      180.000000        1.595114         4    ;  uncertainty k = 0.100329
        14         9        10        38     9        0.000000        0.241990         1    ;  uncertainty k = 0.254624
        14         9        10        38     9      180.000000        7.150773         2    ;  uncertainty k = 0.386381
        14         9        10        38     9        0.000000        1.536980         3    ;  uncertainty k = 0.221539
        14         9        10        38     9      180.000000        1.625109         4    ;  uncertainty k = 0.219606
        14        13        12        39     9        0.000000        0.140969         1    ;  uncertainty k = 0.099993
        14        13        12        39     9      180.000000        8.096628         2    ;  uncertainty k = 0.351774
        14        13        12        39     9        0.000000        1.502947         3    ;  uncertainty k = 0.298307
        14        13        12        39     9      180.000000        1.787247         4    ;  uncertainty k = 0.120797
        15         4         3        16     9        0.000000       -0.319209         1    ;  uncertainty k = 0.605526
        15         4         3        16     9      180.000000        9.068986         2    ;  uncertainty k = 0.267291
        15         4         3        16     9        0.000000        1.424174         3    ;  uncertainty k = 0.287680
        15         4         3        16     9      180.000000        0.662036         4    ;  uncertainty k = 0.354539
        16        17        18        19     9        0.000000        1.037384         1    ;  uncertainty k = 0.861058
        16        17        18        19     9      180.000000        5.879712         2    ;  uncertainty k = 0.501522
        16        17        18        19     9        0.000000        1.140869         3    ;  uncertainty k = 0.453942
        16        17        18        19     9      180.000000        0.283114         4    ;  uncertainty k = 0.233896
        16        17        18        20     9        0.000000        1.037384         1    ;  uncertainty k = 0.861058
        16        17        18        20     9      180.000000        5.879712         2    ;  uncertainty k = 0.501522
        16        17        18        20     9        0.000000        1.140869         3    ;  uncertainty k = 0.453942
        16        17        18        20     9      180.000000        0.283114         4    ;  uncertainty k = 0.233896
        19        18        17        42     9        0.000000       -2.490916         1    ;  uncertainty k = 1.121396
        19        18        17        42     9      180.000000        1.800698         2    ;  uncertainty k = 0.645183
        19        18        17        42     9        0.000000        0.839000         3    ;  uncertainty k = 0.197976
        19        18        17        42     9      180.000000        0.238644         4    ;  uncertainty k = 0.090429
        19        18        17        43     9        0.000000       -2.490916         1    ;  uncertainty k = 1.121396
        19        18        17        43     9      180.000000        1.800698         2    ;  uncertainty k = 0.645183
        19        18        17        43     9        0.000000        0.839000         3    ;  uncertainty k = 0.197976
        19        18        17        43     9      180.000000        0.238644         4    ;  uncertainty k = 0.090429
        20        18        17        42     9        0.000000       -2.490916         1    ;  uncertainty k = 1.121396
        20        18        17        42     9      180.000000        1.800698         2    ;  uncertainty k = 0.645183
        20        18        17        42     9        0.000000        0.839000         3    ;  uncertainty k = 0.197976
        20        18        17        42     9      180.000000        0.238644         4    ;  uncertainty k = 0.090429
        20        18        17        43     9        0.000000       -2.490916         1    ;  uncertainty k = 1.121396
        20        18        17        43     9      180.000000        1.800698         2    ;  uncertainty k = 0.645183
        20        18        17        43     9        0.000000        0.839000         3    ;  uncertainty k = 0.197976
        20        18        17        43     9      180.000000        0.238644         4    ;  uncertainty k = 0.090429
        21        11        10        38     9        0.000000       -0.342680         1    ;  uncertainty k = 0.177244
        21        11        10        38     9      180.000000        7.324253         2    ;  uncertainty k = 0.469154
        21        11        10        38     9        0.000000        0.900328         3    ;  uncertainty k = 0.202974
        21        11        10        38     9      180.000000        1.101877         4    ;  uncertainty k = 0.210406
        21        11        12        39     9        0.000000       -0.208112         1    ;  uncertainty k = 0.295706
        21        11        12        39     9      180.000000        7.253053         2    ;  uncertainty k = 0.347875
        21        11        12        39     9        0.000000        0.951981         3    ;  uncertainty k = 0.279935
        21        11        12        39     9      180.000000        1.062878         4    ;  uncertainty k = 0.186193
        21        22        23        24     9        0.000000       -5.136098         1    ;  uncertainty k = 1.043848
        21        22        23        24     9      180.000000       -0.051193         2    ;  uncertainty k = 0.439582
        21        22        23        24     9        0.000000        1.238893         3    ;  uncertainty k = 0.245171
        21        22        23        24     9      180.000000       -0.144028         4    ;  uncertainty k = 0.066282
        21        22        23        46     9        0.000000       -0.535460         1    ;  uncertainty k = 0.150632
        21        22        23        46     9      180.000000       -0.364854         2    ;  uncertainty k = 0.186150
        21        22        23        46     9        0.000000        1.179605         3    ;  uncertainty k = 0.213686
        21        22        23        46     9      180.000000       -0.153264         4    ;  uncertainty k = 0.061851
        21        22        23        47     9        0.000000       -0.535460         1    ;  uncertainty k = 0.150632
        21        22        23        47     9      180.000000       -0.364854         2    ;  uncertainty k = 0.186150
        21        22        23        47     9        0.000000        1.179605         3    ;  uncertainty k = 0.213686
        21        22        23        47     9      180.000000       -0.153264         4    ;  uncertainty k = 0.061851
        21        22        27        26     9        0.000000       -5.136098         1    ;  uncertainty k = 1.043848
        21        22        27        26     9      180.000000       -0.051193         2    ;  uncertainty k = 0.439582
        21        22        27        26     9        0.000000        1.238893         3    ;  uncertainty k = 0.245171
        21        22        27        26     9      180.000000       -0.144028         4    ;  uncertainty k = 0.066282
        21        22        27        52     9        0.000000       -0.535460         1    ;  uncertainty k = 0.150632
        21        22        27        52     9      180.000000       -0.364854         2    ;  uncertainty k = 0.186150
        21        22        27        52     9        0.000000        1.179605         3    ;  uncertainty k = 0.213686
        21        22        27        52     9      180.000000       -0.153264         4    ;  uncertainty k = 0.061851
        21        22        27        53     9        0.000000       -0.535460         1    ;  uncertainty k = 0.150632
        21        22        27        53     9      180.000000       -0.364854         2    ;  uncertainty k = 0.186150
        21        22        27        53     9        0.000000        1.179605         3    ;  uncertainty k = 0.213686
        21        22        27        53     9      180.000000       -0.153264         4    ;  uncertainty k = 0.061851
        22        23        24        25     9        0.000000       -0.148847         1    ;  uncertainty k = 0.397834
        22        23        24        25     9      180.000000       -4.571385         2    ;  uncertainty k = 1.019097
        22        23        24        25     9        0.000000        2.114453         3    ;  uncertainty k = 0.368217
        22        23        24        25     9      180.000000       -0.488533         4    ;  uncertainty k = 0.117256
        22        23        24        48     9        0.000000        2.785845         1    ;  uncertainty k = 0.530042
        22        23        24        48     9      180.000000       -2.330233         2    ;  uncertainty k = 0.276082
        22        23        24        48     9        0.000000       -0.079434         3    ;  uncertainty k = 0.175618
        22        23        24        48     9      180.000000        0.352534         4    ;  uncertainty k = 0.135804
        22        23        24        49     9        0.000000        2.785845         1    ;  uncertainty k = 0.530042
        22        23        24        49     9      180.000000       -2.330233         2    ;  uncertainty k = 0.276082
        22        23        24        49     9        0.000000       -0.079434         3    ;  uncertainty k = 0.175618
        22        23        24        49     9      180.000000        0.352534         4    ;  uncertainty k = 0.135804
        22        27        26        25     9        0.000000       -0.148847         1    ;  uncertainty k = 0.397834
        22        27        26        25     9      180.000000       -4.571385         2    ;  uncertainty k = 1.019097
        22        27        26        25     9        0.000000        2.114453         3    ;  uncertainty k = 0.368217
        22        27        26        25     9      180.000000       -0.488533         4    ;  uncertainty k = 0.117256
        22        27        26        50     9        0.000000        2.785845         1    ;  uncertainty k = 0.530042
        22        27        26        50     9      180.000000       -2.330233         2    ;  uncertainty k = 0.276082
        22        27        26        50     9        0.000000       -0.079434         3    ;  uncertainty k = 0.175618
        22        27        26        50     9      180.000000        0.352534         4    ;  uncertainty k = 0.135804
        22        27        26        51     9        0.000000        2.785845         1    ;  uncertainty k = 0.530042
        22        27        26        51     9      180.000000       -2.330233         2    ;  uncertainty k = 0.276082
        22        27        26        51     9        0.000000       -0.079434         3    ;  uncertainty k = 0.175618
        22        27        26        51     9      180.000000        0.352534         4    ;  uncertainty k = 0.135804
        23        22        21        44     9        0.000000        2.841835         1    ;  uncertainty k = 0.368019
        23        22        21        44     9      180.000000       -1.817583         2    ;  uncertainty k = 0.255149
        23        22        21        44     9        0.000000        0.197702         3    ;  uncertainty k = 0.122169
        23        22        21        44     9      180.000000        0.111128         4    ;  uncertainty k = 0.094779
        23        22        27        26     9        0.000000       -7.398289         1    ;  uncertainty k = 1.114205
        23        22        27        26     9      180.000000        0.772994         2    ;  uncertainty k = 0.787748
        23        22        27        26     9        0.000000        1.284273         3    ;  uncertainty k = 0.148211
        23        22        27        26     9      180.000000       -1.372294         4    ;  uncertainty k = 0.205237
        23        22        27        52     9        0.000000       -1.844686         1    ;  uncertainty k = 0.323911
        23        22        27        52     9      180.000000       -0.032260         2    ;  uncertainty k = 0.103578
        23        22        27        52     9        0.000000        0.269779         3    ;  uncertainty k = 0.112380
        23        22        27        52     9      180.000000       -0.144836         4    ;  uncertainty k = 0.053686
        23        22        27        53     9        0.000000       -1.844686         1    ;  uncertainty k = 0.323911
        23        22        27        53     9      180.000000       -0.032260         2    ;  uncertainty k = 0.103578
        23        22        27        53     9        0.000000        0.269779         3    ;  uncertainty k = 0.112380
        23        22        27        53     9      180.000000       -0.144836         4    ;  uncertainty k = 0.053686
        23        24        25        26     9        0.000000       -4.088458         1    ;  uncertainty k = 1.867282
        23        24        25        26     9      180.000000        0.889714         2    ;  uncertainty k = 0.667890
        23        24        25        26     9        0.000000        0.584557         3    ;  uncertainty k = 0.291659
        23        24        25        26     9      180.000000       -0.636593         4    ;  uncertainty k = 0.223033
        23        24        25        28     9        0.000000       -7.348500         1    ;  uncertainty k = 0.834720
        23        24        25        28     9      180.000000       -1.724542         2    ;  uncertainty k = 0.551083
        23        24        25        28     9        0.000000       -0.216030         3    ;  uncertainty k = 0.339972
        23        24        25        28     9      180.000000       -0.827606         4    ;  uncertainty k = 0.173862
        24        23        22        27     9        0.000000       -7.398289         1    ;  uncertainty k = 1.114205
        24        23        22        27     9      180.000000        0.772994         2    ;  uncertainty k = 0.787748
        24        23        22        27     9        0.000000        1.284273         3    ;  uncertainty k = 0.148211
        24        23        22        27     9      180.000000       -1.372294         4    ;  uncertainty k = 0.205237
        24        23        22        45     9        0.000000       -1.489834         1    ;  uncertainty k = 0.498262
        24        23        22        45     9      180.000000       -0.726861         2    ;  uncertainty k = 0.320028
        24        23        22        45     9        0.000000        0.084383         3    ;  uncertainty k = 0.138187
        24        23        22        45     9      180.000000       -0.160514         4    ;  uncertainty k = 0.093764
        24        25        26        27     9        0.000000       -4.088458         1    ;  uncertainty k = 1.867282
        24        25        26        27     9      180.000000        0.889714         2    ;  uncertainty k = 0.667890
        24        25        26        27     9        0.000000        0.584557         3    ;  uncertainty k = 0.291659
        24        25        26        27     9      180.000000       -0.636593         4    ;  uncertainty k = 0.223033
        24        25        26        50     9        0.000000       -6.211466         1    ;  uncertainty k = 0.401821
        24        25        26        50     9      180.000000        0.273829         2    ;  uncertainty k = 0.303792
        24        25        26        50     9        0.000000        0.752021         3    ;  uncertainty k = 0.192836
        24        25        26        50     9      180.000000       -0.002512         4    ;  uncertainty k = 0.021259
        24        25        26        51     9        0.000000       -6.211466         1    ;  uncertainty k = 0.401821
        24        25        26        51     9      180.000000        0.273829         2    ;  uncertainty k = 0.303792
        24        25        26        51     9        0.000000        0.752021         3    ;  uncertainty k = 0.192836
        24        25        26        51     9      180.000000       -0.002512         4    ;  uncertainty k = 0.021259
        24        25        28        29     9        0.000000        1.270237         1    ;  uncertainty k = 0.500475
        24        25        28        29     9      180.000000        2.505361         2    ;  uncertainty k = 0.401482
        24        25        28        29     9        0.000000        0.779609         3    ;  uncertainty k = 0.159997
        24        25        28        29     9      180.000000       -0.308889         4    ;  uncertainty k = 0.140057
        24        25        28        30     9        0.000000        1.270237         1    ;  uncertainty k = 0.500475
        24        25        28        30     9      180.000000        2.505361         2    ;  uncertainty k = 0.401482
        24        25        28        30     9        0.000000        0.779609         3    ;  uncertainty k = 0.159997
        24        25        28        30     9      180.000000       -0.308889         4    ;  uncertainty k = 0.140057
        24        25        28        31     9        0.000000       -7.549010         1    ;  uncertainty k = 0.541322
        24        25        28        31     9      180.000000       -2.996510         2    ;  uncertainty k = 0.664699
        24        25        28        31     9        0.000000       -0.101282         3    ;  uncertainty k = 0.314563
        24        25        28        31     9      180.000000       -0.343229         4    ;  uncertainty k = 0.158947
        25        24        23        46     9        0.000000       -0.852861         1    ;  uncertainty k = 0.235199
        25        24        23        46     9      180.000000       -0.179849         2    ;  uncertainty k = 0.440860
        25        24        23        46     9        0.000000        0.882203         3    ;  uncertainty k = 0.149383
        25        24        23        46     9      180.000000       -0.285173         4    ;  uncertainty k = 0.185067
        25        24        23        47     9        0.000000       -0.852861         1    ;  uncertainty k = 0.235199
        25        24        23        47     9      180.000000       -0.179849         2    ;  uncertainty k = 0.440860
        25        24        23        47     9        0.000000        0.882203         3    ;  uncertainty k = 0.149383
        25        24        23        47     9      180.000000       -0.285173         4    ;  uncertainty k = 0.185067
        25        26        27        52     9        0.000000       -0.852861         1    ;  uncertainty k = 0.235199
        25        26        27        52     9      180.000000       -0.179849         2    ;  uncertainty k = 0.440860
        25        26        27        52     9        0.000000        0.882203         3    ;  uncertainty k = 0.149383
        25        26        27        52     9      180.000000       -0.285173         4    ;  uncertainty k = 0.185067
        25        26        27        53     9        0.000000       -0.852861         1    ;  uncertainty k = 0.235199
        25        26        27        53     9      180.000000       -0.179849         2    ;  uncertainty k = 0.440860
        25        26        27        53     9        0.000000        0.882203         3    ;  uncertainty k = 0.149383
        25        26        27        53     9      180.000000       -0.285173         4    ;  uncertainty k = 0.185067
        25        28        31        32     9        0.000000       -2.103207         1    ;  uncertainty k = 0.645315
        25        28        31        32     9      180.000000        0.538217         2    ;  uncertainty k = 0.647124
        25        28        31        32     9        0.000000        0.746804         3    ;  uncertainty k = 0.323280
        25        28        31        32     9      180.000000       -0.042398         4    ;  uncertainty k = 0.164024
        25        28        31        54     9        0.000000        1.729671         1    ;  uncertainty k = 0.676531
        25        28        31        54     9      180.000000       -1.483246         2    ;  uncertainty k = 0.373232
        25        28        31        54     9        0.000000        0.248175         3    ;  uncertainty k = 0.195062
        25        28        31        54     9      180.000000        0.016534         4    ;  uncertainty k = 0.061632
        25        28        31        55     9        0.000000        1.729671         1    ;  uncertainty k = 0.676531
        25        28        31        55     9      180.000000       -1.483246         2    ;  uncertainty k = 0.373232
        25        28        31        55     9        0.000000        0.248175         3    ;  uncertainty k = 0.195062
        25        28        31        55     9      180.000000        0.016534         4    ;  uncertainty k = 0.061632
        26        25        24        48     9        0.000000       -6.211466         1    ;  uncertainty k = 0.401821
        26        25        24        48     9      180.000000        0.273829         2    ;  uncertainty k = 0.303792
        26        25        24        48     9        0.000000        0.752021         3    ;  uncertainty k = 0.192836
        26        25        24        48     9      180.000000       -0.002512         4    ;  uncertainty k = 0.021259
        26        25        24        49     9        0.000000       -6.211466         1    ;  uncertainty k = 0.401821
        26        25        24        49     9      180.000000        0.273829         2    ;  uncertainty k = 0.303792
        26        25        24        49     9        0.000000        0.752021         3    ;  uncertainty k = 0.192836
        26        25        24        49     9      180.000000       -0.002512         4    ;  uncertainty k = 0.021259
        26        25        28        29     9        0.000000        1.270237         1    ;  uncertainty k = 0.500475
        26        25        28        29     9      180.000000        2.505361         2    ;  uncertainty k = 0.401482
        26        25        28        29     9        0.000000        0.779609         3    ;  uncertainty k = 0.159997
        26        25        28        29     9      180.000000       -0.308889         4    ;  uncertainty k = 0.140057
        26        25        28        30     9        0.000000        1.270237         1    ;  uncertainty k = 0.500475
        26        25        28        30     9      180.000000        2.505361         2    ;  uncertainty k = 0.401482
        26        25        28        30     9        0.000000        0.779609         3    ;  uncertainty k = 0.159997
        26        25        28        30     9      180.000000       -0.308889         4    ;  uncertainty k = 0.140057
        26        25        28        31     9        0.000000       -7.549010         1    ;  uncertainty k = 0.541322
        26        25        28        31     9      180.000000       -2.996510         2    ;  uncertainty k = 0.664699
        26        25        28        31     9        0.000000       -0.101282         3    ;  uncertainty k = 0.314563
        26        25        28        31     9      180.000000       -0.343229         4    ;  uncertainty k = 0.158947
        26        27        22        45     9        0.000000       -1.489834         1    ;  uncertainty k = 0.498262
        26        27        22        45     9      180.000000       -0.726861         2    ;  uncertainty k = 0.320028
        26        27        22        45     9        0.000000        0.084383         3    ;  uncertainty k = 0.138187
        26        27        22        45     9      180.000000       -0.160514         4    ;  uncertainty k = 0.093764
        27        22        21        44     9        0.000000        2.841835         1    ;  uncertainty k = 0.368019
        27        22        21        44     9      180.000000       -1.817583         2    ;  uncertainty k = 0.255149
        27        22        21        44     9        0.000000        0.197702         3    ;  uncertainty k = 0.122169
        27        22        21        44     9      180.000000        0.111128         4    ;  uncertainty k = 0.094779
        27        22        23        46     9        0.000000       -1.844686         1    ;  uncertainty k = 0.323911
        27        22        23        46     9      180.000000       -0.032260         2    ;  uncertainty k = 0.103578
        27        22        23        46     9        0.000000        0.269779         3    ;  uncertainty k = 0.112380
        27        22        23        46     9      180.000000       -0.144836         4    ;  uncertainty k = 0.053686
        27        22        23        47     9        0.000000       -1.844686         1    ;  uncertainty k = 0.323911
        27        22        23        47     9      180.000000       -0.032260         2    ;  uncertainty k = 0.103578
        27        22        23        47     9        0.000000        0.269779         3    ;  uncertainty k = 0.112380
        27        22        23        47     9      180.000000       -0.144836         4    ;  uncertainty k = 0.053686
        27        26        25        28     9        0.000000       -7.348500         1    ;  uncertainty k = 0.834720
        27        26        25        28     9      180.000000       -1.724542         2    ;  uncertainty k = 0.551083
        27        26        25        28     9        0.000000       -0.216030         3    ;  uncertainty k = 0.339972
        27        26        25        28     9      180.000000       -0.827606         4    ;  uncertainty k = 0.173862
        28        25        24        48     9        0.000000        0.216597         1    ;  uncertainty k = 0.387098
        28        25        24        48     9      180.000000       -3.233432         2    ;  uncertainty k = 0.278301
        28        25        24        48     9        0.000000       -0.390106         3    ;  uncertainty k = 0.180329
        28        25        24        48     9      180.000000        0.207073         4    ;  uncertainty k = 0.075818
        28        25        24        49     9        0.000000        0.216597         1    ;  uncertainty k = 0.387098
        28        25        24        49     9      180.000000       -3.233432         2    ;  uncertainty k = 0.278301
        28        25        24        49     9        0.000000       -0.390106         3    ;  uncertainty k = 0.180329
        28        25        24        49     9      180.000000        0.207073         4    ;  uncertainty k = 0.075818
        28        25        26        50     9        0.000000        0.216597         1    ;  uncertainty k = 0.387098
        28        25        26        50     9      180.000000       -3.233432         2    ;  uncertainty k = 0.278301
        28        25        26        50     9        0.000000       -0.390106         3    ;  uncertainty k = 0.180329
        28        25        26        50     9      180.000000        0.207073         4    ;  uncertainty k = 0.075818
        28        25        26        51     9        0.000000        0.216597         1    ;  uncertainty k = 0.387098
        28        25        26        51     9      180.000000       -3.233432         2    ;  uncertainty k = 0.278301
        28        25        26        51     9        0.000000       -0.390106         3    ;  uncertainty k = 0.180329
        28        25        26        51     9      180.000000        0.207073         4    ;  uncertainty k = 0.075818
        28        31        32        33     9        0.000000       -0.508671         1    ;  uncertainty k = 0.400327
        28        31        32        33     9      180.000000        0.109861         2    ;  uncertainty k = 0.292575
        28        31        32        33     9        0.000000        0.489267         3    ;  uncertainty k = 0.148326
        28        31        32        33     9      180.000000        0.136143         4    ;  uncertainty k = 0.161357
        28        31        32        37     9        0.000000       -0.508671         1    ;  uncertainty k = 0.400327
        28        31        32        37     9      180.000000        0.109861         2    ;  uncertainty k = 0.292575
        28        31        32        37     9        0.000000        0.489267         3    ;  uncertainty k = 0.148326
        28        31        32        37     9      180.000000        0.136143         4    ;  uncertainty k = 0.161357
        29        28        31        32     9        0.000000       -3.517773         1    ;  uncertainty k = 0.508402
        29        28        31        32     9      180.000000        1.057358         2    ;  uncertainty k = 0.169990
        29        28        31        32     9        0.000000        0.875046         3    ;  uncertainty k = 0.164735
        29        28        31        32     9      180.000000       -0.037433         4    ;  uncertainty k = 0.176839
        29        28        31        54     9        0.000000        0.274046         1    ;  uncertainty k = 0.457905
        29        28        31        54     9      180.000000       -0.270909         2    ;  uncertainty k = 0.108223
        29        28        31        54     9        0.000000        0.500037         3    ;  uncertainty k = 0.075726
        29        28        31        54     9      180.000000        0.120953         4    ;  uncertainty k = 0.061549
        29        28        31        55     9        0.000000        0.274046         1    ;  uncertainty k = 0.457905
        29        28        31        55     9      180.000000       -0.270909         2    ;  uncertainty k = 0.108223
        29        28        31        55     9        0.000000        0.500037         3    ;  uncertainty k = 0.075726
        29        28        31        55     9      180.000000        0.120953         4    ;  uncertainty k = 0.061549
        30        28        31        32     9        0.000000       -3.517773         1    ;  uncertainty k = 0.508402
        30        28        31        32     9      180.000000        1.057358         2    ;  uncertainty k = 0.169990
        30        28        31        32     9        0.000000        0.875046         3    ;  uncertainty k = 0.164735
        30        28        31        32     9      180.000000       -0.037433         4    ;  uncertainty k = 0.176839
        30        28        31        54     9        0.000000        0.274046         1    ;  uncertainty k = 0.457905
        30        28        31        54     9      180.000000       -0.270909         2    ;  uncertainty k = 0.108223
        30        28        31        54     9        0.000000        0.500037         3    ;  uncertainty k = 0.075726
        30        28        31        54     9      180.000000        0.120953         4    ;  uncertainty k = 0.061549
        30        28        31        55     9        0.000000        0.274046         1    ;  uncertainty k = 0.457905
        30        28        31        55     9      180.000000       -0.270909         2    ;  uncertainty k = 0.108223
        30        28        31        55     9        0.000000        0.500037         3    ;  uncertainty k = 0.075726
        30        28        31        55     9      180.000000        0.120953         4    ;  uncertainty k = 0.061549
        31        32        33        34     9        0.000000        0.029691         1    ;  uncertainty k = 0.134748
        31        32        33        34     9      180.000000        9.540094         2    ;  uncertainty k = 0.393169
        31        32        33        34     9        0.000000        1.316637         3    ;  uncertainty k = 0.160709
        31        32        33        34     9      180.000000        1.781504         4    ;  uncertainty k = 0.172287
        31        32        33        56     9        0.000000       -0.192139         1    ;  uncertainty k = 0.488988
        31        32        33        56     9      180.000000        7.818156         2    ;  uncertainty k = 0.131520
        31        32        33        56     9        0.000000        0.488756         3    ;  uncertainty k = 0.323898
        31        32        33        56     9      180.000000        0.963453         4    ;  uncertainty k = 0.223176
        31        32        37        36     9        0.000000        0.029691         1    ;  uncertainty k = 0.134748
        31        32        37        36     9      180.000000        9.540094         2    ;  uncertainty k = 0.393169
        31        32        37        36     9        0.000000        1.316637         3    ;  uncertainty k = 0.160709
        31        32        37        36     9      180.000000        1.781504         4    ;  uncertainty k = 0.172287
        31        32        37        60     9        0.000000       -0.192139         1    ;  uncertainty k = 0.488988
        31        32        37        60     9      180.000000        7.818156         2    ;  uncertainty k = 0.131520
        31        32        37        60     9        0.000000        0.488756         3    ;  uncertainty k = 0.323898
        31        32        37        60     9      180.000000        0.963453         4    ;  uncertainty k = 0.223176
        32        33        34        35     9        0.000000       -0.141405         1    ;  uncertainty k = 0.080074
        32        33        34        35     9      180.000000       14.211439         2    ;  uncertainty k = 0.296513
        32        33        34        35     9        0.000000       -0.909381         3    ;  uncertainty k = 0.407921
        32        33        34        35     9      180.000000        0.696824         4    ;  uncertainty k = 0.203750
        32        33        34        57     9        0.000000        0.040951         1    ;  uncertainty k = 0.256241
        32        33        34        57     9      180.000000        7.906327         2    ;  uncertainty k = 0.275548
        32        33        34        57     9        0.000000        1.455980         3    ;  uncertainty k = 0.278750
        32        33        34        57     9      180.000000        1.767703         4    ;  uncertainty k = 0.078271
        32        37        36        35     9        0.000000       -0.141405         1    ;  uncertainty k = 0.080074
        32        37        36        35     9      180.000000       14.211439         2    ;  uncertainty k = 0.296513
        32        37        36        35     9        0.000000       -0.909381         3    ;  uncertainty k = 0.407921
        32        37        36        35     9      180.000000        0.696824         4    ;  uncertainty k = 0.203750
        32        37        36        59     9        0.000000        0.040951         1    ;  uncertainty k = 0.256241
        32        37        36        59     9      180.000000        7.906327         2    ;  uncertainty k = 0.275548
        32        37        36        59     9        0.000000        1.455980         3    ;  uncertainty k = 0.278750
        32        37        36        59     9      180.000000        1.767703         4    ;  uncertainty k = 0.078271
        33        32        31        54     9        0.000000       -0.670198         1    ;  uncertainty k = 0.310313
        33        32        31        54     9      180.000000        2.335620         2    ;  uncertainty k = 0.290355
        33        32        31        54     9        0.000000        0.573185         3    ;  uncertainty k = 0.091459
        33        32        31        54     9      180.000000        0.141123         4    ;  uncertainty k = 0.051500
        33        32        31        55     9        0.000000       -0.670198         1    ;  uncertainty k = 0.310313
        33        32        31        55     9      180.000000        2.335620         2    ;  uncertainty k = 0.290355
        33        32        31        55     9        0.000000        0.573185         3    ;  uncertainty k = 0.091459
        33        32        31        55     9      180.000000        0.141123         4    ;  uncertainty k = 0.051500
        33        32        37        36     9        0.000000       -0.274200         1    ;  uncertainty k = 0.155012
        33        32        37        36     9      180.000000       12.419941         2    ;  uncertainty k = 0.367621
        33        32        37        36     9        0.000000       -0.613983         3    ;  uncertainty k = 0.363169
        33        32        37        36     9      180.000000        0.748134         4    ;  uncertainty k = 0.335220
        33        32        37        60     9        0.000000        0.235684         1    ;  uncertainty k = 0.179119
        33        32        37        60     9      180.000000        7.335105         2    ;  uncertainty k = 0.512439
        33        32        37        60     9        0.000000        1.444830         3    ;  uncertainty k = 0.318985
        33        32        37        60     9      180.000000        1.632138         4    ;  uncertainty k = 0.184799
        33        34        35        36     9        0.000000       -0.024061         1    ;  uncertainty k = 0.037887
        33        34        35        36     9      180.000000       15.000372         2    ;  uncertainty k = 0.295768
        33        34        35        36     9        0.000000       -1.149710         3    ;  uncertainty k = 0.449579
        33        34        35        36     9      180.000000        0.517636         4    ;  uncertainty k = 0.267684
        33        34        35        58     9        0.000000        0.006545         1    ;  uncertainty k = 0.122113
        33        34        35        58     9      180.000000        7.490839         2    ;  uncertainty k = 0.284308
        33        34        35        58     9        0.000000        1.487446         3    ;  uncertainty k = 0.291683
        33        34        35        58     9      180.000000        1.788809         4    ;  uncertainty k = 0.187633
        34        33        32        37     9        0.000000       -0.274200         1    ;  uncertainty k = 0.155012
        34        33        32        37     9      180.000000       12.419941         2    ;  uncertainty k = 0.367621
        34        33        32        37     9        0.000000       -0.613983         3    ;  uncertainty k = 0.363169
        34        33        32        37     9      180.000000        0.748134         4    ;  uncertainty k = 0.335220
        34        35        36        37     9        0.000000       -0.024061         1    ;  uncertainty k = 0.037887
        34        35        36        37     9      180.000000       15.000372         2    ;  uncertainty k = 0.295768
        34        35        36        37     9        0.000000       -1.149710         3    ;  uncertainty k = 0.449579
        34        35        36        37     9      180.000000        0.517636         4    ;  uncertainty k = 0.267684
        34        35        36        59     9        0.000000        0.055135         1    ;  uncertainty k = 0.036562
        34        35        36        59     9      180.000000        7.569523         2    ;  uncertainty k = 0.317634
        34        35        36        59     9        0.000000        1.452465         3    ;  uncertainty k = 0.319971
        34        35        36        59     9      180.000000        1.800290         4    ;  uncertainty k = 0.152963
        35        34        33        56     9        0.000000        0.056452         1    ;  uncertainty k = 0.065580
        35        34        33        56     9      180.000000        7.913053         2    ;  uncertainty k = 0.295561
        35        34        33        56     9        0.000000        1.417120         3    ;  uncertainty k = 0.293002
        35        34        33        56     9      180.000000        1.854041         4    ;  uncertainty k = 0.169678
        35        36        37        60     9        0.000000        0.056452         1    ;  uncertainty k = 0.065580
        35        36        37        60     9      180.000000        7.913053         2    ;  uncertainty k = 0.295561
        35        36        37        60     9        0.000000        1.417120         3    ;  uncertainty k = 0.293002
        35        36        37        60     9      180.000000        1.854041         4    ;  uncertainty k = 0.169678
        36        35        34        57     9        0.000000        0.055135         1    ;  uncertainty k = 0.036562
        36        35        34        57     9      180.000000        7.569523         2    ;  uncertainty k = 0.317634
        36        35        34        57     9        0.000000        1.452465         3    ;  uncertainty k = 0.319971
        36        35        34        57     9      180.000000        1.800290         4    ;  uncertainty k = 0.152963
        37        32        31        54     9        0.000000       -0.670198         1    ;  uncertainty k = 0.310313
        37        32        31        54     9      180.000000        2.335620         2    ;  uncertainty k = 0.290355
        37        32        31        54     9        0.000000        0.573185         3    ;  uncertainty k = 0.091459
        37        32        31        54     9      180.000000        0.141123         4    ;  uncertainty k = 0.051500
        37        32        31        55     9        0.000000       -0.670198         1    ;  uncertainty k = 0.310313
        37        32        31        55     9      180.000000        2.335620         2    ;  uncertainty k = 0.290355
        37        32        31        55     9        0.000000        0.573185         3    ;  uncertainty k = 0.091459
        37        32        31        55     9      180.000000        0.141123         4    ;  uncertainty k = 0.051500
        37        32        33        56     9        0.000000        0.235684         1    ;  uncertainty k = 0.179119
        37        32        33        56     9      180.000000        7.335105         2    ;  uncertainty k = 0.512439
        37        32        33        56     9        0.000000        1.444830         3    ;  uncertainty k = 0.318985
        37        32        33        56     9      180.000000        1.632138         4    ;  uncertainty k = 0.184799
        37        36        35        58     9        0.000000        0.006545         1    ;  uncertainty k = 0.122113
        37        36        35        58     9      180.000000        7.490839         2    ;  uncertainty k = 0.284308
        37        36        35        58     9        0.000000        1.487446         3    ;  uncertainty k = 0.291683
        37        36        35        58     9      180.000000        1.788809         4    ;  uncertainty k = 0.187633
        39        12        13        40     9        0.000000       -0.030964         1    ;  uncertainty k = 0.241397
        39        12        13        40     9      180.000000        7.640900         2    ;  uncertainty k = 0.355361
        39        12        13        40     9        0.000000       -0.381487         3    ;  uncertainty k = 0.259502
        39        12        13        40     9      180.000000        0.184223         4    ;  uncertainty k = 0.153158
        40        13        14        41     9        0.000000       -0.050066         1    ;  uncertainty k = 0.278325
        40        13        14        41     9      180.000000        7.661477         2    ;  uncertainty k = 0.370158
        40        13        14        41     9        0.000000       -0.453259         3    ;  uncertainty k = 0.298223
        40        13        14        41     9      180.000000        0.118394         4    ;  uncertainty k = 0.127639
        44        21        22        45     9        0.000000        1.900511         1    ;  uncertainty k = 0.549901
        44        21        22        45     9      180.000000       -3.254433         2    ;  uncertainty k = 0.371707
        44        21        22        45     9        0.000000       -0.041544         3    ;  uncertainty k = 0.134753
        44        21        22        45     9      180.000000        0.164363         4    ;  uncertainty k = 0.065312
        45        22        23        46     9        0.000000        1.424511         1    ;  uncertainty k = 0.552611
        45        22        23        46     9      180.000000       -0.379491         2    ;  uncertainty k = 0.197817
        45        22        23        46     9        0.000000        0.015021         3    ;  uncertainty k = 0.104245
        45        22        23        46     9      180.000000        0.051316         4    ;  uncertainty k = 0.025024
        45        22        23        47     9        0.000000        1.424511         1    ;  uncertainty k = 0.552611
        45        22        23        47     9      180.000000       -0.379491         2    ;  uncertainty k = 0.197817
        45        22        23        47     9        0.000000        0.015021         3    ;  uncertainty k = 0.104245
        45        22        23        47     9      180.000000        0.051316         4    ;  uncertainty k = 0.025024
        45        22        27        52     9        0.000000        1.424511         1    ;  uncertainty k = 0.552611
        45        22        27        52     9      180.000000       -0.379491         2    ;  uncertainty k = 0.197817
        45        22        27        52     9        0.000000        0.015021         3    ;  uncertainty k = 0.104245
        45        22        27        52     9      180.000000        0.051316         4    ;  uncertainty k = 0.025024
        45        22        27        53     9        0.000000        1.424511         1    ;  uncertainty k = 0.552611
        45        22        27        53     9      180.000000       -0.379491         2    ;  uncertainty k = 0.197817
        45        22        27        53     9        0.000000        0.015021         3    ;  uncertainty k = 0.104245
        45        22        27        53     9      180.000000        0.051316         4    ;  uncertainty k = 0.025024
        46        23        24        48     9        0.000000       -0.035997         1    ;  uncertainty k = 0.290447
        46        23        24        48     9      180.000000        0.482516         2    ;  uncertainty k = 0.352023
        46        23        24        48     9        0.000000        0.104594         3    ;  uncertainty k = 0.074944
        46        23        24        48     9      180.000000       -0.250465         4    ;  uncertainty k = 0.095361
        46        23        24        49     9        0.000000       -0.035997         1    ;  uncertainty k = 0.290447
        46        23        24        49     9      180.000000        0.482516         2    ;  uncertainty k = 0.352023
        46        23        24        49     9        0.000000        0.104594         3    ;  uncertainty k = 0.074944
        46        23        24        49     9      180.000000       -0.250465         4    ;  uncertainty k = 0.095361
        47        23        24        48     9        0.000000       -0.035997         1    ;  uncertainty k = 0.290447
        47        23        24        48     9      180.000000        0.482516         2    ;  uncertainty k = 0.352023
        47        23        24        48     9        0.000000        0.104594         3    ;  uncertainty k = 0.074944
        47        23        24        48     9      180.000000       -0.250465         4    ;  uncertainty k = 0.095361
        47        23        24        49     9        0.000000       -0.035997         1    ;  uncertainty k = 0.290447
        47        23        24        49     9      180.000000        0.482516         2    ;  uncertainty k = 0.352023
        47        23        24        49     9        0.000000        0.104594         3    ;  uncertainty k = 0.074944
        47        23        24        49     9      180.000000       -0.250465         4    ;  uncertainty k = 0.095361
        50        26        27        52     9        0.000000       -0.035997         1    ;  uncertainty k = 0.290447
        50        26        27        52     9      180.000000        0.482516         2    ;  uncertainty k = 0.352023
        50        26        27        52     9        0.000000        0.104594         3    ;  uncertainty k = 0.074944
        50        26        27        52     9      180.000000       -0.250465         4    ;  uncertainty k = 0.095361
        50        26        27        53     9        0.000000       -0.035997         1    ;  uncertainty k = 0.290447
        50        26        27        53     9      180.000000        0.482516         2    ;  uncertainty k = 0.352023
        50        26        27        53     9        0.000000        0.104594         3    ;  uncertainty k = 0.074944
        50        26        27        53     9      180.000000       -0.250465         4    ;  uncertainty k = 0.095361
        51        26        27        52     9        0.000000       -0.035997         1    ;  uncertainty k = 0.290447
        51        26        27        52     9      180.000000        0.482516         2    ;  uncertainty k = 0.352023
        51        26        27        52     9        0.000000        0.104594         3    ;  uncertainty k = 0.074944
        51        26        27        52     9      180.000000       -0.250465         4    ;  uncertainty k = 0.095361
        51        26        27        53     9        0.000000       -0.035997         1    ;  uncertainty k = 0.290447
        51        26        27        53     9      180.000000        0.482516         2    ;  uncertainty k = 0.352023
        51        26        27        53     9        0.000000        0.104594         3    ;  uncertainty k = 0.074944
        51        26        27        53     9      180.000000       -0.250465         4    ;  uncertainty k = 0.095361
        56        33        34        57     9        0.000000       -0.057002         1    ;  uncertainty k = 0.102498
        56        33        34        57     9      180.000000        7.749801         2    ;  uncertainty k = 0.346074
        56        33        34        57     9        0.000000       -0.473069         3    ;  uncertainty k = 0.287088
        56        33        34        57     9      180.000000        0.087408         4    ;  uncertainty k = 0.115760
        57        34        35        58     9        0.000000       -0.014268         1    ;  uncertainty k = 0.081434
        57        34        35        58     9      180.000000        7.540895         2    ;  uncertainty k = 0.372950
        57        34        35        58     9        0.000000       -0.423023         3    ;  uncertainty k = 0.279630
        57        34        35        58     9      180.000000        0.044035         4    ;  uncertainty k = 0.144091
        58        35        36        59     9        0.000000       -0.014268         1    ;  uncertainty k = 0.081434
        58        35        36        59     9      180.000000        7.540896         2    ;  uncertainty k = 0.372950
        58        35        36        59     9        0.000000       -0.423023         3    ;  uncertainty k = 0.279630
        58        35        36        59     9      180.000000        0.044035         4    ;  uncertainty k = 0.144091
        59        36        37        60     9        0.000000       -0.057002         1    ;  uncertainty k = 0.102498
        59        36        37        60     9      180.000000        7.749801         2    ;  uncertainty k = 0.346074
        59        36        37        60     9        0.000000       -0.473069         3    ;  uncertainty k = 0.287088
        59        36        37        60     9      180.000000        0.087408         4    ;  uncertainty k = 0.115760

[ dihedrals ] ; impropers
;       ai        aj        ak        al funct           phase               k        pn
         2         1         3         6     4      180.000000        2.938853         2    ;  uncertainty k = 1.211701
         2         3         6         1     4      180.000000        2.938853         2    ;  uncertainty k = 1.211701
         2         6         1         3     4      180.000000        2.938853         2    ;  uncertainty k = 1.211701
         3         2         4        16     4      180.000000        5.207643         2    ;  uncertainty k = 0.996782
         3         4        16         2     4      180.000000        5.207643         2    ;  uncertainty k = 0.996782
         3        16         2         4     4      180.000000        5.207643         2    ;  uncertainty k = 0.996782
         4         3         5        15     4      180.000000        3.530473         2    ;  uncertainty k = 0.504883
         4         5        15         3     4      180.000000        3.530473         2    ;  uncertainty k = 0.504883
         4        15         3         5     4      180.000000        3.530473         2    ;  uncertainty k = 0.504883
         5         1         4         9     4      180.000000        5.072985         2    ;  uncertainty k = 0.342076
         5         4         9         1     4      180.000000        5.072985         2    ;  uncertainty k = 0.342076
         5         9         1         4     4      180.000000        5.072985         2    ;  uncertainty k = 0.342076
         6         2         7         8     4      180.000000       66.222763         2    ;  uncertainty k = 0.054073
         6         7         8         2     4      180.000000       66.222763         2    ;  uncertainty k = 0.054073
         6         8         2         7     4      180.000000       66.222763         2    ;  uncertainty k = 0.054073
         9         5        10        14     4      180.000000       14.854213         2    ;  uncertainty k = 0.075379
         9        10        14         5     4      180.000000       14.854213         2    ;  uncertainty k = 0.075379
         9        14         5        10     4      180.000000       14.854213         2    ;  uncertainty k = 0.075379
        10         9        11        38     4      180.000000        2.230426         2    ;  uncertainty k = 0.431652
        10        11        38         9     4      180.000000        2.230426         2    ;  uncertainty k = 0.431652
        10        38         9        11     4      180.000000        2.230426         2    ;  uncertainty k = 0.431652
        11        10        12        21     4      180.000000       20.812110         2    ;  uncertainty k = 0.083956
        11        12        21        10     4      180.000000       20.812110         2    ;  uncertainty k = 0.083956
        11        21        10        12     4      180.000000       20.812110         2    ;  uncertainty k = 0.083956
        12        11        13        39     4      180.000000        2.355810         2    ;  uncertainty k = 0.307570
        12        13        39        11     4      180.000000        2.355810         2    ;  uncertainty k = 0.307570
        12        39        11        13     4      180.000000        2.355810         2    ;  uncertainty k = 0.307570
        13        12        14        40     4      180.000000        4.263019         2    ;  uncertainty k = 0.171093
        13        14        40        12     4      180.000000        4.263019         2    ;  uncertainty k = 0.171093
        13        40        12        14     4      180.000000        4.263019         2    ;  uncertainty k = 0.171093
        14         9        13        41     4      180.000000        3.255683         2    ;  uncertainty k = 0.217390
        14        13        41         9     4      180.000000        3.255683         2    ;  uncertainty k = 0.217390
        14        41         9        13     4      180.000000        3.255683         2    ;  uncertainty k = 0.217390
        18        17        19        20     4      180.000000       68.315758         2    ;  uncertainty k = 0.023547
        18        19        20        17     4      180.000000       68.315758         2    ;  uncertainty k = 0.023547
        18        20        17        19     4      180.000000       68.315758         2    ;  uncertainty k = 0.023547
        32        31        33        37     4      180.000000       12.069193         2    ;  uncertainty k = 0.153646
        32        33        37        31     4      180.000000       12.069193         2    ;  uncertainty k = 0.153646
        32        37        31        33     4      180.000000       12.069193         2    ;  uncertainty k = 0.153646
        33        32        34        56     4      180.000000        3.892302         2    ;  uncertainty k = 0.151209
        33        34        56        32     4      180.000000        3.892302         2    ;  uncertainty k = 0.151209
        33        56        32        34     4      180.000000        3.892302         2    ;  uncertainty k = 0.151209
        34        33        35        57     4      180.000000        4.208112         2    ;  uncertainty k = 0.090757
        34        35        57        33     4      180.000000        4.208112         2    ;  uncertainty k = 0.090757
        34        57        33        35     4      180.000000        4.208112         2    ;  uncertainty k = 0.090757
        35        34        36        58     4      180.000000        4.444632         2    ;  uncertainty k = 0.168114
        35        36        58        34     4      180.000000        4.444632         2    ;  uncertainty k = 0.168114
        35        58        34        36     4      180.000000        4.444632         2    ;  uncertainty k = 0.168114
        36        35        37        59     4      180.000000        4.208112         2    ;  uncertainty k = 0.090757
        36        37        59        35     4      180.000000        4.208112         2    ;  uncertainty k = 0.090757
        36        59        35        37     4      180.000000        4.208112         2    ;  uncertainty k = 0.090757
        37        32        36        60     4      180.000000        3.892302         2    ;  uncertainty k = 0.151209
        37        36        60        32     4      180.000000        3.892302         2    ;  uncertainty k = 0.151209
        37        60        32        36     4      180.000000        3.892302         2    ;  uncertainty k = 0.151209

[ pairs ]
;       ai        aj funct
         1         7     1
         1         8     1
         1        10     1
         1        14     1
         1        15     1
         1        16     1
         2         9     1
         2        15     1
         2        17     1
         3         7     1
         3         8     1
         3         9     1
         3        18     1
         3        42     1
         3        43     1
         4         6     1
         4        10     1
         4        14     1
         4        17     1
         5         6     1
         5        11     1
         5        13     1
         5        16     1
         5        38     1
         5        41     1
         6        16     1
         9        12     1
         9        15     1
         9        21     1
         9        40     1
        10        13     1
        10        22     1
        10        39     1
        10        41     1
        10        44     1
        11        14     1
        11        23     1
        11        27     1
        11        40     1
        11        45     1
        12        22     1
        12        38     1
        12        41     1
        12        44     1
        13        21     1
        14        38     1
        14        39     1
        15        16     1
        16        19     1
        16        20     1
        19        42     1
        19        43     1
        20        42     1
        20        43     1
        21        24     1
        21        26     1
        21        38     1
        21        39     1
        21        46     1
        21        47     1
        21        52     1
        21        53     1
        22        25     1
        22        48     1
        22        49     1
        22        50     1
        22        51     1
        23        26     1
        23        28     1
        23        44     1
        23        52     1
        23        53     1
        24        27     1
        24        29     1
        24        30     1
        24        31     1
        24        45     1
        24        50     1
        24        51     1
        25        32     1
        25        46     1
        25        47     1
        25        52     1
        25        53     1
        25        54     1
        25        55     1
        26        29     1
        26        30     1
        26        31     1
        26        45     1
        26        48     1
        26        49     1
        27        28     1
        27        44     1
        27        46     1
        27        47     1
        28        33     1
        28        37     1
        28        48     1
        28        49     1
        28        50     1
        28        51     1
        29        32     1
        29        54     1
        29        55     1
        30        32     1
        30        54     1
        30        55     1
        31        34     1
        31        36     1
        31        56     1
        31        60     1
        32        35     1
        32        57     1
        32        59     1
        33        36     1
        33        54     1
        33        55     1
        33        58     1
        33        60     1
        34        37     1
        34        59     1
        35        56     1
        35        60     1
        36        57     1
        37        54     1
        37        55     1
        37        56     1
        37        58     1
        39        40     1
        40        41     1
        44        45     1
        45        46     1
        45        47     1
        45        52     1
        45        53     1
        46        48     1
        46        49     1
        47        48     1
        47        49     1
        50        52     1
        50        53     1
        51        52     1
        51        53     1
        56        57     1
        57        58     1
        58        59     1
        59        60     1
