; ITP file created by ByteFF-ML, 2026-02-21 08:14:54.840157

[ atomtypes ]
;name           bonded.type        at.num        mass        charge   ptype           sigma         epsilon
 c0bf                                   6      0.0000       0.00000       A     3.31640e-01     4.10678e-01
 o1bf                                   8      0.0000       0.00000       A     3.04614e-01     6.11721e-01
 c2bf                                   6      0.0000       0.00000       A     3.39963e-01     4.54005e-01
 o3bf                                   8      0.0000       0.00000       A     3.23486e-01     3.94788e-01
 c4bf                                   6      0.0000       0.00000       A     3.39963e-01     4.54005e-01
 o5bf                                   8      0.0000       0.00000       A     3.23486e-01     3.94788e-01
 c6bf                                   6      0.0000       0.00000       A     3.31640e-01     4.10678e-01
 o7bf                                   8      0.0000       0.00000       A     3.04614e-01     6.11721e-01
 o8bf                                   8      0.0000       0.00000       A     3.04614e-01     6.11721e-01
 o9bf                                   8      0.0000       0.00000       A     3.04614e-01     6.11721e-01
 h10bf                                  1      0.0000       0.00000       A     5.42411e-02     2.29499e-02
 h11bf                                  1      0.0000       0.00000       A     5.42411e-02     2.29499e-02
 h12bf                                  1      0.0000       0.00000       A     2.41844e-01     8.49045e-02
 h13bf                                  1      0.0000       0.00000       A     2.41844e-01     8.49045e-02

[ moleculetype ]
;name             nrexcl
 TLA_1                 3

[ atoms ]
;       nr            type      resi   res      atom      cgnr      charge          mass ; qtot
         1            c0bf         1   UNL        c0         1     0.71029       12.0110 ; qtot    0.710
         2            o1bf         1   UNL        o1         2    -0.74840       15.9990 ; qtot   -0.038
         3            c2bf         1   UNL        c2         3     0.02596       12.0110 ; qtot   -0.012
         4            o3bf         1   UNL        o3         4    -0.74450       15.9990 ; qtot   -0.757
         5            c4bf         1   UNL        c4         5     0.02596       12.0110 ; qtot   -0.731
         6            o5bf         1   UNL        o5         6    -0.74450       15.9990 ; qtot   -1.475
         7            c6bf         1   UNL        c6         7     0.71029       12.0110 ; qtot   -0.765
         8            o7bf         1   UNL        o7         8    -0.74840       15.9990 ; qtot   -1.513
         9            o8bf         1   UNL        o8         9    -0.74840       15.9990 ; qtot   -2.262
        10            o9bf         1   UNL        o9        10    -0.74840       15.9990 ; qtot   -3.010
        11           h10bf         1   UNL       h10        11     0.48113        1.0080 ; qtot   -2.529
        12           h11bf         1   UNL       h11        12     0.48113        1.0080 ; qtot   -2.048
        13           h12bf         1   UNL       h12        13     0.02391        1.0080 ; qtot   -2.024
        14           h13bf         1   UNL       h13        14     0.02393        1.0080 ; qtot   -2.000

[ bonds ]
;       ai        aj funct               r               k
         1         2     1        0.126713   467374.097949
         1         3     1        0.157071   110065.515991
         1         9     1        0.126713   467374.097949
         3         4     1        0.143219   184162.868921
         3         5     1        0.154408   148962.185376
         3        13     1        0.109824   286746.394922
         4        12     1        0.100581   307923.477002
         5         6     1        0.143219   184162.868921
         5         7     1        0.157071   110065.528760
         5        14     1        0.109824   286746.394922
         6        11     1        0.100581   307923.451465
         7         8     1        0.126713   467374.046875
         7        10     1        0.126713   467374.046875

[ angles ]
;       ai        aj        ak funct           theta             cth
         1         3         4     1      109.468628      525.233284
         1         3         5     1      114.687607      648.324003
         1         3        13     1      107.480453      481.103371
         2         1         3     1      115.553734      324.126728
         2         1         9     1      128.403320      741.809997
         3         1         9     1      115.553734      324.126728
         3         4        12     1       98.922058      525.074731
         3         5         6     1      109.981590      566.368268
         3         5         7     1      114.687607      648.323811
         3         5        14     1      107.576355      449.501550
         4         3         5     1      109.981590      566.368204
         4         3        13     1      109.322243      466.523470
         5         3        13     1      107.576355      449.501486
         5         6        11     1       98.922073      525.074826
         5         7         8     1      115.553734      324.126664
         5         7        10     1      115.553734      324.126664
         6         5         7     1      109.468628      525.233380
         6         5        14     1      109.322243      466.523470
         7         5        14     1      107.480453      481.103371
         8         7        10     1      128.403320      741.809933

[ dihedrals ] ; propers for gromacs 4.5 or higher, use funct 9
;       ai        aj        ak        al funct           phase               k        pn
         1         3         4        12     9        0.000000       -1.344682         1
         1         3         4        12     9      180.000000       -1.326525         2
         1         3         4        12     9        0.000000        0.656722         3
         1         3         4        12     9      180.000000        0.161097         4
         1         3         5         6     9        0.000000       -5.199374         1
         1         3         5         6     9      180.000000       -0.312535         2
         1         3         5         6     9        0.000000        0.931984         3
         1         3         5         6     9      180.000000        0.018935         4
         1         3         5         7     9        0.000000       13.100226         1
         1         3         5         7     9      180.000000       -1.081651         2
         1         3         5         7     9        0.000000        0.453360         3
         1         3         5         7     9      180.000000        0.340973         4
         1         3         5        14     9        0.000000       -1.742389         1
         1         3         5        14     9      180.000000       -0.083107         2
         1         3         5        14     9        0.000000        0.681565         3
         1         3         5        14     9      180.000000       -0.069697         4
         2         1         3         4     9        0.000000        6.859017         1
         2         1         3         4     9      180.000000        2.710446         2
         2         1         3         4     9        0.000000        1.147359         3
         2         1         3         4     9      180.000000        0.112353         4
         2         1         3         5     9        0.000000       -2.917508         1
         2         1         3         5     9      180.000000        1.466194         2
         2         1         3         5     9        0.000000        0.306042         3
         2         1         3         5     9      180.000000       -0.140271         4
         2         1         3        13     9        0.000000        0.949132         1
         2         1         3        13     9      180.000000        0.252139         2
         2         1         3        13     9        0.000000        0.194788         3
         2         1         3        13     9      180.000000        0.083257         4
         3         5         6        11     9        0.000000        2.148928         1
         3         5         6        11     9      180.000000       -3.300226         2
         3         5         6        11     9        0.000000        1.109109         3
         3         5         6        11     9      180.000000        0.166373         4
         3         5         7         8     9        0.000000       -2.917508         1
         3         5         7         8     9      180.000000        1.466193         2
         3         5         7         8     9        0.000000        0.306042         3
         3         5         7         8     9      180.000000       -0.140271         4
         3         5         7        10     9        0.000000       -2.917508         1
         3         5         7        10     9      180.000000        1.466193         2
         3         5         7        10     9        0.000000        0.306042         3
         3         5         7        10     9      180.000000       -0.140271         4
         4         3         1         9     9        0.000000        6.859016         1
         4         3         1         9     9      180.000000        2.710446         2
         4         3         1         9     9        0.000000        1.147360         3
         4         3         1         9     9      180.000000        0.112353         4
         4         3         5         6     9        0.000000        5.022915         1
         4         3         5         6     9      180.000000       -1.174415         2
         4         3         5         6     9        0.000000        0.816194         3
         4         3         5         6     9      180.000000       -0.018662         4
         4         3         5         7     9        0.000000       -5.199373         1
         4         3         5         7     9      180.000000       -0.312535         2
         4         3         5         7     9        0.000000        0.931984         3
         4         3         5         7     9      180.000000        0.018936         4
         4         3         5        14     9        0.000000        0.043641         1
         4         3         5        14     9      180.000000        0.584201         2
         4         3         5        14     9        0.000000        1.056584         3
         4         3         5        14     9      180.000000       -0.138005         4
         5         3         1         9     9        0.000000       -2.917507         1
         5         3         1         9     9      180.000000        1.466193         2
         5         3         1         9     9        0.000000        0.306042         3
         5         3         1         9     9      180.000000       -0.140271         4
         5         3         4        12     9        0.000000        2.148925         1
         5         3         4        12     9      180.000000       -3.300228         2
         5         3         4        12     9        0.000000        1.109110         3
         5         3         4        12     9      180.000000        0.166372         4
         6         5         3        13     9        0.000000        0.043640         1
         6         5         3        13     9      180.000000        0.584202         2
         6         5         3        13     9        0.000000        1.056584         3
         6         5         3        13     9      180.000000       -0.138005         4
         6         5         7         8     9        0.000000        6.859019         1
         6         5         7         8     9      180.000000        2.710447         2
         6         5         7         8     9        0.000000        1.147360         3
         6         5         7         8     9      180.000000        0.112353         4
         6         5         7        10     9        0.000000        6.859016         1
         6         5         7        10     9      180.000000        2.710447         2
         6         5         7        10     9        0.000000        1.147360         3
         6         5         7        10     9      180.000000        0.112353         4
         7         5         3        13     9        0.000000       -1.742391         1
         7         5         3        13     9      180.000000       -0.083106         2
         7         5         3        13     9        0.000000        0.681565         3
         7         5         3        13     9      180.000000       -0.069697         4
         7         5         6        11     9        0.000000       -1.344681         1
         7         5         6        11     9      180.000000       -1.326528         2
         7         5         6        11     9        0.000000        0.656721         3
         7         5         6        11     9      180.000000        0.161098         4
         8         7         5        14     9        0.000000        0.949130         1
         8         7         5        14     9      180.000000        0.252139         2
         8         7         5        14     9        0.000000        0.194789         3
         8         7         5        14     9      180.000000        0.083257         4
         9         1         3        13     9        0.000000        0.949130         1
         9         1         3        13     9      180.000000        0.252139         2
         9         1         3        13     9        0.000000        0.194788         3
         9         1         3        13     9      180.000000        0.083257         4
        10         7         5        14     9        0.000000        0.949130         1
        10         7         5        14     9      180.000000        0.252139         2
        10         7         5        14     9        0.000000        0.194789         3
        10         7         5        14     9      180.000000        0.083257         4
        11         6         5        14     9        0.000000       -1.882234         1
        11         6         5        14     9      180.000000       -0.262179         2
        11         6         5        14     9        0.000000        0.633389         3
        11         6         5        14     9      180.000000       -0.099625         4
        12         4         3        13     9        0.000000       -1.882235         1
        12         4         3        13     9      180.000000       -0.262179         2
        12         4         3        13     9        0.000000        0.633388         3
        12         4         3        13     9      180.000000       -0.099625         4
        13         3         5        14     9        0.000000       -0.015358         1
        13         3         5        14     9      180.000000        0.796364         2
        13         3         5        14     9        0.000000        0.715391         3
        13         3         5        14     9      180.000000       -0.134646         4

[ dihedrals ] ; impropers
;       ai        aj        ak        al funct           phase               k        pn
         1         2         3         9     4      180.000000       20.765519         2
         1         3         9         2     4      180.000000       20.765519         2
         1         9         2         3     4      180.000000       20.765519         2
         7         5         8        10     4      180.000000       20.765546         2
         7         8        10         5     4      180.000000       20.765546         2
         7        10         5         8     4      180.000000       20.765546         2

[ pairs ]
;       ai        aj funct
         1         6     1
         1         7     1
         1        12     1
         1        14     1
         2         4     1
         2         5     1
         2        13     1
         3         8     1
         3        10     1
         3        11     1
         4         6     1
         4         7     1
         4         9     1
         4        14     1
         5         9     1
         5        12     1
         6         8     1
         6        10     1
         6        13     1
         7        11     1
         7        13     1
         8        14     1
         9        13     1
        10        14     1
        11        14     1
        12        13     1
        13        14     1
