; ITP file created by ByteFF-joint-25, 2025-07-14 11:38:55.646750

[ atomtypes ]
;name           bonded.type        at.num        mass        charge   ptype           sigma         epsilon
 c0bf                                   6      0.0000       0.00000       A     3.39769e-01     4.50701e-01    ;  uncertainty sigma = 0.000011, epsilon = 0.000850
 c1bf                                   6      0.0000       0.00000       A     3.31509e-01     4.13565e-01    ;  uncertainty sigma = 0.000016, epsilon = 0.000639
 c2bf                                   6      0.0000       0.00000       A     3.31531e-01     4.13449e-01    ;  uncertainty sigma = 0.000016, epsilon = 0.000439
 c3bf                                   6      0.0000       0.00000       A     3.31531e-01     4.12691e-01    ;  uncertainty sigma = 0.000016, epsilon = 0.001323
 c4bf                                   6      0.0000       0.00000       A     3.31516e-01     4.13608e-01    ;  uncertainty sigma = 0.000019, epsilon = 0.000900
 c5bf                                   6      0.0000       0.00000       A     3.31523e-01     4.13227e-01    ;  uncertainty sigma = 0.000004, epsilon = 0.000927
 c6bf                                   6      0.0000       0.00000       A     3.31516e-01     4.12685e-01    ;  uncertainty sigma = 0.000006, epsilon = 0.000577
 c7bf                                   6      0.0000       0.00000       A     3.31515e-01     4.13187e-01    ;  uncertainty sigma = 0.000025, epsilon = 0.000772
 c8bf                                   6      0.0000       0.00000       A     3.39768e-01     4.50721e-01    ;  uncertainty sigma = 0.000006, epsilon = 0.000951
 c9bf                                   6      0.0000       0.00000       A     3.39775e-01     4.50761e-01    ;  uncertainty sigma = 0.000002, epsilon = 0.000727
 n10bf                                  7      0.0000       0.00000       A     3.18064e-01     6.83377e-01    ;  uncertainty sigma = 0.000024, epsilon = 0.000639
 n11bf                                  7      0.0000       0.00000       A     3.20586e-01     8.52568e-01    ;  uncertainty sigma = 0.000030, epsilon = 0.002354
 o12bf                                  8      0.0000       0.00000       A     3.04823e-01     6.12695e-01    ;  uncertainty sigma = 0.000008, epsilon = 0.001761
 c13bf                                  6      0.0000       0.00000       A     3.31517e-01     4.13251e-01    ;  uncertainty sigma = 0.000009, epsilon = 0.000668
 c14bf                                  6      0.0000       0.00000       A     3.31513e-01     4.13205e-01    ;  uncertainty sigma = 0.000005, epsilon = 0.000641
 c15bf                                  6      0.0000       0.00000       A     3.31517e-01     4.13384e-01    ;  uncertainty sigma = 0.000002, epsilon = 0.000567
 c16bf                                  6      0.0000       0.00000       A     3.31524e-01     4.13317e-01    ;  uncertainty sigma = 0.000004, epsilon = 0.000606
 c17bf                                  6      0.0000       0.00000       A     3.31519e-01     4.13635e-01    ;  uncertainty sigma = 0.000013, epsilon = 0.001168
 c18bf                                  6      0.0000       0.00000       A     3.31518e-01     4.13101e-01    ;  uncertainty sigma = 0.000004, epsilon = 0.000807
 c19bf                                  6      0.0000       0.00000       A     3.31513e-01     4.13292e-01    ;  uncertainty sigma = 0.000014, epsilon = 0.000898
 o20bf                                  8      0.0000       0.00000       A     3.04820e-01     6.12248e-01    ;  uncertainty sigma = 0.000024, epsilon = 0.001577
 n21bf                                  7      0.0000       0.00000       A     3.18094e-01     6.84128e-01    ;  uncertainty sigma = 0.000012, epsilon = 0.001060
 c22bf                                  6      0.0000       0.00000       A     3.39780e-01     4.50875e-01    ;  uncertainty sigma = 0.000005, epsilon = 0.000552
 c23bf                                  6      0.0000       0.00000       A     3.39780e-01     4.50875e-01    ;  uncertainty sigma = 0.000005, epsilon = 0.000552
 h24bf                                  1      0.0000       0.00000       A     2.42202e-01     8.67256e-02    ;  uncertainty sigma = 0.000029, epsilon = 0.000632
 h25bf                                  1      0.0000       0.00000       A     2.42202e-01     8.67256e-02    ;  uncertainty sigma = 0.000029, epsilon = 0.000632
 h26bf                                  1      0.0000       0.00000       A     2.53572e-01     6.68601e-02    ;  uncertainty sigma = 0.000061, epsilon = 0.001163
 h27bf                                  1      0.0000       0.00000       A     2.62541e-01     6.71315e-02    ;  uncertainty sigma = 0.000006, epsilon = 0.000396
 h28bf                                  1      0.0000       0.00000       A     2.53650e-01     6.69354e-02    ;  uncertainty sigma = 0.000022, epsilon = 0.000688
 h29bf                                  1      0.0000       0.00000       A     2.60017e-01     8.65667e-02    ;  uncertainty sigma = 0.000015, epsilon = 0.000701
 h30bf                                  1      0.0000       0.00000       A     2.60017e-01     8.65667e-02    ;  uncertainty sigma = 0.000015, epsilon = 0.000701
 h31bf                                  1      0.0000       0.00000       A     2.60022e-01     8.65962e-02    ;  uncertainty sigma = 0.000013, epsilon = 0.000707
 h32bf                                  1      0.0000       0.00000       A     2.60022e-01     8.65962e-02    ;  uncertainty sigma = 0.000013, epsilon = 0.000707
 h33bf                                  1      0.0000       0.00000       A     2.60022e-01     8.65962e-02    ;  uncertainty sigma = 0.000013, epsilon = 0.000707
 h34bf                                  1      0.0000       0.00000       A     1.10686e-01     4.09719e-02    ;  uncertainty sigma = 0.000062, epsilon = 0.000972
 h35bf                                  1      0.0000       0.00000       A     2.62563e-01     6.70403e-02    ;  uncertainty sigma = 0.000011, epsilon = 0.000526
 h36bf                                  1      0.0000       0.00000       A     2.62563e-01     6.70146e-02    ;  uncertainty sigma = 0.000010, epsilon = 0.000410
 h37bf                                  1      0.0000       0.00000       A     2.62550e-01     6.70182e-02    ;  uncertainty sigma = 0.000010, epsilon = 0.000665
 h38bf                                  1      0.0000       0.00000       A     2.62555e-01     6.72136e-02    ;  uncertainty sigma = 0.000019, epsilon = 0.000855
 h39bf                                  1      0.0000       0.00000       A     2.42196e-01     8.67627e-02    ;  uncertainty sigma = 0.000011, epsilon = 0.000510
 h40bf                                  1      0.0000       0.00000       A     2.42196e-01     8.67627e-02    ;  uncertainty sigma = 0.000011, epsilon = 0.000510
 h41bf                                  1      0.0000       0.00000       A     2.42196e-01     8.67627e-02    ;  uncertainty sigma = 0.000011, epsilon = 0.000510
 h42bf                                  1      0.0000       0.00000       A     2.42196e-01     8.67627e-02    ;  uncertainty sigma = 0.000011, epsilon = 0.000510
 h43bf                                  1      0.0000       0.00000       A     2.42196e-01     8.67627e-02    ;  uncertainty sigma = 0.000011, epsilon = 0.000510
 h44bf                                  1      0.0000       0.00000       A     2.42196e-01     8.67625e-02    ;  uncertainty sigma = 0.000011, epsilon = 0.000510

[ moleculetype ]
;name             nrexcl
 MOL                   3

[ atoms ]
;       nr            type      resi   res      atom      cgnr      charge          mass ; qtot
         1            c0bf         1   UNL        c0         1     0.09089       12.0110 ; qtot    0.091
         2            c1bf         1   UNL        c1         2     0.72823       12.0110 ; qtot    0.819
         3            c2bf         1   UNL        c2         3     0.00495       12.0110 ; qtot    0.824
         4            c3bf         1   UNL        c3         4    -0.07039       12.0110 ; qtot    0.754
         5            c4bf         1   UNL        c4         5    -0.03462       12.0110 ; qtot    0.719
         6            c5bf         1   UNL        c5         6    -0.19938       12.0110 ; qtot    0.520
         7            c6bf         1   UNL        c6         7    -0.11510       12.0110 ; qtot    0.405
         8            c7bf         1   UNL        c7         8    -0.20316       12.0110 ; qtot    0.201
         9            c8bf         1   UNL        c8         9    -0.09917       12.0110 ; qtot    0.102
        10            c9bf         1   UNL        c9        10    -0.09112       12.0110 ; qtot    0.011
        11           n10bf         1   UNL       n10        11    -0.35139       14.0070 ; qtot   -0.340
        12           n11bf         1   UNL       n11        12    -0.13929       14.0070 ; qtot   -0.480
        13           o12bf         1   UNL       o12        13    -0.66354       15.9990 ; qtot   -1.143
        14           c13bf         1   UNL       c13        14    -0.02950       12.0110 ; qtot   -1.173
        15           c14bf         1   UNL       c14        15    -0.10611       12.0110 ; qtot   -1.279
        16           c15bf         1   UNL       c15        16    -0.13827       12.0110 ; qtot   -1.417
        17           c16bf         1   UNL       c16        17    -0.09053       12.0110 ; qtot   -1.508
        18           c17bf         1   UNL       c17        18    -0.14304       12.0110 ; qtot   -1.651
        19           c18bf         1   UNL       c18        19    -0.08800       12.0110 ; qtot   -1.739
        20           c19bf         1   UNL       c19        20     0.67807       12.0110 ; qtot   -1.060
        21           o20bf         1   UNL       o20        21    -0.59473       15.9990 ; qtot   -1.655
        22           n21bf         1   UNL       n21        22    -0.48247       14.0070 ; qtot   -2.138
        23           c22bf         1   UNL       c22        23     0.08268       12.0110 ; qtot   -2.055
        24           c23bf         1   UNL       c23        24     0.08268       12.0110 ; qtot   -1.972
        25           h24bf         1   UNL       h24        25     0.06369        1.0080 ; qtot   -1.909
        26           h25bf         1   UNL       h25        26     0.06369        1.0080 ; qtot   -1.845
        27           h26bf         1   UNL       h26        27     0.15453        1.0080 ; qtot   -1.690
        28           h27bf         1   UNL       h27        28     0.16006        1.0080 ; qtot   -1.530
        29           h28bf         1   UNL       h28        29     0.16563        1.0080 ; qtot   -1.365
        30           h29bf         1   UNL       h29        30     0.05026        1.0080 ; qtot   -1.314
        31           h30bf         1   UNL       h30        31     0.05026        1.0080 ; qtot   -1.264
        32           h31bf         1   UNL       h31        32     0.03593        1.0080 ; qtot   -1.228
        33           h32bf         1   UNL       h32        33     0.03593        1.0080 ; qtot   -1.192
        34           h33bf         1   UNL       h33        34     0.03593        1.0080 ; qtot   -1.156
        35           h34bf         1   UNL       h34        35     0.31885        1.0080 ; qtot   -0.838
        36           h35bf         1   UNL       h35        36     0.13708        1.0080 ; qtot   -0.700
        37           h36bf         1   UNL       h36        37     0.13776        1.0080 ; qtot   -0.563
        38           h37bf         1   UNL       h37        38     0.14579        1.0080 ; qtot   -0.417
        39           h38bf         1   UNL       h38        39     0.15025        1.0080 ; qtot   -0.267
        40           h39bf         1   UNL       h39        40     0.04445        1.0080 ; qtot   -0.222
        41           h40bf         1   UNL       h40        41     0.04445        1.0080 ; qtot   -0.178
        42           h41bf         1   UNL       h41        42     0.04445        1.0080 ; qtot   -0.133
        43           h42bf         1   UNL       h42        43     0.04445        1.0080 ; qtot   -0.089
        44           h43bf         1   UNL       h43        44     0.04445        1.0080 ; qtot   -0.044
        45           h44bf         1   UNL       h44        45     0.04442        1.0080 ; qtot   -0.000

[ bonds ]
;       ai        aj funct               r               k
         1         9     1        0.153112   210331.459937    ;  uncertainty r = 0.000056, k = 4.065489
         1        11     1        0.146328   240552.981738    ;  uncertainty r = 0.000064, k = 4.810549
         1        25     1        0.109367   306854.136084    ;  uncertainty r = 0.000029, k = 0.649967
         1        26     1        0.109367   306854.136084    ;  uncertainty r = 0.000029, k = 0.649967
         2         8     1        0.143846   256458.642627    ;  uncertainty r = 0.000060, k = 17.127127
         2        11     1        0.139638   236176.380859    ;  uncertainty r = 0.000154, k = 17.033344
         2        13     1        0.124849   727218.680371    ;  uncertainty r = 0.000122, k = 15.724071
         3         4     1        0.136400   401332.553857    ;  uncertainty r = 0.000119, k = 16.008256
         3        11     1        0.138110   273969.106543    ;  uncertainty r = 0.000209, k = 9.493583
         3        27     1        0.108456   334948.454980    ;  uncertainty r = 0.000088, k = 1.857018
         4         5     1        0.143438   266361.703809    ;  uncertainty r = 0.000143, k = 15.660581
         4        14     1        0.147762   285536.523291    ;  uncertainty r = 0.000044, k = 11.529693
         5         6     1        0.143098   272603.279785    ;  uncertainty r = 0.000093, k = 17.629831
         5         8     1        0.140258   406999.136279    ;  uncertainty r = 0.000075, k = 13.601771
         6         7     1        0.138514   432195.197559    ;  uncertainty r = 0.000076, k = 6.544483
         6        28     1        0.108231   338325.380176    ;  uncertainty r = 0.000029, k = 1.934609
         7        12     1        0.137723   308827.260840    ;  uncertainty r = 0.000097, k = 4.992967
         7        29     1        0.108224   341276.703906    ;  uncertainty r = 0.000037, k = 2.130474
         8        12     1        0.137225   329238.127490    ;  uncertainty r = 0.000090, k = 12.928558
         9        10     1        0.153483   221096.666699    ;  uncertainty r = 0.000035, k = 3.381715
         9        30     1        0.109645   306916.880762    ;  uncertainty r = 0.000011, k = 1.267265
         9        31     1        0.109645   306916.880762    ;  uncertainty r = 0.000011, k = 1.267265
        10        32     1        0.109638   309930.668262    ;  uncertainty r = 0.000010, k = 1.672374
        10        33     1        0.109638   309930.668262    ;  uncertainty r = 0.000010, k = 1.672374
        10        34     1        0.109638   309930.668262    ;  uncertainty r = 0.000010, k = 1.672374
        12        35     1        0.101139   415156.225293    ;  uncertainty r = 0.000050, k = 8.169425
        14        15     1        0.140255   348973.231152    ;  uncertainty r = 0.000047, k = 2.336407
        14        19     1        0.139991   341845.721777    ;  uncertainty r = 0.000087, k = 4.291725
        15        16     1        0.139400   369466.684814    ;  uncertainty r = 0.000016, k = 1.493069
        15        36     1        0.108826   334608.683740    ;  uncertainty r = 0.000025, k = 0.878876
        16        17     1        0.139413   368095.520801    ;  uncertainty r = 0.000010, k = 0.854537
        16        37     1        0.108823   332776.064160    ;  uncertainty r = 0.000020, k = 1.295620
        17        18     1        0.139890   349707.065527    ;  uncertainty r = 0.000044, k = 2.770799
        17        38     1        0.108700   331987.376074    ;  uncertainty r = 0.000012, k = 1.339248
        18        19     1        0.139558   343795.199170    ;  uncertainty r = 0.000050, k = 3.098708
        18        20     1        0.150223   268630.088623    ;  uncertainty r = 0.000058, k = 4.245765
        19        39     1        0.108745   332769.628809    ;  uncertainty r = 0.000047, k = 1.433152
        20        21     1        0.123674   775280.184180    ;  uncertainty r = 0.000040, k = 2.412179
        20        22     1        0.137463   375338.432373    ;  uncertainty r = 0.000044, k = 10.885088
        22        23     1        0.145945   249588.419629    ;  uncertainty r = 0.000026, k = 4.280278
        22        24     1        0.145945   249588.419629    ;  uncertainty r = 0.000026, k = 4.280278
        23        40     1        0.109445   311010.709229    ;  uncertainty r = 0.000011, k = 1.720998
        23        41     1        0.109445   311010.709229    ;  uncertainty r = 0.000011, k = 1.720998
        23        42     1        0.109445   311010.709229    ;  uncertainty r = 0.000011, k = 1.720998
        24        43     1        0.109445   311010.709229    ;  uncertainty r = 0.000011, k = 1.721008
        24        44     1        0.109445   311010.709229    ;  uncertainty r = 0.000011, k = 1.721008
        24        45     1        0.109445   311010.709229    ;  uncertainty r = 0.000011, k = 1.721008

[ angles ]
;       ai        aj        ak funct           theta             cth
         1         9        10     1      110.211143      580.237409    ;  uncertainty theta = 0.001138, k = 0.062999
         1         9        30     1      106.560913      393.349819    ;  uncertainty theta = 0.001945, k = 0.034694
         1         9        31     1      106.560913      393.349819    ;  uncertainty theta = 0.001945, k = 0.034694
         1        11         2     1      113.880089      428.272583    ;  uncertainty theta = 0.005767, k = 0.160714
         1        11         3     1      116.236916      453.640860    ;  uncertainty theta = 0.003105, k = 0.207519
         2         8         5     1      122.831787      387.076852    ;  uncertainty theta = 0.006771, k = 0.312053
         2         8        12     1      121.135544      351.892908    ;  uncertainty theta = 0.012124, k = 0.279347
         2        11         3     1      124.976517      509.603903    ;  uncertainty theta = 0.002525, k = 0.270539
         3         4         5     1      120.051918      429.480743    ;  uncertainty theta = 0.005077, k = 0.142427
         3         4        14     1      120.618835      383.185156    ;  uncertainty theta = 0.005289, k = 0.146635
         4         3        11     1      127.536293      569.890346    ;  uncertainty theta = 0.003243, k = 0.191847
         4         3        27     1      121.144821      254.734549    ;  uncertainty theta = 0.003125, k = 0.129260
         4         5         6     1      130.627151      356.495334    ;  uncertainty theta = 0.006420, k = 0.087523
         4         5         8     1      117.738571      429.303995    ;  uncertainty theta = 0.009939, k = 0.194997
         4        14        15     1      121.782211      422.017523    ;  uncertainty theta = 0.004875, k = 0.065559
         4        14        19     1      120.922653      405.593938    ;  uncertainty theta = 0.006837, k = 0.098822
         5         4        14     1      121.517014      375.674501    ;  uncertainty theta = 0.005574, k = 0.162459
         5         6         7     1      106.651588      790.063898    ;  uncertainty theta = 0.007324, k = 0.128778
         5         6        28     1      124.749977      251.322025    ;  uncertainty theta = 0.002184, k = 0.280041
         5         8        12     1      108.697922      611.648181    ;  uncertainty theta = 0.003811, k = 0.056814
         6         5         8     1      107.232010      700.961795    ;  uncertainty theta = 0.006623, k = 0.065020
         6         7        12     1      110.262352      731.065322    ;  uncertainty theta = 0.004583, k = 0.122419
         6         7        29     1      128.244171      234.340614    ;  uncertainty theta = 0.004055, k = 0.165172
         7         6        28     1      123.456604      249.893352    ;  uncertainty theta = 0.002217, k = 0.104075
         7        12         8     1      105.428810      867.029106    ;  uncertainty theta = 0.004825, k = 0.201301
         7        12        35     1      116.062500      278.192842    ;  uncertainty theta = 0.005254, k = 0.128297
         8         2        11     1      108.927567      381.239835    ;  uncertainty theta = 0.009182, k = 0.263470
         8         2        13     1      128.423340      502.753860    ;  uncertainty theta = 0.005192, k = 0.166878
         8        12        35     1      117.635910      284.830288    ;  uncertainty theta = 0.005410, k = 0.212295
         9         1        11     1      111.214745      648.105086    ;  uncertainty theta = 0.001035, k = 0.081828
         9         1        25     1      108.589890      405.592789    ;  uncertainty theta = 0.001918, k = 0.041998
         9         1        26     1      108.589890      405.592789    ;  uncertainty theta = 0.001918, k = 0.041998
         9        10        32     1      108.350731      407.048340    ;  uncertainty theta = 0.001414, k = 0.013198
         9        10        33     1      108.350731      407.048340    ;  uncertainty theta = 0.001414, k = 0.013198
         9        10        34     1      108.350731      407.048340    ;  uncertainty theta = 0.001414, k = 0.013198
        10         9        30     1      108.392677      413.697405    ;  uncertainty theta = 0.001645, k = 0.031632
        10         9        31     1      108.392677      413.697405    ;  uncertainty theta = 0.001645, k = 0.031632
        11         1        25     1      105.617226      438.879836    ;  uncertainty theta = 0.001316, k = 0.026653
        11         1        26     1      105.617226      438.879836    ;  uncertainty theta = 0.001316, k = 0.026653
        11         2        13     1      122.934471      686.861224    ;  uncertainty theta = 0.004879, k = 0.069609
        11         3        27     1      112.337967      299.032081    ;  uncertainty theta = 0.003244, k = 0.245287
        12         7        29     1      117.816879      298.852300    ;  uncertainty theta = 0.002755, k = 0.084542
        14        15        16     1      119.973778      530.809057    ;  uncertainty theta = 0.001929, k = 0.049030
        14        15        36     1      119.632278      280.706173    ;  uncertainty theta = 0.001643, k = 0.030018
        14        19        18     1      121.985985      516.837640    ;  uncertainty theta = 0.001466, k = 0.089984
        14        19        39     1      119.707138      280.555951    ;  uncertainty theta = 0.002407, k = 0.065120
        15        14        19     1      119.781410      411.623473    ;  uncertainty theta = 0.002855, k = 0.205677
        15        16        17     1      120.436646      510.385274    ;  uncertainty theta = 0.001517, k = 0.068547
        15        16        37     1      120.328796      285.162366    ;  uncertainty theta = 0.001614, k = 0.041580
        16        15        36     1      120.379723      293.583196    ;  uncertainty theta = 0.001513, k = 0.030875
        16        17        18     1      120.008949      514.218554    ;  uncertainty theta = 0.002544, k = 0.056425
        16        17        38     1      120.506577      287.142067    ;  uncertainty theta = 0.002171, k = 0.099837
        17        16        37     1      120.297501      283.473725    ;  uncertainty theta = 0.001407, k = 0.034077
        17        18        19     1      121.459000      452.260100    ;  uncertainty theta = 0.003682, k = 0.090201
        17        18        20     1      120.643578      334.713169    ;  uncertainty theta = 0.002603, k = 0.118740
        18        17        38     1      119.666092      269.175529    ;  uncertainty theta = 0.002464, k = 0.057039
        18        19        39     1      119.470741      271.577167    ;  uncertainty theta = 0.002815, k = 0.063533
        18        20        21     1      124.280190      514.030282    ;  uncertainty theta = 0.001496, k = 0.156591
        18        20        22     1      114.339493      404.421146    ;  uncertainty theta = 0.003057, k = 0.174133
        19        18        20     1      119.898987      345.006507    ;  uncertainty theta = 0.001635, k = 0.083836
        20        22        23     1      116.643967      378.862937    ;  uncertainty theta = 0.002631, k = 0.169423
        20        22        24     1      116.643967      378.862937    ;  uncertainty theta = 0.002631, k = 0.169423
        21        20        22     1      124.591232      716.301362    ;  uncertainty theta = 0.002800, k = 0.070107
        22        23        40     1      109.331192      483.112919    ;  uncertainty theta = 0.001012, k = 0.067158
        22        23        41     1      109.331192      483.112919    ;  uncertainty theta = 0.001012, k = 0.067158
        22        23        42     1      109.331192      483.112919    ;  uncertainty theta = 0.001012, k = 0.067158
        22        24        43     1      109.331192      483.112919    ;  uncertainty theta = 0.001012, k = 0.067158
        22        24        44     1      109.331192      483.112919    ;  uncertainty theta = 0.001012, k = 0.067158
        22        24        45     1      109.331192      483.112919    ;  uncertainty theta = 0.001012, k = 0.067158
        23        22        24     1      118.452927      438.779635    ;  uncertainty theta = 0.002033, k = 0.239116
        25         1        26     1      106.165550      317.373248    ;  uncertainty theta = 0.002916, k = 0.028424
        30         9        31     1      104.554031      314.718889    ;  uncertainty theta = 0.002069, k = 0.043171
        32        10        33     1      104.954895      316.164034    ;  uncertainty theta = 0.002053, k = 0.015557
        32        10        34     1      104.954895      316.164034    ;  uncertainty theta = 0.002053, k = 0.015557
        33        10        34     1      104.954895      316.164034    ;  uncertainty theta = 0.002053, k = 0.015557
        40        23        41     1      106.882004      326.924446    ;  uncertainty theta = 0.000868, k = 0.031272
        40        23        42     1      106.882004      326.924446    ;  uncertainty theta = 0.000868, k = 0.031272
        41        23        42     1      106.882004      326.924446    ;  uncertainty theta = 0.000868, k = 0.031272
        43        24        44     1      106.882004      326.924446    ;  uncertainty theta = 0.000868, k = 0.031272
        43        24        45     1      106.882004      326.924446    ;  uncertainty theta = 0.000868, k = 0.031272
        44        24        45     1      106.882004      326.924478    ;  uncertainty theta = 0.000868, k = 0.031272

[ dihedrals ] ; propers for gromacs 4.5 or higher, use funct 9
;       ai        aj        ak        al funct           phase               k        pn
         1         9        10        32     9        0.000000       -1.597904         1    ;  uncertainty k = 0.309369
         1         9        10        32     9      180.000000       -1.251305         2    ;  uncertainty k = 0.162212
         1         9        10        32     9        0.000000        1.296092         3    ;  uncertainty k = 0.133708
         1         9        10        32     9      180.000000       -0.331748         4    ;  uncertainty k = 0.044839
         1         9        10        33     9        0.000000       -1.597904         1    ;  uncertainty k = 0.309369
         1         9        10        33     9      180.000000       -1.251305         2    ;  uncertainty k = 0.162212
         1         9        10        33     9        0.000000        1.296092         3    ;  uncertainty k = 0.133708
         1         9        10        33     9      180.000000       -0.331748         4    ;  uncertainty k = 0.044839
         1         9        10        34     9        0.000000       -1.597904         1    ;  uncertainty k = 0.309369
         1         9        10        34     9      180.000000       -1.251305         2    ;  uncertainty k = 0.162212
         1         9        10        34     9        0.000000        1.296092         3    ;  uncertainty k = 0.133708
         1         9        10        34     9      180.000000       -0.331748         4    ;  uncertainty k = 0.044839
         1        11         2         8     9        0.000000        1.878328         1    ;  uncertainty k = 0.913167
         1        11         2         8     9      180.000000        8.318216         2    ;  uncertainty k = 0.307864
         1        11         2         8     9        0.000000        1.411075         3    ;  uncertainty k = 0.249579
         1        11         2         8     9      180.000000       -0.192937         4    ;  uncertainty k = 0.254440
         1        11         2        13     9        0.000000        1.759462         1    ;  uncertainty k = 0.883070
         1        11         2        13     9      180.000000       12.872232         2    ;  uncertainty k = 0.516875
         1        11         2        13     9        0.000000        0.874771         3    ;  uncertainty k = 0.237224
         1        11         2        13     9      180.000000       -0.056211         4    ;  uncertainty k = 0.336368
         1        11         3         4     9        0.000000        2.589042         1    ;  uncertainty k = 1.172362
         1        11         3         4     9      180.000000        8.590757         2    ;  uncertainty k = 0.809508
         1        11         3         4     9        0.000000        1.142949         3    ;  uncertainty k = 0.311177
         1        11         3         4     9      180.000000       -0.329569         4    ;  uncertainty k = 0.318959
         1        11         3        27     9        0.000000       -0.761822         1    ;  uncertainty k = 1.509189
         1        11         3        27     9      180.000000        3.987169         2    ;  uncertainty k = 0.872335
         1        11         3        27     9        0.000000        0.776170         3    ;  uncertainty k = 0.155039
         1        11         3        27     9      180.000000        0.072416         4    ;  uncertainty k = 0.164988
         2         8         5         4     9        0.000000        0.019508         1    ;  uncertainty k = 0.969681
         2         8         5         4     9      180.000000        8.033383         2    ;  uncertainty k = 0.674949
         2         8         5         4     9        0.000000        1.349629         3    ;  uncertainty k = 0.604764
         2         8         5         4     9      180.000000        0.923152         4    ;  uncertainty k = 0.283883
         2         8         5         6     9        0.000000        0.165486         1    ;  uncertainty k = 1.588702
         2         8         5         6     9      180.000000        8.063535         2    ;  uncertainty k = 0.420850
         2         8         5         6     9        0.000000        0.816849         3    ;  uncertainty k = 0.760866
         2         8         5         6     9      180.000000        1.124181         4    ;  uncertainty k = 0.373834
         2         8        12         7     9        0.000000        1.331712         1    ;  uncertainty k = 1.709931
         2         8        12         7     9      180.000000        4.324070         2    ;  uncertainty k = 0.941805
         2         8        12         7     9        0.000000        0.806073         3    ;  uncertainty k = 0.621622
         2         8        12         7     9      180.000000        0.385402         4    ;  uncertainty k = 0.209704
         2         8        12        35     9        0.000000        2.632579         1    ;  uncertainty k = 1.337123
         2         8        12        35     9      180.000000        1.297282         2    ;  uncertainty k = 0.889325
         2         8        12        35     9        0.000000        1.131821         3    ;  uncertainty k = 0.227239
         2         8        12        35     9      180.000000        0.131277         4    ;  uncertainty k = 0.123199
         2        11         1         9     9        0.000000        0.867199         1    ;  uncertainty k = 1.064913
         2        11         1         9     9      180.000000       -0.359781         2    ;  uncertainty k = 0.304801
         2        11         1         9     9        0.000000        0.789124         3    ;  uncertainty k = 0.342122
         2        11         1         9     9      180.000000        0.247226         4    ;  uncertainty k = 0.125418
         2        11         1        25     9        0.000000        0.374806         1    ;  uncertainty k = 0.232530
         2        11         1        25     9      180.000000        0.787861         2    ;  uncertainty k = 0.302088
         2        11         1        25     9        0.000000        0.527275         3    ;  uncertainty k = 0.051424
         2        11         1        25     9      180.000000        0.473986         4    ;  uncertainty k = 0.092136
         2        11         1        26     9        0.000000        0.374806         1    ;  uncertainty k = 0.232530
         2        11         1        26     9      180.000000        0.787861         2    ;  uncertainty k = 0.302088
         2        11         1        26     9        0.000000        0.527275         3    ;  uncertainty k = 0.051424
         2        11         1        26     9      180.000000        0.473986         4    ;  uncertainty k = 0.092136
         2        11         3         4     9        0.000000        0.917963         1    ;  uncertainty k = 1.208169
         2        11         3         4     9      180.000000        4.679717         2    ;  uncertainty k = 0.635454
         2        11         3         4     9        0.000000        1.046305         3    ;  uncertainty k = 0.211552
         2        11         3         4     9      180.000000        0.233754         4    ;  uncertainty k = 0.078081
         2        11         3        27     9        0.000000        1.256498         1    ;  uncertainty k = 0.987392
         2        11         3        27     9      180.000000        4.204459         2    ;  uncertainty k = 1.771122
         2        11         3        27     9        0.000000        0.714698         3    ;  uncertainty k = 0.380772
         2        11         3        27     9      180.000000        0.025033         4    ;  uncertainty k = 0.229031
         3         4         5         6     9        0.000000        0.233257         1    ;  uncertainty k = 0.972766
         3         4         5         6     9      180.000000        4.079668         2    ;  uncertainty k = 0.562876
         3         4         5         6     9        0.000000        0.697798         3    ;  uncertainty k = 0.302080
         3         4         5         6     9      180.000000        0.518296         4    ;  uncertainty k = 0.127609
         3         4         5         8     9        0.000000       -0.000019         1    ;  uncertainty k = 1.105618
         3         4         5         8     9      180.000000        6.650270         2    ;  uncertainty k = 0.716841
         3         4         5         8     9        0.000000       -0.723810         3    ;  uncertainty k = 0.325844
         3         4         5         8     9      180.000000        0.799132         4    ;  uncertainty k = 0.230782
         3         4        14        15     9        0.000000        0.401533         1    ;  uncertainty k = 0.575812
         3         4        14        15     9      180.000000        4.217848         2    ;  uncertainty k = 0.146430
         3         4        14        15     9        0.000000        0.484256         3    ;  uncertainty k = 0.107541
         3         4        14        15     9      180.000000        0.019168         4    ;  uncertainty k = 0.116200
         3         4        14        19     9        0.000000        0.432175         1    ;  uncertainty k = 0.606889
         3         4        14        19     9      180.000000        4.192624         2    ;  uncertainty k = 0.159319
         3         4        14        19     9        0.000000        0.540257         3    ;  uncertainty k = 0.159224
         3         4        14        19     9      180.000000        0.008065         4    ;  uncertainty k = 0.104795
         3        11         1         9     9        0.000000        0.173488         1    ;  uncertainty k = 0.549377
         3        11         1         9     9      180.000000        0.112340         2    ;  uncertainty k = 0.266531
         3        11         1         9     9        0.000000        0.266802         3    ;  uncertainty k = 0.188105
         3        11         1         9     9      180.000000        0.254336         4    ;  uncertainty k = 0.077864
         3        11         1        25     9        0.000000       -1.294278         1    ;  uncertainty k = 0.748832
         3        11         1        25     9      180.000000        0.341006         2    ;  uncertainty k = 0.241755
         3        11         1        25     9        0.000000        0.522872         3    ;  uncertainty k = 0.086379
         3        11         1        25     9      180.000000        0.246294         4    ;  uncertainty k = 0.083990
         3        11         1        26     9        0.000000       -1.294278         1    ;  uncertainty k = 0.748832
         3        11         1        26     9      180.000000        0.341006         2    ;  uncertainty k = 0.241755
         3        11         1        26     9        0.000000        0.522872         3    ;  uncertainty k = 0.086379
         3        11         1        26     9      180.000000        0.246294         4    ;  uncertainty k = 0.083990
         3        11         2         8     9        0.000000        1.086469         1    ;  uncertainty k = 0.214112
         3        11         2         8     9      180.000000        4.629438         2    ;  uncertainty k = 1.230887
         3        11         2         8     9        0.000000        1.508410         3    ;  uncertainty k = 0.277265
         3        11         2         8     9      180.000000        0.373038         4    ;  uncertainty k = 0.224726
         3        11         2        13     9        0.000000        2.612143         1    ;  uncertainty k = 1.480349
         3        11         2        13     9      180.000000       11.140074         2    ;  uncertainty k = 0.343113
         3        11         2        13     9        0.000000        1.272751         3    ;  uncertainty k = 0.237717
         3        11         2        13     9      180.000000       -0.057414         4    ;  uncertainty k = 0.120661
         4         5         6         7     9        0.000000        0.141921         1    ;  uncertainty k = 0.845199
         4         5         6         7     9      180.000000        8.611191         2    ;  uncertainty k = 0.768729
         4         5         6         7     9        0.000000       -0.056166         3    ;  uncertainty k = 1.066989
         4         5         6         7     9      180.000000        0.828476         4    ;  uncertainty k = 0.218536
         4         5         6        28     9        0.000000        0.479790         1    ;  uncertainty k = 1.596710
         4         5         6        28     9      180.000000        4.099107         2    ;  uncertainty k = 0.379443
         4         5         6        28     9        0.000000        2.007152         3    ;  uncertainty k = 0.096711
         4         5         6        28     9      180.000000        0.168442         4    ;  uncertainty k = 0.073395
         4         5         8        12     9        0.000000        0.525705         1    ;  uncertainty k = 0.454106
         4         5         8        12     9      180.000000       13.041264         2    ;  uncertainty k = 0.392349
         4         5         8        12     9        0.000000       -0.170698         3    ;  uncertainty k = 0.542867
         4         5         8        12     9      180.000000        1.190995         4    ;  uncertainty k = 0.375513
         4        14        15        16     9        0.000000        0.017424         1    ;  uncertainty k = 0.275333
         4        14        15        16     9      180.000000        9.046475         2    ;  uncertainty k = 0.534040
         4        14        15        16     9        0.000000        1.388412         3    ;  uncertainty k = 0.206012
         4        14        15        16     9      180.000000        1.815115         4    ;  uncertainty k = 0.106506
         4        14        15        36     9        0.000000       -0.238748         1    ;  uncertainty k = 0.371286
         4        14        15        36     9      180.000000        6.969140         2    ;  uncertainty k = 0.388423
         4        14        15        36     9        0.000000        0.770193         3    ;  uncertainty k = 0.250967
         4        14        15        36     9      180.000000        1.170283         4    ;  uncertainty k = 0.284862
         4        14        19        18     9        0.000000       -0.228705         1    ;  uncertainty k = 0.374382
         4        14        19        18     9      180.000000        8.651198         2    ;  uncertainty k = 0.756392
         4        14        19        18     9        0.000000        1.220018         3    ;  uncertainty k = 0.110492
         4        14        19        18     9      180.000000        1.803035         4    ;  uncertainty k = 0.108015
         4        14        19        39     9        0.000000       -0.109908         1    ;  uncertainty k = 0.509959
         4        14        19        39     9      180.000000        7.017327         2    ;  uncertainty k = 0.385135
         4        14        19        39     9        0.000000        0.766064         3    ;  uncertainty k = 0.298257
         4        14        19        39     9      180.000000        1.245896         4    ;  uncertainty k = 0.298335
         5         4         3        11     9        0.000000        0.195114         1    ;  uncertainty k = 0.985954
         5         4         3        11     9      180.000000       21.734502         2    ;  uncertainty k = 0.293551
         5         4         3        11     9        0.000000        0.499711         3    ;  uncertainty k = 0.459357
         5         4         3        11     9      180.000000        0.514252         4    ;  uncertainty k = 0.273758
         5         4         3        27     9        0.000000       -0.252144         1    ;  uncertainty k = 0.383865
         5         4         3        27     9      180.000000       13.832756         2    ;  uncertainty k = 0.430717
         5         4         3        27     9        0.000000        1.994068         3    ;  uncertainty k = 0.202190
         5         4         3        27     9      180.000000        1.219992         4    ;  uncertainty k = 0.350059
         5         4        14        15     9        0.000000       -0.067782         1    ;  uncertainty k = 0.534798
         5         4        14        15     9      180.000000        4.180239         2    ;  uncertainty k = 0.467888
         5         4        14        15     9        0.000000        0.782130         3    ;  uncertainty k = 0.379271
         5         4        14        15     9      180.000000        0.314217         4    ;  uncertainty k = 0.127597
         5         4        14        19     9        0.000000       -0.161566         1    ;  uncertainty k = 0.537481
         5         4        14        19     9      180.000000        4.147280         2    ;  uncertainty k = 0.466408
         5         4        14        19     9        0.000000        0.763755         3    ;  uncertainty k = 0.394131
         5         4        14        19     9      180.000000        0.241384         4    ;  uncertainty k = 0.112081
         5         6         7        12     9        0.000000       -0.197289         1    ;  uncertainty k = 0.478635
         5         6         7        12     9      180.000000       22.044293         2    ;  uncertainty k = 0.363719
         5         6         7        12     9        0.000000       -6.953686         3    ;  uncertainty k = 1.059115
         5         6         7        12     9      180.000000        1.333768         4    ;  uncertainty k = 0.365433
         5         6         7        29     9        0.000000        0.139745         1    ;  uncertainty k = 0.331291
         5         6         7        29     9      180.000000       12.569988         2    ;  uncertainty k = 0.260347
         5         6         7        29     9        0.000000        1.837739         3    ;  uncertainty k = 0.073566
         5         6         7        29     9      180.000000        0.853981         4    ;  uncertainty k = 0.157616
         5         8         2        11     9        0.000000       -1.650323         1    ;  uncertainty k = 1.061576
         5         8         2        11     9      180.000000        4.941342         2    ;  uncertainty k = 0.431901
         5         8         2        11     9        0.000000       -0.326195         3    ;  uncertainty k = 0.191904
         5         8         2        11     9      180.000000        0.222562         4    ;  uncertainty k = 0.164339
         5         8         2        13     9        0.000000       -1.789349         1    ;  uncertainty k = 1.622965
         5         8         2        13     9      180.000000        5.780633         2    ;  uncertainty k = 0.292856
         5         8         2        13     9        0.000000        0.368216         3    ;  uncertainty k = 0.373438
         5         8         2        13     9      180.000000       -0.038233         4    ;  uncertainty k = 0.157962
         5         8        12         7     9        0.000000        0.012753         1    ;  uncertainty k = 0.361537
         5         8        12         7     9      180.000000       14.727017         2    ;  uncertainty k = 0.881301
         5         8        12         7     9        0.000000       -9.807457         3    ;  uncertainty k = 1.240524
         5         8        12         7     9      180.000000        1.092118         4    ;  uncertainty k = 0.451678
         5         8        12        35     9        0.000000        3.954299         1    ;  uncertainty k = 3.147131
         5         8        12        35     9      180.000000        7.046072         2    ;  uncertainty k = 1.553622
         5         8        12        35     9        0.000000        1.124950         3    ;  uncertainty k = 0.377822
         5         8        12        35     9      180.000000        0.024611         4    ;  uncertainty k = 0.286588
         6         5         4        14     9        0.000000        0.030595         1    ;  uncertainty k = 0.881411
         6         5         4        14     9      180.000000        4.909027         2    ;  uncertainty k = 1.063523
         6         5         4        14     9        0.000000        1.449729         3    ;  uncertainty k = 0.166767
         6         5         4        14     9      180.000000        0.304568         4    ;  uncertainty k = 0.190053
         6         5         8        12     9        0.000000       -0.382667         1    ;  uncertainty k = 0.429642
         6         5         8        12     9      180.000000       14.643024         2    ;  uncertainty k = 0.640990
         6         5         8        12     9        0.000000       -3.648481         3    ;  uncertainty k = 1.019639
         6         5         8        12     9      180.000000        1.594371         4    ;  uncertainty k = 0.604175
         6         7        12         8     9        0.000000        0.151800         1    ;  uncertainty k = 0.400299
         6         7        12         8     9      180.000000       15.778520         2    ;  uncertainty k = 0.374093
         6         7        12         8     9        0.000000       -8.142196         3    ;  uncertainty k = 1.163524
         6         7        12         8     9      180.000000        1.119656         4    ;  uncertainty k = 0.569595
         6         7        12        35     9        0.000000        2.092522         1    ;  uncertainty k = 1.529021
         6         7        12        35     9      180.000000        9.621210         2    ;  uncertainty k = 0.659311
         6         7        12        35     9        0.000000        1.427239         3    ;  uncertainty k = 0.856825
         6         7        12        35     9      180.000000       -0.093919         4    ;  uncertainty k = 0.132475
         7         6         5         8     9        0.000000        0.176680         1    ;  uncertainty k = 0.547877
         7         6         5         8     9      180.000000       12.426935         2    ;  uncertainty k = 0.896413
         7         6         5         8     9        0.000000      -12.009165         3    ;  uncertainty k = 2.136179
         7         6         5         8     9      180.000000        1.927588         4    ;  uncertainty k = 0.733785
         8         5         4        14     9        0.000000       -0.283179         1    ;  uncertainty k = 0.793439
         8         5         4        14     9      180.000000        7.177359         2    ;  uncertainty k = 0.749881
         8         5         4        14     9        0.000000        0.982144         3    ;  uncertainty k = 0.560680
         8         5         4        14     9      180.000000        0.534521         4    ;  uncertainty k = 0.188720
         8         5         6        28     9        0.000000        0.207560         1    ;  uncertainty k = 0.753737
         8         5         6        28     9      180.000000        8.338949         2    ;  uncertainty k = 0.797502
         8         5         6        28     9        0.000000        1.398437         3    ;  uncertainty k = 0.625080
         8         5         6        28     9      180.000000        0.386689         4    ;  uncertainty k = 0.232514
         8        12         7        29     9        0.000000        0.690562         1    ;  uncertainty k = 0.487992
         8        12         7        29     9      180.000000        7.780803         2    ;  uncertainty k = 0.778369
         8        12         7        29     9        0.000000        1.623171         3    ;  uncertainty k = 0.365576
         8        12         7        29     9      180.000000        0.139900         4    ;  uncertainty k = 0.293699
        10         9         1        11     9        0.000000       -2.966259         1    ;  uncertainty k = 1.071356
        10         9         1        11     9      180.000000       -0.885666         2    ;  uncertainty k = 0.376256
        10         9         1        11     9        0.000000        1.611853         3    ;  uncertainty k = 0.188688
        10         9         1        11     9      180.000000       -0.374806         4    ;  uncertainty k = 0.168685
        10         9         1        25     9        0.000000       -2.518329         1    ;  uncertainty k = 0.632091
        10         9         1        25     9      180.000000        0.245504         2    ;  uncertainty k = 0.266670
        10         9         1        25     9        0.000000        0.885443         3    ;  uncertainty k = 0.052866
        10         9         1        25     9      180.000000       -0.335387         4    ;  uncertainty k = 0.080494
        10         9         1        26     9        0.000000       -2.518329         1    ;  uncertainty k = 0.632091
        10         9         1        26     9      180.000000        0.245504         2    ;  uncertainty k = 0.266670
        10         9         1        26     9        0.000000        0.885443         3    ;  uncertainty k = 0.052866
        10         9         1        26     9      180.000000       -0.335387         4    ;  uncertainty k = 0.080494
        11         1         9        30     9        0.000000        1.572791         1    ;  uncertainty k = 0.146631
        11         1         9        30     9      180.000000       -2.477379         2    ;  uncertainty k = 0.221203
        11         1         9        30     9        0.000000        1.161931         3    ;  uncertainty k = 0.153398
        11         1         9        30     9      180.000000       -0.012707         4    ;  uncertainty k = 0.103192
        11         1         9        31     9        0.000000        1.572791         1    ;  uncertainty k = 0.146631
        11         1         9        31     9      180.000000       -2.477379         2    ;  uncertainty k = 0.221203
        11         1         9        31     9        0.000000        1.161931         3    ;  uncertainty k = 0.153398
        11         1         9        31     9      180.000000       -0.012707         4    ;  uncertainty k = 0.103192
        11         2         8        12     9        0.000000       -1.023100         1    ;  uncertainty k = 1.137958
        11         2         8        12     9      180.000000        5.332095         2    ;  uncertainty k = 0.603468
        11         2         8        12     9        0.000000        0.465443         3    ;  uncertainty k = 0.369125
        11         2         8        12     9      180.000000        0.199879         4    ;  uncertainty k = 0.105870
        11         3         4        14     9        0.000000        0.400406         1    ;  uncertainty k = 0.173969
        11         3         4        14     9      180.000000       18.972843         2    ;  uncertainty k = 0.271902
        11         3         4        14     9        0.000000        1.725653         3    ;  uncertainty k = 0.351251
        11         3         4        14     9      180.000000        0.918352         4    ;  uncertainty k = 0.222663
        12         7         6        28     9        0.000000        0.634303         1    ;  uncertainty k = 0.872568
        12         7         6        28     9      180.000000       14.905436         2    ;  uncertainty k = 0.201771
        12         7         6        28     9        0.000000        1.670616         3    ;  uncertainty k = 0.572134
        12         7         6        28     9      180.000000        0.792564         4    ;  uncertainty k = 0.242450
        12         8         2        13     9        0.000000       -1.141133         1    ;  uncertainty k = 0.488666
        12         8         2        13     9      180.000000        8.101214         2    ;  uncertainty k = 0.316712
        12         8         2        13     9        0.000000        0.980469         3    ;  uncertainty k = 0.338444
        12         8         2        13     9      180.000000       -0.162130         4    ;  uncertainty k = 0.178915
        14         4         3        27     9        0.000000       -0.222486         1    ;  uncertainty k = 0.295182
        14         4         3        27     9      180.000000       11.226204         2    ;  uncertainty k = 0.326580
        14         4         3        27     9        0.000000        1.632286         3    ;  uncertainty k = 0.247678
        14         4         3        27     9      180.000000        1.204754         4    ;  uncertainty k = 0.234801
        14        15        16        17     9        0.000000       -0.016778         1    ;  uncertainty k = 0.157516
        14        15        16        17     9      180.000000       14.362919         2    ;  uncertainty k = 0.249327
        14        15        16        17     9        0.000000       -0.975734         3    ;  uncertainty k = 0.442679
        14        15        16        17     9      180.000000        0.625325         4    ;  uncertainty k = 0.298182
        14        15        16        37     9        0.000000        0.082725         1    ;  uncertainty k = 0.097329
        14        15        16        37     9      180.000000        7.489628         2    ;  uncertainty k = 0.381507
        14        15        16        37     9        0.000000        1.347358         3    ;  uncertainty k = 0.199340
        14        15        16        37     9      180.000000        1.858447         4    ;  uncertainty k = 0.111468
        14        19        18        17     9        0.000000       -0.072166         1    ;  uncertainty k = 0.178403
        14        19        18        17     9      180.000000       11.027429         2    ;  uncertainty k = 0.338217
        14        19        18        17     9        0.000000       -0.369808         3    ;  uncertainty k = 0.353667
        14        19        18        17     9      180.000000        1.050329         4    ;  uncertainty k = 0.301143
        14        19        18        20     9        0.000000        0.520511         1    ;  uncertainty k = 0.386810
        14        19        18        20     9      180.000000        8.875589         2    ;  uncertainty k = 0.681888
        14        19        18        20     9        0.000000        1.357619         3    ;  uncertainty k = 0.358075
        14        19        18        20     9      180.000000        1.903831         4    ;  uncertainty k = 0.213554
        15        14        19        18     9        0.000000       -0.046463         1    ;  uncertainty k = 0.174426
        15        14        19        18     9      180.000000       10.278481         2    ;  uncertainty k = 0.413139
        15        14        19        18     9        0.000000        0.091376         3    ;  uncertainty k = 0.173053
        15        14        19        18     9      180.000000        1.149832         4    ;  uncertainty k = 0.284651
        15        14        19        39     9        0.000000        0.248797         1    ;  uncertainty k = 0.170875
        15        14        19        39     9      180.000000        7.043224         2    ;  uncertainty k = 0.518278
        15        14        19        39     9        0.000000        1.371996         3    ;  uncertainty k = 0.165738
        15        14        19        39     9      180.000000        1.673694         4    ;  uncertainty k = 0.230696
        15        16        17        18     9        0.000000       -0.093234         1    ;  uncertainty k = 0.097950
        15        16        17        18     9      180.000000       13.390705         2    ;  uncertainty k = 0.307059
        15        16        17        18     9        0.000000       -0.739716         3    ;  uncertainty k = 0.320703
        15        16        17        18     9      180.000000        0.811743         4    ;  uncertainty k = 0.232578
        15        16        17        38     9        0.000000        0.057993         1    ;  uncertainty k = 0.057569
        15        16        17        38     9      180.000000        7.318128         2    ;  uncertainty k = 0.245544
        15        16        17        38     9        0.000000        1.404792         3    ;  uncertainty k = 0.254042
        15        16        17        38     9      180.000000        1.819091         4    ;  uncertainty k = 0.160821
        16        15        14        19     9        0.000000       -0.143565         1    ;  uncertainty k = 0.099272
        16        15        14        19     9      180.000000       11.076153         2    ;  uncertainty k = 0.263541
        16        15        14        19     9        0.000000       -0.424267         3    ;  uncertainty k = 0.358173
        16        15        14        19     9      180.000000        0.923773         4    ;  uncertainty k = 0.276446
        16        17        18        19     9        0.000000       -0.165928         1    ;  uncertainty k = 0.159629
        16        17        18        19     9      180.000000       11.359284         2    ;  uncertainty k = 0.371522
        16        17        18        19     9        0.000000       -0.713984         3    ;  uncertainty k = 0.246564
        16        17        18        19     9      180.000000        0.946760         4    ;  uncertainty k = 0.247033
        16        17        18        20     9        0.000000        0.463758         1    ;  uncertainty k = 0.393175
        16        17        18        20     9      180.000000        9.269003         2    ;  uncertainty k = 0.639201
        16        17        18        20     9        0.000000        1.401593         3    ;  uncertainty k = 0.482327
        16        17        18        20     9      180.000000        1.898428         4    ;  uncertainty k = 0.250701
        17        16        15        36     9        0.000000        0.079519         1    ;  uncertainty k = 0.053875
        17        16        15        36     9      180.000000        7.615698         2    ;  uncertainty k = 0.277816
        17        16        15        36     9        0.000000        1.436252         3    ;  uncertainty k = 0.226404
        17        16        15        36     9      180.000000        1.816135         4    ;  uncertainty k = 0.124827
        17        18        19        39     9        0.000000        0.376072         1    ;  uncertainty k = 0.177967
        17        18        19        39     9      180.000000        7.602450         2    ;  uncertainty k = 0.460929
        17        18        19        39     9        0.000000        1.221006         3    ;  uncertainty k = 0.269253
        17        18        19        39     9      180.000000        1.737040         4    ;  uncertainty k = 0.197164
        17        18        20        21     9        0.000000       -1.664540         1    ;  uncertainty k = 0.695809
        17        18        20        21     9      180.000000        3.053791         2    ;  uncertainty k = 0.171336
        17        18        20        21     9        0.000000        0.230329         3    ;  uncertainty k = 0.045202
        17        18        20        21     9      180.000000        0.197527         4    ;  uncertainty k = 0.084772
        17        18        20        22     9        0.000000        1.027553         1    ;  uncertainty k = 0.376161
        17        18        20        22     9      180.000000        4.553042         2    ;  uncertainty k = 0.240746
        17        18        20        22     9        0.000000        0.383664         3    ;  uncertainty k = 0.131322
        17        18        20        22     9      180.000000        0.226257         4    ;  uncertainty k = 0.049418
        18        17        16        37     9        0.000000       -0.062970         1    ;  uncertainty k = 0.239653
        18        17        16        37     9      180.000000        7.804315         2    ;  uncertainty k = 0.299952
        18        17        16        37     9        0.000000        1.327721         3    ;  uncertainty k = 0.183218
        18        17        16        37     9      180.000000        1.797879         4    ;  uncertainty k = 0.215045
        18        20        22        23     9        0.000000        6.282721         1    ;  uncertainty k = 0.802001
        18        20        22        23     9      180.000000        6.340805         2    ;  uncertainty k = 0.348045
        18        20        22        23     9        0.000000        0.332740         3    ;  uncertainty k = 0.444048
        18        20        22        23     9      180.000000       -0.006011         4    ;  uncertainty k = 0.162784
        18        20        22        24     9        0.000000        6.282721         1    ;  uncertainty k = 0.802001
        18        20        22        24     9      180.000000        6.340805         2    ;  uncertainty k = 0.348045
        18        20        22        24     9        0.000000        0.332740         3    ;  uncertainty k = 0.444048
        18        20        22        24     9      180.000000       -0.006011         4    ;  uncertainty k = 0.162784
        19        14        15        36     9        0.000000        0.218226         1    ;  uncertainty k = 0.160901
        19        14        15        36     9      180.000000        6.967576         2    ;  uncertainty k = 0.503838
        19        14        15        36     9        0.000000        1.425972         3    ;  uncertainty k = 0.213688
        19        14        15        36     9      180.000000        1.653836         4    ;  uncertainty k = 0.253590
        19        18        17        38     9        0.000000        0.353385         1    ;  uncertainty k = 0.241728
        19        18        17        38     9      180.000000        7.374722         2    ;  uncertainty k = 0.435938
        19        18        17        38     9        0.000000        1.257826         3    ;  uncertainty k = 0.288453
        19        18        17        38     9      180.000000        1.725721         4    ;  uncertainty k = 0.238966
        19        18        20        21     9        0.000000       -1.711716         1    ;  uncertainty k = 0.826305
        19        18        20        21     9      180.000000        3.021444         2    ;  uncertainty k = 0.200926
        19        18        20        21     9        0.000000        0.274051         3    ;  uncertainty k = 0.086847
        19        18        20        21     9      180.000000        0.229275         4    ;  uncertainty k = 0.081454
        19        18        20        22     9        0.000000        1.058736         1    ;  uncertainty k = 0.448382
        19        18        20        22     9      180.000000        4.609976         2    ;  uncertainty k = 0.246990
        19        18        20        22     9        0.000000        0.345593         3    ;  uncertainty k = 0.125993
        19        18        20        22     9      180.000000        0.231168         4    ;  uncertainty k = 0.078300
        20        18        17        38     9        0.000000       -0.018501         1    ;  uncertainty k = 0.286704
        20        18        17        38     9      180.000000        8.166475         2    ;  uncertainty k = 0.362619
        20        18        17        38     9        0.000000        0.913777         3    ;  uncertainty k = 0.160624
        20        18        17        38     9      180.000000        1.192128         4    ;  uncertainty k = 0.225004
        20        18        19        39     9        0.000000        0.094404         1    ;  uncertainty k = 0.354636
        20        18        19        39     9      180.000000        8.346280         2    ;  uncertainty k = 0.353875
        20        18        19        39     9        0.000000        0.942527         3    ;  uncertainty k = 0.177744
        20        18        19        39     9      180.000000        1.265248         4    ;  uncertainty k = 0.210858
        20        22        23        40     9        0.000000        0.072682         1    ;  uncertainty k = 0.169749
        20        22        23        40     9      180.000000       -0.211072         2    ;  uncertainty k = 0.157871
        20        22        23        40     9        0.000000        0.353046         3    ;  uncertainty k = 0.068584
        20        22        23        40     9      180.000000        0.290209         4    ;  uncertainty k = 0.036498
        20        22        23        41     9        0.000000        0.072682         1    ;  uncertainty k = 0.169749
        20        22        23        41     9      180.000000       -0.211072         2    ;  uncertainty k = 0.157871
        20        22        23        41     9        0.000000        0.353046         3    ;  uncertainty k = 0.068584
        20        22        23        41     9      180.000000        0.290209         4    ;  uncertainty k = 0.036498
        20        22        23        42     9        0.000000        0.072682         1    ;  uncertainty k = 0.169749
        20        22        23        42     9      180.000000       -0.211072         2    ;  uncertainty k = 0.157871
        20        22        23        42     9        0.000000        0.353046         3    ;  uncertainty k = 0.068584
        20        22        23        42     9      180.000000        0.290209         4    ;  uncertainty k = 0.036498
        20        22        24        43     9        0.000000        0.072682         1    ;  uncertainty k = 0.169749
        20        22        24        43     9      180.000000       -0.211072         2    ;  uncertainty k = 0.157871
        20        22        24        43     9        0.000000        0.353046         3    ;  uncertainty k = 0.068584
        20        22        24        43     9      180.000000        0.290209         4    ;  uncertainty k = 0.036498
        20        22        24        44     9        0.000000        0.072682         1    ;  uncertainty k = 0.169749
        20        22        24        44     9      180.000000       -0.211072         2    ;  uncertainty k = 0.157871
        20        22        24        44     9        0.000000        0.353046         3    ;  uncertainty k = 0.068584
        20        22        24        44     9      180.000000        0.290209         4    ;  uncertainty k = 0.036498
        20        22        24        45     9        0.000000        0.072682         1    ;  uncertainty k = 0.169749
        20        22        24        45     9      180.000000       -0.211072         2    ;  uncertainty k = 0.157871
        20        22        24        45     9        0.000000        0.353046         3    ;  uncertainty k = 0.068584
        20        22        24        45     9      180.000000        0.290209         4    ;  uncertainty k = 0.036498
        21        20        22        23     9        0.000000        4.553609         1    ;  uncertainty k = 1.061986
        21        20        22        23     9      180.000000       14.829660         2    ;  uncertainty k = 0.163869
        21        20        22        23     9        0.000000        0.403201         3    ;  uncertainty k = 0.315054
        21        20        22        23     9      180.000000       -0.277135         4    ;  uncertainty k = 0.228506
        21        20        22        24     9        0.000000        4.553609         1    ;  uncertainty k = 1.061986
        21        20        22        24     9      180.000000       14.829660         2    ;  uncertainty k = 0.163869
        21        20        22        24     9        0.000000        0.403201         3    ;  uncertainty k = 0.315054
        21        20        22        24     9      180.000000       -0.277135         4    ;  uncertainty k = 0.228506
        23        22        24        43     9        0.000000       -0.705221         1    ;  uncertainty k = 0.364394
        23        22        24        43     9      180.000000       -1.189189         2    ;  uncertainty k = 0.226350
        23        22        24        43     9        0.000000        1.357956         3    ;  uncertainty k = 0.055767
        23        22        24        43     9      180.000000        0.153889         4    ;  uncertainty k = 0.040275
        23        22        24        44     9        0.000000       -0.705221         1    ;  uncertainty k = 0.364394
        23        22        24        44     9      180.000000       -1.189189         2    ;  uncertainty k = 0.226350
        23        22        24        44     9        0.000000        1.357956         3    ;  uncertainty k = 0.055767
        23        22        24        44     9      180.000000        0.153889         4    ;  uncertainty k = 0.040275
        23        22        24        45     9        0.000000       -0.705221         1    ;  uncertainty k = 0.364394
        23        22        24        45     9      180.000000       -1.189189         2    ;  uncertainty k = 0.226350
        23        22        24        45     9        0.000000        1.357956         3    ;  uncertainty k = 0.055767
        23        22        24        45     9      180.000000        0.153889         4    ;  uncertainty k = 0.040275
        24        22        23        40     9        0.000000       -0.705221         1    ;  uncertainty k = 0.364394
        24        22        23        40     9      180.000000       -1.189189         2    ;  uncertainty k = 0.226350
        24        22        23        40     9        0.000000        1.357956         3    ;  uncertainty k = 0.055767
        24        22        23        40     9      180.000000        0.153889         4    ;  uncertainty k = 0.040275
        24        22        23        41     9        0.000000       -0.705221         1    ;  uncertainty k = 0.364394
        24        22        23        41     9      180.000000       -1.189189         2    ;  uncertainty k = 0.226350
        24        22        23        41     9        0.000000        1.357956         3    ;  uncertainty k = 0.055767
        24        22        23        41     9      180.000000        0.153889         4    ;  uncertainty k = 0.040275
        24        22        23        42     9        0.000000       -0.705221         1    ;  uncertainty k = 0.364394
        24        22        23        42     9      180.000000       -1.189189         2    ;  uncertainty k = 0.226350
        24        22        23        42     9        0.000000        1.357956         3    ;  uncertainty k = 0.055767
        24        22        23        42     9      180.000000        0.153889         4    ;  uncertainty k = 0.040275
        25         1         9        30     9        0.000000        0.649543         1    ;  uncertainty k = 0.221574
        25         1         9        30     9      180.000000       -0.391882         2    ;  uncertainty k = 0.134773
        25         1         9        30     9        0.000000        0.173052         3    ;  uncertainty k = 0.054138
        25         1         9        30     9      180.000000       -0.001207         4    ;  uncertainty k = 0.038463
        25         1         9        31     9        0.000000        0.649543         1    ;  uncertainty k = 0.221574
        25         1         9        31     9      180.000000       -0.391882         2    ;  uncertainty k = 0.134773
        25         1         9        31     9        0.000000        0.173052         3    ;  uncertainty k = 0.054138
        25         1         9        31     9      180.000000       -0.001207         4    ;  uncertainty k = 0.038463
        26         1         9        30     9        0.000000        0.649543         1    ;  uncertainty k = 0.221574
        26         1         9        30     9      180.000000       -0.391882         2    ;  uncertainty k = 0.134773
        26         1         9        30     9        0.000000        0.173052         3    ;  uncertainty k = 0.054138
        26         1         9        30     9      180.000000       -0.001207         4    ;  uncertainty k = 0.038463
        26         1         9        31     9        0.000000        0.649543         1    ;  uncertainty k = 0.221574
        26         1         9        31     9      180.000000       -0.391882         2    ;  uncertainty k = 0.134773
        26         1         9        31     9        0.000000        0.173052         3    ;  uncertainty k = 0.054138
        26         1         9        31     9      180.000000       -0.001207         4    ;  uncertainty k = 0.038463
        28         6         7        29     9        0.000000       -0.037735         1    ;  uncertainty k = 0.492713
        28         6         7        29     9      180.000000        5.853962         2    ;  uncertainty k = 0.726773
        28         6         7        29     9        0.000000        1.193179         3    ;  uncertainty k = 0.391011
        28         6         7        29     9      180.000000        0.332928         4    ;  uncertainty k = 0.074316
        29         7        12        35     9        0.000000       -0.321083         1    ;  uncertainty k = 1.032454
        29         7        12        35     9      180.000000        1.939239         2    ;  uncertainty k = 0.369095
        29         7        12        35     9        0.000000        1.097248         3    ;  uncertainty k = 0.356460
        29         7        12        35     9      180.000000        0.095305         4    ;  uncertainty k = 0.136884
        30         9        10        32     9        0.000000        0.848712         1    ;  uncertainty k = 0.331105
        30         9        10        32     9      180.000000       -0.676190         2    ;  uncertainty k = 0.174808
        30         9        10        32     9        0.000000        0.581404         3    ;  uncertainty k = 0.017222
        30         9        10        32     9      180.000000       -0.030978         4    ;  uncertainty k = 0.047419
        30         9        10        33     9        0.000000        0.848712         1    ;  uncertainty k = 0.331105
        30         9        10        33     9      180.000000       -0.676190         2    ;  uncertainty k = 0.174808
        30         9        10        33     9        0.000000        0.581404         3    ;  uncertainty k = 0.017222
        30         9        10        33     9      180.000000       -0.030978         4    ;  uncertainty k = 0.047419
        30         9        10        34     9        0.000000        0.848712         1    ;  uncertainty k = 0.331105
        30         9        10        34     9      180.000000       -0.676190         2    ;  uncertainty k = 0.174808
        30         9        10        34     9        0.000000        0.581404         3    ;  uncertainty k = 0.017222
        30         9        10        34     9      180.000000       -0.030978         4    ;  uncertainty k = 0.047419
        31         9        10        32     9        0.000000        0.848712         1    ;  uncertainty k = 0.331105
        31         9        10        32     9      180.000000       -0.676190         2    ;  uncertainty k = 0.174808
        31         9        10        32     9        0.000000        0.581404         3    ;  uncertainty k = 0.017222
        31         9        10        32     9      180.000000       -0.030978         4    ;  uncertainty k = 0.047419
        31         9        10        33     9        0.000000        0.848712         1    ;  uncertainty k = 0.331105
        31         9        10        33     9      180.000000       -0.676190         2    ;  uncertainty k = 0.174808
        31         9        10        33     9        0.000000        0.581404         3    ;  uncertainty k = 0.017222
        31         9        10        33     9      180.000000       -0.030978         4    ;  uncertainty k = 0.047419
        31         9        10        34     9        0.000000        0.848712         1    ;  uncertainty k = 0.331105
        31         9        10        34     9      180.000000       -0.676190         2    ;  uncertainty k = 0.174808
        31         9        10        34     9        0.000000        0.581404         3    ;  uncertainty k = 0.017222
        31         9        10        34     9      180.000000       -0.030978         4    ;  uncertainty k = 0.047419
        36        15        16        37     9        0.000000       -0.166562         1    ;  uncertainty k = 0.119843
        36        15        16        37     9      180.000000        7.933616         2    ;  uncertainty k = 0.280848
        36        15        16        37     9        0.000000       -0.483141         3    ;  uncertainty k = 0.260612
        36        15        16        37     9      180.000000        0.115647         4    ;  uncertainty k = 0.142176
        37        16        17        38     9        0.000000       -0.172915         1    ;  uncertainty k = 0.282059
        37        16        17        38     9      180.000000        7.808711         2    ;  uncertainty k = 0.367899
        37        16        17        38     9        0.000000       -0.388379         3    ;  uncertainty k = 0.220535
        37        16        17        38     9      180.000000        0.134717         4    ;  uncertainty k = 0.122160

[ dihedrals ] ; impropers
;       ai        aj        ak        al funct           phase               k        pn
         2         8        11        13     4      180.000000       45.195528         2    ;  uncertainty k = 0.043907
         2        11        13         8     4      180.000000       45.195528         2    ;  uncertainty k = 0.043907
         2        13         8        11     4      180.000000       45.195528         2    ;  uncertainty k = 0.043907
         3         4        11        27     4      180.000000        6.559612         2    ;  uncertainty k = 0.310294
         3        11        27         4     4      180.000000        6.559612         2    ;  uncertainty k = 0.310294
         3        27         4        11     4      180.000000        6.559612         2    ;  uncertainty k = 0.310294
         4         3         5        14     4      180.000000        8.844651         2    ;  uncertainty k = 0.211094
         4         5        14         3     4      180.000000        8.844651         2    ;  uncertainty k = 0.211094
         4        14         3         5     4      180.000000        8.844651         2    ;  uncertainty k = 0.211094
         5         4         6         8     4      180.000000        1.675382         2    ;  uncertainty k = 0.932715
         5         6         8         4     4      180.000000        1.675382         2    ;  uncertainty k = 0.932715
         5         8         4         6     4      180.000000        1.675382         2    ;  uncertainty k = 0.932715
         7         6        12        29     4      180.000000        1.479202         2    ;  uncertainty k = 0.580043
         7        12        29         6     4      180.000000        1.479202         2    ;  uncertainty k = 0.580043
         7        29         6        12     4      180.000000        1.479202         2    ;  uncertainty k = 0.580043
         8         2         5        12     4      180.000000        0.156920         2    ;  uncertainty k = 0.350885
         8         5        12         2     4      180.000000        0.156920         2    ;  uncertainty k = 0.350885
         8        12         2         5     4      180.000000        0.156920         2    ;  uncertainty k = 0.350885
        11         1         2         3     4      180.000000        2.216541         2    ;  uncertainty k = 0.568059
        11         2         3         1     4      180.000000        2.216541         2    ;  uncertainty k = 0.568059
        11         3         1         2     4      180.000000        2.216541         2    ;  uncertainty k = 0.568059
        14         4        15        19     4      180.000000       15.080325         2    ;  uncertainty k = 0.031430
        14        15        19         4     4      180.000000       15.080325         2    ;  uncertainty k = 0.031430
        14        19         4        15     4      180.000000       15.080325         2    ;  uncertainty k = 0.031430
        15        14        16        36     4      180.000000        4.110861         2    ;  uncertainty k = 0.132903
        15        16        36        14     4      180.000000        4.110861         2    ;  uncertainty k = 0.132903
        15        36        14        16     4      180.000000        4.110861         2    ;  uncertainty k = 0.132903
        16        15        17        37     4      180.000000        3.712223         2    ;  uncertainty k = 0.086897
        16        17        37        15     4      180.000000        3.712223         2    ;  uncertainty k = 0.086897
        16        37        15        17     4      180.000000        3.712223         2    ;  uncertainty k = 0.086897
        17        16        18        38     4      180.000000        4.150328         2    ;  uncertainty k = 0.141673
        17        18        38        16     4      180.000000        4.150328         2    ;  uncertainty k = 0.141673
        17        38        16        18     4      180.000000        4.150328         2    ;  uncertainty k = 0.141673
        18        17        19        20     4      180.000000        9.566044         2    ;  uncertainty k = 0.195607
        18        19        20        17     4      180.000000        9.566044         2    ;  uncertainty k = 0.195607
        18        20        17        19     4      180.000000        9.566044         2    ;  uncertainty k = 0.195607
        19        14        18        39     4      180.000000        4.319218         2    ;  uncertainty k = 0.182278
        19        18        39        14     4      180.000000        4.319218         2    ;  uncertainty k = 0.182278
        19        39        14        18     4      180.000000        4.319218         2    ;  uncertainty k = 0.182278
        20        18        21        22     4      180.000000       50.810772         2    ;  uncertainty k = 0.036615
        20        21        22        18     4      180.000000       50.810772         2    ;  uncertainty k = 0.036615
        20        22        18        21     4      180.000000       50.810772         2    ;  uncertainty k = 0.036615

[ pairs ]
;       ai        aj funct
         1         4     1
         1         8     1
         1        13     1
         1        27     1
         1        32     1
         1        33     1
         1        34     1
         2         4     1
         2         6     1
         2         7     1
         2         9     1
         2        25     1
         2        26     1
         2        27     1
         2        35     1
         3         6     1
         3         8     1
         3         9     1
         3        13     1
         3        15     1
         3        19     1
         3        25     1
         3        26     1
         4         7     1
         4        12     1
         4        16     1
         4        18     1
         4        28     1
         4        36     1
         4        39     1
         5        11     1
         5        13     1
         5        15     1
         5        19     1
         5        27     1
         5        29     1
         5        35     1
         6        14     1
         6        35     1
         8        14     1
         8        28     1
         8        29     1
        10        11     1
        10        25     1
        10        26     1
        11        12     1
        11        14     1
        11        30     1
        11        31     1
        12        13     1
        12        28     1
        14        17     1
        14        20     1
        14        27     1
        14        37     1
        15        18     1
        15        38     1
        15        39     1
        16        19     1
        16        20     1
        17        21     1
        17        22     1
        17        36     1
        17        39     1
        18        23     1
        18        24     1
        18        37     1
        19        21     1
        19        22     1
        19        36     1
        19        38     1
        20        38     1
        20        39     1
        20        40     1
        20        41     1
        20        42     1
        20        43     1
        20        44     1
        20        45     1
        21        23     1
        21        24     1
        23        43     1
        23        44     1
        23        45     1
        24        40     1
        24        41     1
        24        42     1
        25        30     1
        25        31     1
        26        30     1
        26        31     1
        28        29     1
        29        35     1
        30        32     1
        30        33     1
        30        34     1
        31        32     1
        31        33     1
        31        34     1
        36        37     1
        37        38     1
