; ITP file created by ByteFF-joint-25, 2025-07-14 11:38:54.986765

[ atomtypes ]
;name           bonded.type        at.num        mass        charge   ptype           sigma         epsilon
 c0bf                                   6      0.0000       0.00000       A     3.39759e-01     4.50429e-01    ;  uncertainty sigma = 0.000007, epsilon = 0.000835
 c1bf                                   6      0.0000       0.00000       A     3.31506e-01     4.13594e-01    ;  uncertainty sigma = 0.000017, epsilon = 0.000659
 c2bf                                   6      0.0000       0.00000       A     3.31522e-01     4.13558e-01    ;  uncertainty sigma = 0.000014, epsilon = 0.000445
 c3bf                                   6      0.0000       0.00000       A     3.31531e-01     4.12691e-01    ;  uncertainty sigma = 0.000016, epsilon = 0.001323
 c4bf                                   6      0.0000       0.00000       A     3.31516e-01     4.13608e-01    ;  uncertainty sigma = 0.000019, epsilon = 0.000900
 c5bf                                   6      0.0000       0.00000       A     3.31523e-01     4.13227e-01    ;  uncertainty sigma = 0.000004, epsilon = 0.000927
 c6bf                                   6      0.0000       0.00000       A     3.31516e-01     4.12685e-01    ;  uncertainty sigma = 0.000006, epsilon = 0.000577
 c7bf                                   6      0.0000       0.00000       A     3.31515e-01     4.13187e-01    ;  uncertainty sigma = 0.000025, epsilon = 0.000772
 c8bf                                   6      0.0000       0.00000       A     3.39815e-01     4.50648e-01    ;  uncertainty sigma = 0.000008, epsilon = 0.000423
 c9bf                                   6      0.0000       0.00000       A     3.39794e-01     4.51176e-01    ;  uncertainty sigma = 0.000006, epsilon = 0.000573
 o10bf                                  8      0.0000       0.00000       A     3.15601e-01     3.03798e-01    ;  uncertainty sigma = 0.000010, epsilon = 0.000976
 n11bf                                  7      0.0000       0.00000       A     3.18064e-01     6.83162e-01    ;  uncertainty sigma = 0.000025, epsilon = 0.001508
 n12bf                                  7      0.0000       0.00000       A     3.20586e-01     8.52568e-01    ;  uncertainty sigma = 0.000030, epsilon = 0.002354
 o13bf                                  8      0.0000       0.00000       A     3.04823e-01     6.12695e-01    ;  uncertainty sigma = 0.000008, epsilon = 0.001761
 c14bf                                  6      0.0000       0.00000       A     3.31517e-01     4.13251e-01    ;  uncertainty sigma = 0.000009, epsilon = 0.000668
 c15bf                                  6      0.0000       0.00000       A     3.31513e-01     4.13205e-01    ;  uncertainty sigma = 0.000005, epsilon = 0.000641
 c16bf                                  6      0.0000       0.00000       A     3.31517e-01     4.13384e-01    ;  uncertainty sigma = 0.000002, epsilon = 0.000567
 c17bf                                  6      0.0000       0.00000       A     3.31524e-01     4.13317e-01    ;  uncertainty sigma = 0.000004, epsilon = 0.000606
 c18bf                                  6      0.0000       0.00000       A     3.31519e-01     4.13635e-01    ;  uncertainty sigma = 0.000013, epsilon = 0.001168
 c19bf                                  6      0.0000       0.00000       A     3.31518e-01     4.13101e-01    ;  uncertainty sigma = 0.000004, epsilon = 0.000807
 c20bf                                  6      0.0000       0.00000       A     3.31513e-01     4.13292e-01    ;  uncertainty sigma = 0.000014, epsilon = 0.000898
 o21bf                                  8      0.0000       0.00000       A     3.04820e-01     6.12248e-01    ;  uncertainty sigma = 0.000024, epsilon = 0.001577
 n22bf                                  7      0.0000       0.00000       A     3.18094e-01     6.84128e-01    ;  uncertainty sigma = 0.000012, epsilon = 0.001060
 c23bf                                  6      0.0000       0.00000       A     3.39780e-01     4.50875e-01    ;  uncertainty sigma = 0.000005, epsilon = 0.000552
 c24bf                                  6      0.0000       0.00000       A     3.39780e-01     4.50875e-01    ;  uncertainty sigma = 0.000005, epsilon = 0.000552
 h25bf                                  1      0.0000       0.00000       A     2.42231e-01     8.68906e-02    ;  uncertainty sigma = 0.000046, epsilon = 0.000712
 h26bf                                  1      0.0000       0.00000       A     2.42231e-01     8.68906e-02    ;  uncertainty sigma = 0.000046, epsilon = 0.000712
 h27bf                                  1      0.0000       0.00000       A     2.53572e-01     6.68601e-02    ;  uncertainty sigma = 0.000061, epsilon = 0.001163
 h28bf                                  1      0.0000       0.00000       A     2.62541e-01     6.71315e-02    ;  uncertainty sigma = 0.000006, epsilon = 0.000396
 h29bf                                  1      0.0000       0.00000       A     2.53650e-01     6.69354e-02    ;  uncertainty sigma = 0.000022, epsilon = 0.000688
 h30bf                                  1      0.0000       0.00000       A     2.42224e-01     8.71078e-02    ;  uncertainty sigma = 0.000031, epsilon = 0.000410
 h31bf                                  1      0.0000       0.00000       A     2.42224e-01     8.71078e-02    ;  uncertainty sigma = 0.000031, epsilon = 0.000410
 h32bf                                  1      0.0000       0.00000       A     2.42186e-01     8.67159e-02    ;  uncertainty sigma = 0.000012, epsilon = 0.000513
 h33bf                                  1      0.0000       0.00000       A     2.42186e-01     8.67159e-02    ;  uncertainty sigma = 0.000012, epsilon = 0.000513
 h34bf                                  1      0.0000       0.00000       A     2.42186e-01     8.67159e-02    ;  uncertainty sigma = 0.000012, epsilon = 0.000513
 h35bf                                  1      0.0000       0.00000       A     1.10686e-01     4.09719e-02    ;  uncertainty sigma = 0.000062, epsilon = 0.000972
 h36bf                                  1      0.0000       0.00000       A     2.62563e-01     6.70403e-02    ;  uncertainty sigma = 0.000011, epsilon = 0.000526
 h37bf                                  1      0.0000       0.00000       A     2.62563e-01     6.70146e-02    ;  uncertainty sigma = 0.000010, epsilon = 0.000410
 h38bf                                  1      0.0000       0.00000       A     2.62550e-01     6.70182e-02    ;  uncertainty sigma = 0.000010, epsilon = 0.000665
 h39bf                                  1      0.0000       0.00000       A     2.62555e-01     6.72136e-02    ;  uncertainty sigma = 0.000019, epsilon = 0.000855
 h40bf                                  1      0.0000       0.00000       A     2.42196e-01     8.67627e-02    ;  uncertainty sigma = 0.000011, epsilon = 0.000510
 h41bf                                  1      0.0000       0.00000       A     2.42196e-01     8.67627e-02    ;  uncertainty sigma = 0.000011, epsilon = 0.000510
 h42bf                                  1      0.0000       0.00000       A     2.42196e-01     8.67627e-02    ;  uncertainty sigma = 0.000011, epsilon = 0.000510
 h43bf                                  1      0.0000       0.00000       A     2.42196e-01     8.67627e-02    ;  uncertainty sigma = 0.000011, epsilon = 0.000510
 h44bf                                  1      0.0000       0.00000       A     2.42196e-01     8.67625e-02    ;  uncertainty sigma = 0.000011, epsilon = 0.000510
 h45bf                                  1      0.0000       0.00000       A     2.42196e-01     8.67625e-02    ;  uncertainty sigma = 0.000011, epsilon = 0.000510

[ moleculetype ]
;name             nrexcl
 MOL                   3

[ atoms ]
;       nr            type      resi   res      atom      cgnr      charge          mass ; qtot
         1            c0bf         1   UNL        c0         1     0.07313       12.0110 ; qtot    0.073
         2            c1bf         1   UNL        c1         2     0.72916       12.0110 ; qtot    0.802
         3            c2bf         1   UNL        c2         3     0.00444       12.0110 ; qtot    0.807
         4            c3bf         1   UNL        c3         4    -0.06975       12.0110 ; qtot    0.737
         5            c4bf         1   UNL        c4         5    -0.03462       12.0110 ; qtot    0.702
         6            c5bf         1   UNL        c5         6    -0.19938       12.0110 ; qtot    0.503
         7            c6bf         1   UNL        c6         7    -0.11510       12.0110 ; qtot    0.388
         8            c7bf         1   UNL        c7         8    -0.20287       12.0110 ; qtot    0.185
         9            c8bf         1   UNL        c8         9     0.10844       12.0110 ; qtot    0.293
        10            c9bf         1   UNL        c9        10     0.11812       12.0110 ; qtot    0.412
        11           o10bf         1   UNL       o10        11    -0.41201       15.9990 ; qtot   -0.000
        12           n11bf         1   UNL       n11        12    -0.34761       14.0070 ; qtot   -0.348
        13           n12bf         1   UNL       n12        13    -0.13929       14.0070 ; qtot   -0.487
        14           o13bf         1   UNL       o13        14    -0.66240       15.9990 ; qtot   -1.150
        15           c14bf         1   UNL       c14        15    -0.02950       12.0110 ; qtot   -1.179
        16           c15bf         1   UNL       c15        16    -0.10611       12.0110 ; qtot   -1.285
        17           c16bf         1   UNL       c16        17    -0.13827       12.0110 ; qtot   -1.424
        18           c17bf         1   UNL       c17        18    -0.09053       12.0110 ; qtot   -1.514
        19           c18bf         1   UNL       c18        19    -0.14304       12.0110 ; qtot   -1.657
        20           c19bf         1   UNL       c19        20    -0.08800       12.0110 ; qtot   -1.745
        21           c20bf         1   UNL       c20        21     0.67807       12.0110 ; qtot   -1.067
        22           o21bf         1   UNL       o21        22    -0.59473       15.9990 ; qtot   -1.662
        23           n22bf         1   UNL       n22        23    -0.48247       14.0070 ; qtot   -2.144
        24           c23bf         1   UNL       c23        24     0.08268       12.0110 ; qtot   -2.062
        25           c24bf         1   UNL       c24        25     0.08268       12.0110 ; qtot   -1.979
        26           h25bf         1   UNL       h25        26     0.07439        1.0080 ; qtot   -1.905
        27           h26bf         1   UNL       h26        27     0.07439        1.0080 ; qtot   -1.830
        28           h27bf         1   UNL       h27        28     0.15558        1.0080 ; qtot   -1.675
        29           h28bf         1   UNL       h28        29     0.16006        1.0080 ; qtot   -1.515
        30           h29bf         1   UNL       h29        30     0.16563        1.0080 ; qtot   -1.349
        31           h30bf         1   UNL       h30        31     0.04786        1.0080 ; qtot   -1.301
        32           h31bf         1   UNL       h31        32     0.04786        1.0080 ; qtot   -1.253
        33           h32bf         1   UNL       h32        33     0.03225        1.0080 ; qtot   -1.221
        34           h33bf         1   UNL       h33        34     0.03225        1.0080 ; qtot   -1.189
        35           h34bf         1   UNL       h34        35     0.03225        1.0080 ; qtot   -1.156
        36           h35bf         1   UNL       h35        36     0.31885        1.0080 ; qtot   -0.838
        37           h36bf         1   UNL       h36        37     0.13708        1.0080 ; qtot   -0.701
        38           h37bf         1   UNL       h37        38     0.13776        1.0080 ; qtot   -0.563
        39           h38bf         1   UNL       h38        39     0.14579        1.0080 ; qtot   -0.417
        40           h39bf         1   UNL       h39        40     0.15025        1.0080 ; qtot   -0.267
        41           h40bf         1   UNL       h40        41     0.04445        1.0080 ; qtot   -0.222
        42           h41bf         1   UNL       h41        42     0.04445        1.0080 ; qtot   -0.178
        43           h42bf         1   UNL       h42        43     0.04445        1.0080 ; qtot   -0.133
        44           h43bf         1   UNL       h43        44     0.04445        1.0080 ; qtot   -0.089
        45           h44bf         1   UNL       h44        45     0.04445        1.0080 ; qtot   -0.044
        46           h45bf         1   UNL       h45        46     0.04446        1.0080 ; qtot   -0.000

[ bonds ]
;       ai        aj funct               r               k
         1         9     1        0.152819   208934.452368    ;  uncertainty r = 0.000054, k = 4.104532
         1        12     1        0.145838   251819.954395    ;  uncertainty r = 0.000091, k = 7.026246
         1        26     1        0.109359   309291.934082    ;  uncertainty r = 0.000024, k = 0.974711
         1        27     1        0.109359   309291.934082    ;  uncertainty r = 0.000024, k = 0.974711
         2         8     1        0.143830   255915.391699    ;  uncertainty r = 0.000062, k = 18.010500
         2        12     1        0.139721   237239.848242    ;  uncertainty r = 0.000167, k = 16.617825
         2        14     1        0.124852   726910.498535    ;  uncertainty r = 0.000139, k = 15.744304
         3         4     1        0.136383   400522.440137    ;  uncertainty r = 0.000122, k = 15.649455
         3        12     1        0.138200   272690.105957    ;  uncertainty r = 0.000193, k = 8.557469
         3        28     1        0.108444   334899.628027    ;  uncertainty r = 0.000090, k = 1.785414
         4         5     1        0.143438   266361.703809    ;  uncertainty r = 0.000143, k = 15.660581
         4        15     1        0.147762   285536.523291    ;  uncertainty r = 0.000044, k = 11.529693
         5         6     1        0.143098   272603.279785    ;  uncertainty r = 0.000093, k = 17.629831
         5         8     1        0.140258   406999.136279    ;  uncertainty r = 0.000075, k = 13.601771
         6         7     1        0.138514   432195.197559    ;  uncertainty r = 0.000076, k = 6.544483
         6        29     1        0.108231   338325.380176    ;  uncertainty r = 0.000029, k = 1.934609
         7        13     1        0.137723   308827.260840    ;  uncertainty r = 0.000097, k = 4.992967
         7        30     1        0.108224   341276.703906    ;  uncertainty r = 0.000037, k = 2.130474
         8        13     1        0.137225   329238.127490    ;  uncertainty r = 0.000090, k = 12.928558
         9        11     1        0.141185   243537.605859    ;  uncertainty r = 0.000069, k = 4.943283
         9        31     1        0.109964   308701.107520    ;  uncertainty r = 0.000023, k = 1.556457
         9        32     1        0.109964   308701.107520    ;  uncertainty r = 0.000023, k = 1.556457
        10        11     1        0.141779   253006.561719    ;  uncertainty r = 0.000050, k = 5.822199
        10        33     1        0.109816   310548.742920    ;  uncertainty r = 0.000012, k = 1.448677
        10        34     1        0.109816   310548.742920    ;  uncertainty r = 0.000012, k = 1.448677
        10        35     1        0.109816   310548.742920    ;  uncertainty r = 0.000012, k = 1.448677
        13        36     1        0.101139   415156.225293    ;  uncertainty r = 0.000050, k = 8.169425
        15        16     1        0.140255   348973.231152    ;  uncertainty r = 0.000047, k = 2.336407
        15        20     1        0.139991   341845.721777    ;  uncertainty r = 0.000087, k = 4.291725
        16        17     1        0.139400   369466.684814    ;  uncertainty r = 0.000016, k = 1.493069
        16        37     1        0.108826   334608.683740    ;  uncertainty r = 0.000025, k = 0.878876
        17        18     1        0.139413   368095.520801    ;  uncertainty r = 0.000010, k = 0.854537
        17        38     1        0.108823   332776.064160    ;  uncertainty r = 0.000020, k = 1.295620
        18        19     1        0.139890   349707.065527    ;  uncertainty r = 0.000044, k = 2.770799
        18        39     1        0.108700   331987.376074    ;  uncertainty r = 0.000012, k = 1.339248
        19        20     1        0.139558   343795.199170    ;  uncertainty r = 0.000050, k = 3.098708
        19        21     1        0.150223   268630.088623    ;  uncertainty r = 0.000058, k = 4.245765
        20        40     1        0.108745   332769.628809    ;  uncertainty r = 0.000047, k = 1.433152
        21        22     1        0.123674   775280.184180    ;  uncertainty r = 0.000040, k = 2.412179
        21        23     1        0.137463   375338.432373    ;  uncertainty r = 0.000044, k = 10.885088
        23        24     1        0.145945   249588.419629    ;  uncertainty r = 0.000026, k = 4.280278
        23        25     1        0.145945   249588.419629    ;  uncertainty r = 0.000026, k = 4.280278
        24        41     1        0.109445   311010.709229    ;  uncertainty r = 0.000011, k = 1.720998
        24        42     1        0.109445   311010.709229    ;  uncertainty r = 0.000011, k = 1.720998
        24        43     1        0.109445   311010.709229    ;  uncertainty r = 0.000011, k = 1.720998
        25        44     1        0.109445   311010.709229    ;  uncertainty r = 0.000011, k = 1.720998
        25        45     1        0.109445   311010.709229    ;  uncertainty r = 0.000011, k = 1.720998
        25        46     1        0.109445   311010.709229    ;  uncertainty r = 0.000011, k = 1.720998

[ angles ]
;       ai        aj        ak funct           theta             cth
         1         9        11     1      107.975037      556.697493    ;  uncertainty theta = 0.001827, k = 0.107608
         1         9        31     1      108.811378      406.211936    ;  uncertainty theta = 0.001498, k = 0.040941
         1         9        32     1      108.811378      406.211936    ;  uncertainty theta = 0.001498, k = 0.040941
         1        12         2     1      114.018143      425.884256    ;  uncertainty theta = 0.004775, k = 0.134691
         1        12         3     1      116.231567      452.454150    ;  uncertainty theta = 0.004104, k = 0.246688
         2         8         5     1      122.834229      386.864224    ;  uncertainty theta = 0.006923, k = 0.304010
         2         8        13     1      121.119408      351.615543    ;  uncertainty theta = 0.012177, k = 0.286935
         2        12         3     1      125.035133      508.296052    ;  uncertainty theta = 0.002330, k = 0.296468
         3         4         5     1      120.066605      429.899456    ;  uncertainty theta = 0.005137, k = 0.147812
         3         4        15     1      120.601120      383.021144    ;  uncertainty theta = 0.005218, k = 0.142412
         4         3        12     1      127.436356      567.332039    ;  uncertainty theta = 0.003134, k = 0.190704
         4         3        28     1      121.239990      254.632257    ;  uncertainty theta = 0.003577, k = 0.130870
         4         5         6     1      130.627151      356.495334    ;  uncertainty theta = 0.006420, k = 0.087523
         4         5         8     1      117.738571      429.303995    ;  uncertainty theta = 0.009939, k = 0.194997
         4        15        16     1      121.782211      422.017523    ;  uncertainty theta = 0.004875, k = 0.065559
         4        15        20     1      120.922653      405.593938    ;  uncertainty theta = 0.006837, k = 0.098822
         5         4        15     1      121.517014      375.674501    ;  uncertainty theta = 0.005574, k = 0.162459
         5         6         7     1      106.651588      790.063898    ;  uncertainty theta = 0.007324, k = 0.128778
         5         6        29     1      124.749977      251.322025    ;  uncertainty theta = 0.002184, k = 0.280041
         5         8        13     1      108.697922      611.648181    ;  uncertainty theta = 0.003811, k = 0.056814
         6         5         8     1      107.232010      700.961795    ;  uncertainty theta = 0.006623, k = 0.065020
         6         7        13     1      110.262352      731.065322    ;  uncertainty theta = 0.004583, k = 0.122419
         6         7        30     1      128.244171      234.340614    ;  uncertainty theta = 0.004055, k = 0.165172
         7         6        29     1      123.456604      249.893352    ;  uncertainty theta = 0.002217, k = 0.104075
         7        13         8     1      105.428810      867.029106    ;  uncertainty theta = 0.004825, k = 0.201301
         7        13        36     1      116.062500      278.192842    ;  uncertainty theta = 0.005254, k = 0.128297
         8         2        12     1      108.824966      381.881742    ;  uncertainty theta = 0.009859, k = 0.283064
         8         2        14     1      128.507935      502.377412    ;  uncertainty theta = 0.005322, k = 0.176222
         8        13        36     1      117.635910      284.830288    ;  uncertainty theta = 0.005410, k = 0.212295
         9         1        12     1      110.458595      628.914842    ;  uncertainty theta = 0.001651, k = 0.114162
         9         1        26     1      108.404320      411.912329    ;  uncertainty theta = 0.002312, k = 0.042487
         9         1        27     1      108.404320      411.912329    ;  uncertainty theta = 0.002312, k = 0.042487
         9        11        10     1      108.974464      554.982037    ;  uncertainty theta = 0.001820, k = 0.076833
        11         9        31     1      108.378235      459.870127    ;  uncertainty theta = 0.000567, k = 0.077952
        11         9        32     1      108.378235      459.870127    ;  uncertainty theta = 0.000567, k = 0.077952
        11        10        33     1      109.438087      458.192945    ;  uncertainty theta = 0.001380, k = 0.028643
        11        10        34     1      109.438087      458.192945    ;  uncertainty theta = 0.001380, k = 0.028643
        11        10        35     1      109.438087      458.192945    ;  uncertainty theta = 0.001380, k = 0.028643
        12         1        26     1      106.334557      437.273296    ;  uncertainty theta = 0.001734, k = 0.063555
        12         1        27     1      106.334557      437.273296    ;  uncertainty theta = 0.001734, k = 0.063555
        12         2        14     1      122.950966      690.587536    ;  uncertainty theta = 0.004770, k = 0.066206
        12         3        28     1      112.328514      297.243590    ;  uncertainty theta = 0.003532, k = 0.207579
        13         7        30     1      117.816879      298.852300    ;  uncertainty theta = 0.002755, k = 0.084542
        15        16        17     1      119.973778      530.809057    ;  uncertainty theta = 0.001929, k = 0.049030
        15        16        37     1      119.632278      280.706173    ;  uncertainty theta = 0.001643, k = 0.030018
        15        20        19     1      121.985985      516.837640    ;  uncertainty theta = 0.001466, k = 0.089984
        15        20        40     1      119.707138      280.555951    ;  uncertainty theta = 0.002407, k = 0.065120
        16        15        20     1      119.781410      411.623473    ;  uncertainty theta = 0.002855, k = 0.205677
        16        17        18     1      120.436646      510.385274    ;  uncertainty theta = 0.001517, k = 0.068547
        16        17        38     1      120.328796      285.162366    ;  uncertainty theta = 0.001614, k = 0.041580
        17        16        37     1      120.379723      293.583196    ;  uncertainty theta = 0.001513, k = 0.030875
        17        18        19     1      120.008949      514.218554    ;  uncertainty theta = 0.002544, k = 0.056425
        17        18        39     1      120.506577      287.142067    ;  uncertainty theta = 0.002171, k = 0.099837
        18        17        38     1      120.297501      283.473725    ;  uncertainty theta = 0.001407, k = 0.034077
        18        19        20     1      121.459000      452.260100    ;  uncertainty theta = 0.003682, k = 0.090201
        18        19        21     1      120.643578      334.713169    ;  uncertainty theta = 0.002603, k = 0.118740
        19        18        39     1      119.666092      269.175529    ;  uncertainty theta = 0.002464, k = 0.057039
        19        20        40     1      119.470741      271.577167    ;  uncertainty theta = 0.002815, k = 0.063533
        19        21        22     1      124.280190      514.030282    ;  uncertainty theta = 0.001496, k = 0.156591
        19        21        23     1      114.339493      404.421146    ;  uncertainty theta = 0.003057, k = 0.174133
        20        19        21     1      119.898987      345.006507    ;  uncertainty theta = 0.001635, k = 0.083836
        21        23        24     1      116.643967      378.862937    ;  uncertainty theta = 0.002631, k = 0.169423
        21        23        25     1      116.643967      378.862937    ;  uncertainty theta = 0.002631, k = 0.169423
        22        21        23     1      124.591232      716.301362    ;  uncertainty theta = 0.002800, k = 0.070107
        23        24        41     1      109.331192      483.112919    ;  uncertainty theta = 0.001012, k = 0.067158
        23        24        42     1      109.331192      483.112919    ;  uncertainty theta = 0.001012, k = 0.067158
        23        24        43     1      109.331192      483.112919    ;  uncertainty theta = 0.001012, k = 0.067158
        23        25        44     1      109.331192      483.112919    ;  uncertainty theta = 0.001012, k = 0.067158
        23        25        45     1      109.331192      483.112919    ;  uncertainty theta = 0.001012, k = 0.067158
        23        25        46     1      109.331192      483.112919    ;  uncertainty theta = 0.001012, k = 0.067158
        24        23        25     1      118.452927      438.779635    ;  uncertainty theta = 0.002033, k = 0.239116
        26         1        27     1      106.783058      316.034944    ;  uncertainty theta = 0.002984, k = 0.042001
        31         9        32     1      107.480850      327.144831    ;  uncertainty theta = 0.001707, k = 0.055092
        33        10        34     1      108.622421      326.220899    ;  uncertainty theta = 0.002025, k = 0.013165
        33        10        35     1      108.622421      326.220899    ;  uncertainty theta = 0.002025, k = 0.013165
        34        10        35     1      108.622421      326.220899    ;  uncertainty theta = 0.002025, k = 0.013165
        41        24        42     1      106.882004      326.924446    ;  uncertainty theta = 0.000868, k = 0.031272
        41        24        43     1      106.882004      326.924446    ;  uncertainty theta = 0.000868, k = 0.031272
        42        24        43     1      106.882004      326.924446    ;  uncertainty theta = 0.000868, k = 0.031272
        44        25        45     1      106.882004      326.924446    ;  uncertainty theta = 0.000868, k = 0.031272
        44        25        46     1      106.882004      326.924478    ;  uncertainty theta = 0.000868, k = 0.031272
        45        25        46     1      106.882019      326.924478    ;  uncertainty theta = 0.000868, k = 0.031272

[ dihedrals ] ; propers for gromacs 4.5 or higher, use funct 9
;       ai        aj        ak        al funct           phase               k        pn
         1         9        11        10     9        0.000000       -2.756392         1    ;  uncertainty k = 0.361755
         1         9        11        10     9      180.000000       -1.340888         2    ;  uncertainty k = 0.154363
         1         9        11        10     9        0.000000        1.188615         3    ;  uncertainty k = 0.161308
         1         9        11        10     9      180.000000        0.004563         4    ;  uncertainty k = 0.087970
         1        12         2         8     9        0.000000        1.892120         1    ;  uncertainty k = 1.075984
         1        12         2         8     9      180.000000        8.294772         2    ;  uncertainty k = 0.280862
         1        12         2         8     9        0.000000        1.437068         3    ;  uncertainty k = 0.260584
         1        12         2         8     9      180.000000       -0.217547         4    ;  uncertainty k = 0.264157
         1        12         2        14     9        0.000000        1.981127         1    ;  uncertainty k = 0.700118
         1        12         2        14     9      180.000000       13.121932         2    ;  uncertainty k = 0.476683
         1        12         2        14     9        0.000000        0.903907         3    ;  uncertainty k = 0.198646
         1        12         2        14     9      180.000000       -0.084506         4    ;  uncertainty k = 0.335962
         1        12         3         4     9        0.000000        2.677386         1    ;  uncertainty k = 1.363210
         1        12         3         4     9      180.000000        8.500646         2    ;  uncertainty k = 0.791458
         1        12         3         4     9        0.000000        1.154018         3    ;  uncertainty k = 0.270189
         1        12         3         4     9      180.000000       -0.328017         4    ;  uncertainty k = 0.279346
         1        12         3        28     9        0.000000       -0.674873         1    ;  uncertainty k = 1.384939
         1        12         3        28     9      180.000000        3.989091         2    ;  uncertainty k = 0.848114
         1        12         3        28     9        0.000000        0.818228         3    ;  uncertainty k = 0.150418
         1        12         3        28     9      180.000000        0.047194         4    ;  uncertainty k = 0.182780
         2         8         5         4     9        0.000000        0.019927         1    ;  uncertainty k = 0.965184
         2         8         5         4     9      180.000000        8.012885         2    ;  uncertainty k = 0.673053
         2         8         5         4     9        0.000000        1.355054         3    ;  uncertainty k = 0.598052
         2         8         5         4     9      180.000000        0.922227         4    ;  uncertainty k = 0.282784
         2         8         5         6     9        0.000000        0.167109         1    ;  uncertainty k = 1.594209
         2         8         5         6     9      180.000000        8.061191         2    ;  uncertainty k = 0.423680
         2         8         5         6     9        0.000000        0.818629         3    ;  uncertainty k = 0.760851
         2         8         5         6     9      180.000000        1.124128         4    ;  uncertainty k = 0.378034
         2         8        13         7     9        0.000000        1.336456         1    ;  uncertainty k = 1.701849
         2         8        13         7     9      180.000000        4.334859         2    ;  uncertainty k = 0.933631
         2         8        13         7     9        0.000000        0.807737         3    ;  uncertainty k = 0.622176
         2         8        13         7     9      180.000000        0.388899         4    ;  uncertainty k = 0.209358
         2         8        13        36     9        0.000000        2.618472         1    ;  uncertainty k = 1.340961
         2         8        13        36     9      180.000000        1.307960         2    ;  uncertainty k = 0.892359
         2         8        13        36     9        0.000000        1.130260         3    ;  uncertainty k = 0.223891
         2         8        13        36     9      180.000000        0.129601         4    ;  uncertainty k = 0.123497
         2        12         1         9     9        0.000000        2.233560         1    ;  uncertainty k = 1.327257
         2        12         1         9     9      180.000000       -0.583879         2    ;  uncertainty k = 0.507086
         2        12         1         9     9        0.000000        0.538054         3    ;  uncertainty k = 0.302057
         2        12         1         9     9      180.000000        0.355947         4    ;  uncertainty k = 0.124823
         2        12         1        26     9        0.000000        0.333345         1    ;  uncertainty k = 0.343129
         2        12         1        26     9      180.000000        0.748812         2    ;  uncertainty k = 0.336765
         2        12         1        26     9        0.000000        0.521636         3    ;  uncertainty k = 0.088267
         2        12         1        26     9      180.000000        0.454606         4    ;  uncertainty k = 0.099766
         2        12         1        27     9        0.000000        0.333345         1    ;  uncertainty k = 0.343129
         2        12         1        27     9      180.000000        0.748812         2    ;  uncertainty k = 0.336765
         2        12         1        27     9        0.000000        0.521636         3    ;  uncertainty k = 0.088267
         2        12         1        27     9      180.000000        0.454606         4    ;  uncertainty k = 0.099766
         2        12         3         4     9        0.000000        0.930693         1    ;  uncertainty k = 1.196291
         2        12         3         4     9      180.000000        4.644080         2    ;  uncertainty k = 0.630755
         2        12         3         4     9        0.000000        1.041326         3    ;  uncertainty k = 0.246437
         2        12         3         4     9      180.000000        0.214503         4    ;  uncertainty k = 0.058181
         2        12         3        28     9        0.000000        1.280111         1    ;  uncertainty k = 1.000996
         2        12         3        28     9      180.000000        4.109076         2    ;  uncertainty k = 1.782150
         2        12         3        28     9        0.000000        0.699576         3    ;  uncertainty k = 0.391184
         2        12         3        28     9      180.000000        0.026040         4    ;  uncertainty k = 0.232452
         3         4         5         6     9        0.000000        0.222251         1    ;  uncertainty k = 1.005323
         3         4         5         6     9      180.000000        4.068168         2    ;  uncertainty k = 0.546611
         3         4         5         6     9        0.000000        0.699031         3    ;  uncertainty k = 0.299941
         3         4         5         6     9      180.000000        0.514479         4    ;  uncertainty k = 0.131411
         3         4         5         8     9        0.000000       -0.009325         1    ;  uncertainty k = 1.108065
         3         4         5         8     9      180.000000        6.623293         2    ;  uncertainty k = 0.694001
         3         4         5         8     9        0.000000       -0.705978         3    ;  uncertainty k = 0.310235
         3         4         5         8     9      180.000000        0.805685         4    ;  uncertainty k = 0.222520
         3         4        15        16     9        0.000000        0.397724         1    ;  uncertainty k = 0.561181
         3         4        15        16     9      180.000000        4.206623         2    ;  uncertainty k = 0.150050
         3         4        15        16     9        0.000000        0.485171         3    ;  uncertainty k = 0.105231
         3         4        15        16     9      180.000000        0.018526         4    ;  uncertainty k = 0.121199
         3         4        15        20     9        0.000000        0.433064         1    ;  uncertainty k = 0.585533
         3         4        15        20     9      180.000000        4.181381         2    ;  uncertainty k = 0.154660
         3         4        15        20     9        0.000000        0.539698         3    ;  uncertainty k = 0.148131
         3         4        15        20     9      180.000000        0.009127         4    ;  uncertainty k = 0.110673
         3        12         1         9     9        0.000000       -0.313324         1    ;  uncertainty k = 0.420599
         3        12         1         9     9      180.000000       -0.154112         2    ;  uncertainty k = 0.258301
         3        12         1         9     9        0.000000        0.375312         3    ;  uncertainty k = 0.180100
         3        12         1         9     9      180.000000        0.270170         4    ;  uncertainty k = 0.069714
         3        12         1        26     9        0.000000       -1.597875         1    ;  uncertainty k = 0.605895
         3        12         1        26     9      180.000000        0.451468         2    ;  uncertainty k = 0.221256
         3        12         1        26     9        0.000000        0.569417         3    ;  uncertainty k = 0.112318
         3        12         1        26     9      180.000000        0.250206         4    ;  uncertainty k = 0.091765
         3        12         1        27     9        0.000000       -1.597875         1    ;  uncertainty k = 0.605895
         3        12         1        27     9      180.000000        0.451468         2    ;  uncertainty k = 0.221256
         3        12         1        27     9        0.000000        0.569417         3    ;  uncertainty k = 0.112318
         3        12         1        27     9      180.000000        0.250206         4    ;  uncertainty k = 0.091765
         3        12         2         8     9        0.000000        1.134487         1    ;  uncertainty k = 0.205291
         3        12         2         8     9      180.000000        4.645285         2    ;  uncertainty k = 1.249960
         3        12         2         8     9        0.000000        1.491071         3    ;  uncertainty k = 0.293594
         3        12         2         8     9      180.000000        0.362861         4    ;  uncertainty k = 0.213625
         3        12         2        14     9        0.000000        2.669007         1    ;  uncertainty k = 1.484400
         3        12         2        14     9      180.000000       11.183410         2    ;  uncertainty k = 0.296068
         3        12         2        14     9        0.000000        1.274754         3    ;  uncertainty k = 0.242069
         3        12         2        14     9      180.000000       -0.078285         4    ;  uncertainty k = 0.101173
         4         5         6         7     9        0.000000        0.141921         1    ;  uncertainty k = 0.845199
         4         5         6         7     9      180.000000        8.611191         2    ;  uncertainty k = 0.768729
         4         5         6         7     9        0.000000       -0.056166         3    ;  uncertainty k = 1.066989
         4         5         6         7     9      180.000000        0.828476         4    ;  uncertainty k = 0.218536
         4         5         6        29     9        0.000000        0.479790         1    ;  uncertainty k = 1.596710
         4         5         6        29     9      180.000000        4.099107         2    ;  uncertainty k = 0.379443
         4         5         6        29     9        0.000000        2.007152         3    ;  uncertainty k = 0.096711
         4         5         6        29     9      180.000000        0.168442         4    ;  uncertainty k = 0.073395
         4         5         8        13     9        0.000000        0.525705         1    ;  uncertainty k = 0.454106
         4         5         8        13     9      180.000000       13.041264         2    ;  uncertainty k = 0.392349
         4         5         8        13     9        0.000000       -0.170698         3    ;  uncertainty k = 0.542867
         4         5         8        13     9      180.000000        1.190995         4    ;  uncertainty k = 0.375513
         4        15        16        17     9        0.000000        0.017424         1    ;  uncertainty k = 0.275333
         4        15        16        17     9      180.000000        9.046475         2    ;  uncertainty k = 0.534040
         4        15        16        17     9        0.000000        1.388412         3    ;  uncertainty k = 0.206012
         4        15        16        17     9      180.000000        1.815115         4    ;  uncertainty k = 0.106506
         4        15        16        37     9        0.000000       -0.238748         1    ;  uncertainty k = 0.371286
         4        15        16        37     9      180.000000        6.969140         2    ;  uncertainty k = 0.388423
         4        15        16        37     9        0.000000        0.770193         3    ;  uncertainty k = 0.250967
         4        15        16        37     9      180.000000        1.170283         4    ;  uncertainty k = 0.284862
         4        15        20        19     9        0.000000       -0.228705         1    ;  uncertainty k = 0.374382
         4        15        20        19     9      180.000000        8.651198         2    ;  uncertainty k = 0.756392
         4        15        20        19     9        0.000000        1.220018         3    ;  uncertainty k = 0.110492
         4        15        20        19     9      180.000000        1.803035         4    ;  uncertainty k = 0.108015
         4        15        20        40     9        0.000000       -0.109908         1    ;  uncertainty k = 0.509959
         4        15        20        40     9      180.000000        7.017327         2    ;  uncertainty k = 0.385135
         4        15        20        40     9        0.000000        0.766064         3    ;  uncertainty k = 0.298257
         4        15        20        40     9      180.000000        1.245896         4    ;  uncertainty k = 0.298335
         5         4         3        12     9        0.000000        0.145701         1    ;  uncertainty k = 0.926707
         5         4         3        12     9      180.000000       21.827385         2    ;  uncertainty k = 0.300707
         5         4         3        12     9        0.000000        0.526822         3    ;  uncertainty k = 0.457871
         5         4         3        12     9      180.000000        0.516356         4    ;  uncertainty k = 0.252949
         5         4         3        28     9        0.000000       -0.245608         1    ;  uncertainty k = 0.387660
         5         4         3        28     9      180.000000       13.839419         2    ;  uncertainty k = 0.434405
         5         4         3        28     9        0.000000        1.996002         3    ;  uncertainty k = 0.194788
         5         4         3        28     9      180.000000        1.216584         4    ;  uncertainty k = 0.353236
         5         4        15        16     9        0.000000       -0.067782         1    ;  uncertainty k = 0.534798
         5         4        15        16     9      180.000000        4.180239         2    ;  uncertainty k = 0.467888
         5         4        15        16     9        0.000000        0.782130         3    ;  uncertainty k = 0.379271
         5         4        15        16     9      180.000000        0.314217         4    ;  uncertainty k = 0.127597
         5         4        15        20     9        0.000000       -0.161566         1    ;  uncertainty k = 0.537481
         5         4        15        20     9      180.000000        4.147280         2    ;  uncertainty k = 0.466408
         5         4        15        20     9        0.000000        0.763755         3    ;  uncertainty k = 0.394131
         5         4        15        20     9      180.000000        0.241384         4    ;  uncertainty k = 0.112081
         5         6         7        13     9        0.000000       -0.197289         1    ;  uncertainty k = 0.478635
         5         6         7        13     9      180.000000       22.044293         2    ;  uncertainty k = 0.363719
         5         6         7        13     9        0.000000       -6.953686         3    ;  uncertainty k = 1.059115
         5         6         7        13     9      180.000000        1.333768         4    ;  uncertainty k = 0.365433
         5         6         7        30     9        0.000000        0.139745         1    ;  uncertainty k = 0.331291
         5         6         7        30     9      180.000000       12.569988         2    ;  uncertainty k = 0.260347
         5         6         7        30     9        0.000000        1.837739         3    ;  uncertainty k = 0.073566
         5         6         7        30     9      180.000000        0.853981         4    ;  uncertainty k = 0.157616
         5         8         2        12     9        0.000000       -1.678385         1    ;  uncertainty k = 1.023801
         5         8         2        12     9      180.000000        4.966708         2    ;  uncertainty k = 0.453250
         5         8         2        12     9        0.000000       -0.348588         3    ;  uncertainty k = 0.224667
         5         8         2        12     9      180.000000        0.222953         4    ;  uncertainty k = 0.172523
         5         8         2        14     9        0.000000       -1.780020         1    ;  uncertainty k = 1.622610
         5         8         2        14     9      180.000000        5.799912         2    ;  uncertainty k = 0.282538
         5         8         2        14     9        0.000000        0.359418         3    ;  uncertainty k = 0.366530
         5         8         2        14     9      180.000000       -0.041688         4    ;  uncertainty k = 0.159687
         5         8        13         7     9        0.000000        0.012753         1    ;  uncertainty k = 0.361537
         5         8        13         7     9      180.000000       14.727017         2    ;  uncertainty k = 0.881301
         5         8        13         7     9        0.000000       -9.807457         3    ;  uncertainty k = 1.240524
         5         8        13         7     9      180.000000        1.092118         4    ;  uncertainty k = 0.451678
         5         8        13        36     9        0.000000        3.954299         1    ;  uncertainty k = 3.147131
         5         8        13        36     9      180.000000        7.046072         2    ;  uncertainty k = 1.553622
         5         8        13        36     9        0.000000        1.124950         3    ;  uncertainty k = 0.377822
         5         8        13        36     9      180.000000        0.024611         4    ;  uncertainty k = 0.286588
         6         5         4        15     9        0.000000        0.030595         1    ;  uncertainty k = 0.881411
         6         5         4        15     9      180.000000        4.909027         2    ;  uncertainty k = 1.063523
         6         5         4        15     9        0.000000        1.449729         3    ;  uncertainty k = 0.166767
         6         5         4        15     9      180.000000        0.304568         4    ;  uncertainty k = 0.190053
         6         5         8        13     9        0.000000       -0.382667         1    ;  uncertainty k = 0.429642
         6         5         8        13     9      180.000000       14.643024         2    ;  uncertainty k = 0.640990
         6         5         8        13     9        0.000000       -3.648481         3    ;  uncertainty k = 1.019639
         6         5         8        13     9      180.000000        1.594371         4    ;  uncertainty k = 0.604175
         6         7        13         8     9        0.000000        0.151800         1    ;  uncertainty k = 0.400299
         6         7        13         8     9      180.000000       15.778520         2    ;  uncertainty k = 0.374093
         6         7        13         8     9        0.000000       -8.142196         3    ;  uncertainty k = 1.163524
         6         7        13         8     9      180.000000        1.119656         4    ;  uncertainty k = 0.569595
         6         7        13        36     9        0.000000        2.092522         1    ;  uncertainty k = 1.529021
         6         7        13        36     9      180.000000        9.621210         2    ;  uncertainty k = 0.659311
         6         7        13        36     9        0.000000        1.427239         3    ;  uncertainty k = 0.856825
         6         7        13        36     9      180.000000       -0.093919         4    ;  uncertainty k = 0.132475
         7         6         5         8     9        0.000000        0.176680         1    ;  uncertainty k = 0.547877
         7         6         5         8     9      180.000000       12.426935         2    ;  uncertainty k = 0.896413
         7         6         5         8     9        0.000000      -12.009165         3    ;  uncertainty k = 2.136179
         7         6         5         8     9      180.000000        1.927588         4    ;  uncertainty k = 0.733785
         8         5         4        15     9        0.000000       -0.283179         1    ;  uncertainty k = 0.793439
         8         5         4        15     9      180.000000        7.177359         2    ;  uncertainty k = 0.749881
         8         5         4        15     9        0.000000        0.982144         3    ;  uncertainty k = 0.560680
         8         5         4        15     9      180.000000        0.534521         4    ;  uncertainty k = 0.188720
         8         5         6        29     9        0.000000        0.207560         1    ;  uncertainty k = 0.753737
         8         5         6        29     9      180.000000        8.338949         2    ;  uncertainty k = 0.797502
         8         5         6        29     9        0.000000        1.398437         3    ;  uncertainty k = 0.625080
         8         5         6        29     9      180.000000        0.386689         4    ;  uncertainty k = 0.232514
         8        13         7        30     9        0.000000        0.690562         1    ;  uncertainty k = 0.487992
         8        13         7        30     9      180.000000        7.780803         2    ;  uncertainty k = 0.778369
         8        13         7        30     9        0.000000        1.623171         3    ;  uncertainty k = 0.365576
         8        13         7        30     9      180.000000        0.139900         4    ;  uncertainty k = 0.293699
         9        11        10        33     9        0.000000       -1.291793         1    ;  uncertainty k = 0.367698
         9        11        10        33     9      180.000000       -1.926144         2    ;  uncertainty k = 0.185710
         9        11        10        33     9        0.000000        1.187834         3    ;  uncertainty k = 0.048986
         9        11        10        33     9      180.000000        0.024347         4    ;  uncertainty k = 0.018578
         9        11        10        34     9        0.000000       -1.291793         1    ;  uncertainty k = 0.367698
         9        11        10        34     9      180.000000       -1.926144         2    ;  uncertainty k = 0.185710
         9        11        10        34     9        0.000000        1.187834         3    ;  uncertainty k = 0.048986
         9        11        10        34     9      180.000000        0.024347         4    ;  uncertainty k = 0.018578
         9        11        10        35     9        0.000000       -1.291793         1    ;  uncertainty k = 0.367698
         9        11        10        35     9      180.000000       -1.926144         2    ;  uncertainty k = 0.185710
         9        11        10        35     9        0.000000        1.187834         3    ;  uncertainty k = 0.048986
         9        11        10        35     9      180.000000        0.024347         4    ;  uncertainty k = 0.018578
        10        11         9        31     9        0.000000       -1.084399         1    ;  uncertainty k = 0.446636
        10        11         9        31     9      180.000000       -1.309463         2    ;  uncertainty k = 0.256326
        10        11         9        31     9        0.000000        1.163078         3    ;  uncertainty k = 0.124010
        10        11         9        31     9      180.000000        0.078881         4    ;  uncertainty k = 0.068323
        10        11         9        32     9        0.000000       -1.084399         1    ;  uncertainty k = 0.446636
        10        11         9        32     9      180.000000       -1.309463         2    ;  uncertainty k = 0.256326
        10        11         9        32     9        0.000000        1.163078         3    ;  uncertainty k = 0.124010
        10        11         9        32     9      180.000000        0.078881         4    ;  uncertainty k = 0.068323
        11         9         1        12     9        0.000000       -1.732558         1    ;  uncertainty k = 0.583598
        11         9         1        12     9      180.000000       -3.542376         2    ;  uncertainty k = 0.347632
        11         9         1        12     9        0.000000        1.808948         3    ;  uncertainty k = 0.170395
        11         9         1        12     9      180.000000       -0.106288         4    ;  uncertainty k = 0.094183
        11         9         1        26     9        0.000000        0.286300         1    ;  uncertainty k = 0.534568
        11         9         1        26     9      180.000000       -1.358225         2    ;  uncertainty k = 0.244302
        11         9         1        26     9        0.000000        0.899729         3    ;  uncertainty k = 0.118387
        11         9         1        26     9      180.000000       -0.061341         4    ;  uncertainty k = 0.081968
        11         9         1        27     9        0.000000        0.286300         1    ;  uncertainty k = 0.534568
        11         9         1        27     9      180.000000       -1.358225         2    ;  uncertainty k = 0.244302
        11         9         1        27     9        0.000000        0.899729         3    ;  uncertainty k = 0.118387
        11         9         1        27     9      180.000000       -0.061341         4    ;  uncertainty k = 0.081968
        12         1         9        31     9        0.000000        1.228565         1    ;  uncertainty k = 0.364768
        12         1         9        31     9      180.000000       -1.689937         2    ;  uncertainty k = 0.197135
        12         1         9        31     9        0.000000        0.891460         3    ;  uncertainty k = 0.138537
        12         1         9        31     9      180.000000       -0.061567         4    ;  uncertainty k = 0.164567
        12         1         9        32     9        0.000000        1.228565         1    ;  uncertainty k = 0.364768
        12         1         9        32     9      180.000000       -1.689937         2    ;  uncertainty k = 0.197135
        12         1         9        32     9        0.000000        0.891460         3    ;  uncertainty k = 0.138537
        12         1         9        32     9      180.000000       -0.061567         4    ;  uncertainty k = 0.164567
        12         2         8        13     9        0.000000       -1.055051         1    ;  uncertainty k = 1.135570
        12         2         8        13     9      180.000000        5.381253         2    ;  uncertainty k = 0.641246
        12         2         8        13     9        0.000000        0.473353         3    ;  uncertainty k = 0.393899
        12         2         8        13     9      180.000000        0.197949         4    ;  uncertainty k = 0.111876
        12         3         4        15     9        0.000000        0.407965         1    ;  uncertainty k = 0.217525
        12         3         4        15     9      180.000000       19.144241         2    ;  uncertainty k = 0.279367
        12         3         4        15     9        0.000000        1.744331         3    ;  uncertainty k = 0.346989
        12         3         4        15     9      180.000000        0.897289         4    ;  uncertainty k = 0.241173
        13         7         6        29     9        0.000000        0.634303         1    ;  uncertainty k = 0.872568
        13         7         6        29     9      180.000000       14.905436         2    ;  uncertainty k = 0.201771
        13         7         6        29     9        0.000000        1.670616         3    ;  uncertainty k = 0.572134
        13         7         6        29     9      180.000000        0.792564         4    ;  uncertainty k = 0.242450
        13         8         2        14     9        0.000000       -1.128160         1    ;  uncertainty k = 0.485337
        13         8         2        14     9      180.000000        8.118398         2    ;  uncertainty k = 0.310305
        13         8         2        14     9        0.000000        0.981762         3    ;  uncertainty k = 0.340434
        13         8         2        14     9      180.000000       -0.164332         4    ;  uncertainty k = 0.179388
        15         4         3        28     9        0.000000       -0.216852         1    ;  uncertainty k = 0.308575
        15         4         3        28     9      180.000000       11.259626         2    ;  uncertainty k = 0.334460
        15         4         3        28     9        0.000000        1.639358         3    ;  uncertainty k = 0.239309
        15         4         3        28     9      180.000000        1.206034         4    ;  uncertainty k = 0.244998
        15        16        17        18     9        0.000000       -0.016778         1    ;  uncertainty k = 0.157516
        15        16        17        18     9      180.000000       14.362919         2    ;  uncertainty k = 0.249327
        15        16        17        18     9        0.000000       -0.975734         3    ;  uncertainty k = 0.442679
        15        16        17        18     9      180.000000        0.625325         4    ;  uncertainty k = 0.298182
        15        16        17        38     9        0.000000        0.082725         1    ;  uncertainty k = 0.097329
        15        16        17        38     9      180.000000        7.489628         2    ;  uncertainty k = 0.381507
        15        16        17        38     9        0.000000        1.347358         3    ;  uncertainty k = 0.199340
        15        16        17        38     9      180.000000        1.858447         4    ;  uncertainty k = 0.111468
        15        20        19        18     9        0.000000       -0.072166         1    ;  uncertainty k = 0.178403
        15        20        19        18     9      180.000000       11.027429         2    ;  uncertainty k = 0.338217
        15        20        19        18     9        0.000000       -0.369808         3    ;  uncertainty k = 0.353667
        15        20        19        18     9      180.000000        1.050329         4    ;  uncertainty k = 0.301143
        15        20        19        21     9        0.000000        0.520511         1    ;  uncertainty k = 0.386810
        15        20        19        21     9      180.000000        8.875589         2    ;  uncertainty k = 0.681888
        15        20        19        21     9        0.000000        1.357619         3    ;  uncertainty k = 0.358075
        15        20        19        21     9      180.000000        1.903831         4    ;  uncertainty k = 0.213554
        16        15        20        19     9        0.000000       -0.046463         1    ;  uncertainty k = 0.174426
        16        15        20        19     9      180.000000       10.278481         2    ;  uncertainty k = 0.413139
        16        15        20        19     9        0.000000        0.091376         3    ;  uncertainty k = 0.173053
        16        15        20        19     9      180.000000        1.149832         4    ;  uncertainty k = 0.284651
        16        15        20        40     9        0.000000        0.248797         1    ;  uncertainty k = 0.170875
        16        15        20        40     9      180.000000        7.043224         2    ;  uncertainty k = 0.518278
        16        15        20        40     9        0.000000        1.371996         3    ;  uncertainty k = 0.165738
        16        15        20        40     9      180.000000        1.673694         4    ;  uncertainty k = 0.230696
        16        17        18        19     9        0.000000       -0.093234         1    ;  uncertainty k = 0.097950
        16        17        18        19     9      180.000000       13.390705         2    ;  uncertainty k = 0.307059
        16        17        18        19     9        0.000000       -0.739716         3    ;  uncertainty k = 0.320703
        16        17        18        19     9      180.000000        0.811743         4    ;  uncertainty k = 0.232578
        16        17        18        39     9        0.000000        0.057993         1    ;  uncertainty k = 0.057569
        16        17        18        39     9      180.000000        7.318128         2    ;  uncertainty k = 0.245544
        16        17        18        39     9        0.000000        1.404792         3    ;  uncertainty k = 0.254042
        16        17        18        39     9      180.000000        1.819091         4    ;  uncertainty k = 0.160821
        17        16        15        20     9        0.000000       -0.143565         1    ;  uncertainty k = 0.099272
        17        16        15        20     9      180.000000       11.076153         2    ;  uncertainty k = 0.263541
        17        16        15        20     9        0.000000       -0.424267         3    ;  uncertainty k = 0.358173
        17        16        15        20     9      180.000000        0.923773         4    ;  uncertainty k = 0.276446
        17        18        19        20     9        0.000000       -0.165928         1    ;  uncertainty k = 0.159629
        17        18        19        20     9      180.000000       11.359284         2    ;  uncertainty k = 0.371522
        17        18        19        20     9        0.000000       -0.713984         3    ;  uncertainty k = 0.246564
        17        18        19        20     9      180.000000        0.946760         4    ;  uncertainty k = 0.247033
        17        18        19        21     9        0.000000        0.463758         1    ;  uncertainty k = 0.393175
        17        18        19        21     9      180.000000        9.269003         2    ;  uncertainty k = 0.639201
        17        18        19        21     9        0.000000        1.401593         3    ;  uncertainty k = 0.482327
        17        18        19        21     9      180.000000        1.898428         4    ;  uncertainty k = 0.250701
        18        17        16        37     9        0.000000        0.079519         1    ;  uncertainty k = 0.053875
        18        17        16        37     9      180.000000        7.615698         2    ;  uncertainty k = 0.277816
        18        17        16        37     9        0.000000        1.436252         3    ;  uncertainty k = 0.226404
        18        17        16        37     9      180.000000        1.816135         4    ;  uncertainty k = 0.124827
        18        19        20        40     9        0.000000        0.376072         1    ;  uncertainty k = 0.177967
        18        19        20        40     9      180.000000        7.602450         2    ;  uncertainty k = 0.460929
        18        19        20        40     9        0.000000        1.221006         3    ;  uncertainty k = 0.269253
        18        19        20        40     9      180.000000        1.737040         4    ;  uncertainty k = 0.197164
        18        19        21        22     9        0.000000       -1.664540         1    ;  uncertainty k = 0.695809
        18        19        21        22     9      180.000000        3.053791         2    ;  uncertainty k = 0.171336
        18        19        21        22     9        0.000000        0.230329         3    ;  uncertainty k = 0.045202
        18        19        21        22     9      180.000000        0.197527         4    ;  uncertainty k = 0.084772
        18        19        21        23     9        0.000000        1.027553         1    ;  uncertainty k = 0.376161
        18        19        21        23     9      180.000000        4.553042         2    ;  uncertainty k = 0.240746
        18        19        21        23     9        0.000000        0.383664         3    ;  uncertainty k = 0.131322
        18        19        21        23     9      180.000000        0.226257         4    ;  uncertainty k = 0.049418
        19        18        17        38     9        0.000000       -0.062970         1    ;  uncertainty k = 0.239653
        19        18        17        38     9      180.000000        7.804315         2    ;  uncertainty k = 0.299952
        19        18        17        38     9        0.000000        1.327721         3    ;  uncertainty k = 0.183218
        19        18        17        38     9      180.000000        1.797879         4    ;  uncertainty k = 0.215045
        19        21        23        24     9        0.000000        6.282721         1    ;  uncertainty k = 0.802001
        19        21        23        24     9      180.000000        6.340805         2    ;  uncertainty k = 0.348045
        19        21        23        24     9        0.000000        0.332740         3    ;  uncertainty k = 0.444048
        19        21        23        24     9      180.000000       -0.006011         4    ;  uncertainty k = 0.162784
        19        21        23        25     9        0.000000        6.282721         1    ;  uncertainty k = 0.802001
        19        21        23        25     9      180.000000        6.340805         2    ;  uncertainty k = 0.348045
        19        21        23        25     9        0.000000        0.332740         3    ;  uncertainty k = 0.444048
        19        21        23        25     9      180.000000       -0.006011         4    ;  uncertainty k = 0.162784
        20        15        16        37     9        0.000000        0.218226         1    ;  uncertainty k = 0.160901
        20        15        16        37     9      180.000000        6.967576         2    ;  uncertainty k = 0.503838
        20        15        16        37     9        0.000000        1.425972         3    ;  uncertainty k = 0.213688
        20        15        16        37     9      180.000000        1.653836         4    ;  uncertainty k = 0.253590
        20        19        18        39     9        0.000000        0.353385         1    ;  uncertainty k = 0.241728
        20        19        18        39     9      180.000000        7.374722         2    ;  uncertainty k = 0.435938
        20        19        18        39     9        0.000000        1.257826         3    ;  uncertainty k = 0.288453
        20        19        18        39     9      180.000000        1.725721         4    ;  uncertainty k = 0.238966
        20        19        21        22     9        0.000000       -1.711716         1    ;  uncertainty k = 0.826305
        20        19        21        22     9      180.000000        3.021444         2    ;  uncertainty k = 0.200926
        20        19        21        22     9        0.000000        0.274051         3    ;  uncertainty k = 0.086847
        20        19        21        22     9      180.000000        0.229275         4    ;  uncertainty k = 0.081454
        20        19        21        23     9        0.000000        1.058736         1    ;  uncertainty k = 0.448382
        20        19        21        23     9      180.000000        4.609976         2    ;  uncertainty k = 0.246990
        20        19        21        23     9        0.000000        0.345593         3    ;  uncertainty k = 0.125993
        20        19        21        23     9      180.000000        0.231168         4    ;  uncertainty k = 0.078300
        21        19        18        39     9        0.000000       -0.018501         1    ;  uncertainty k = 0.286704
        21        19        18        39     9      180.000000        8.166475         2    ;  uncertainty k = 0.362619
        21        19        18        39     9        0.000000        0.913777         3    ;  uncertainty k = 0.160624
        21        19        18        39     9      180.000000        1.192128         4    ;  uncertainty k = 0.225004
        21        19        20        40     9        0.000000        0.094404         1    ;  uncertainty k = 0.354636
        21        19        20        40     9      180.000000        8.346280         2    ;  uncertainty k = 0.353875
        21        19        20        40     9        0.000000        0.942527         3    ;  uncertainty k = 0.177744
        21        19        20        40     9      180.000000        1.265248         4    ;  uncertainty k = 0.210858
        21        23        24        41     9        0.000000        0.072682         1    ;  uncertainty k = 0.169749
        21        23        24        41     9      180.000000       -0.211072         2    ;  uncertainty k = 0.157871
        21        23        24        41     9        0.000000        0.353046         3    ;  uncertainty k = 0.068584
        21        23        24        41     9      180.000000        0.290209         4    ;  uncertainty k = 0.036498
        21        23        24        42     9        0.000000        0.072682         1    ;  uncertainty k = 0.169749
        21        23        24        42     9      180.000000       -0.211072         2    ;  uncertainty k = 0.157871
        21        23        24        42     9        0.000000        0.353046         3    ;  uncertainty k = 0.068584
        21        23        24        42     9      180.000000        0.290209         4    ;  uncertainty k = 0.036498
        21        23        24        43     9        0.000000        0.072682         1    ;  uncertainty k = 0.169749
        21        23        24        43     9      180.000000       -0.211072         2    ;  uncertainty k = 0.157871
        21        23        24        43     9        0.000000        0.353046         3    ;  uncertainty k = 0.068584
        21        23        24        43     9      180.000000        0.290209         4    ;  uncertainty k = 0.036498
        21        23        25        44     9        0.000000        0.072682         1    ;  uncertainty k = 0.169749
        21        23        25        44     9      180.000000       -0.211072         2    ;  uncertainty k = 0.157871
        21        23        25        44     9        0.000000        0.353046         3    ;  uncertainty k = 0.068584
        21        23        25        44     9      180.000000        0.290209         4    ;  uncertainty k = 0.036498
        21        23        25        45     9        0.000000        0.072682         1    ;  uncertainty k = 0.169749
        21        23        25        45     9      180.000000       -0.211072         2    ;  uncertainty k = 0.157871
        21        23        25        45     9        0.000000        0.353046         3    ;  uncertainty k = 0.068584
        21        23        25        45     9      180.000000        0.290209         4    ;  uncertainty k = 0.036498
        21        23        25        46     9        0.000000        0.072682         1    ;  uncertainty k = 0.169749
        21        23        25        46     9      180.000000       -0.211072         2    ;  uncertainty k = 0.157871
        21        23        25        46     9        0.000000        0.353046         3    ;  uncertainty k = 0.068584
        21        23        25        46     9      180.000000        0.290209         4    ;  uncertainty k = 0.036498
        22        21        23        24     9        0.000000        4.553609         1    ;  uncertainty k = 1.061986
        22        21        23        24     9      180.000000       14.829660         2    ;  uncertainty k = 0.163869
        22        21        23        24     9        0.000000        0.403201         3    ;  uncertainty k = 0.315054
        22        21        23        24     9      180.000000       -0.277135         4    ;  uncertainty k = 0.228506
        22        21        23        25     9        0.000000        4.553609         1    ;  uncertainty k = 1.061986
        22        21        23        25     9      180.000000       14.829660         2    ;  uncertainty k = 0.163869
        22        21        23        25     9        0.000000        0.403201         3    ;  uncertainty k = 0.315054
        22        21        23        25     9      180.000000       -0.277135         4    ;  uncertainty k = 0.228506
        24        23        25        44     9        0.000000       -0.705221         1    ;  uncertainty k = 0.364394
        24        23        25        44     9      180.000000       -1.189189         2    ;  uncertainty k = 0.226350
        24        23        25        44     9        0.000000        1.357956         3    ;  uncertainty k = 0.055767
        24        23        25        44     9      180.000000        0.153889         4    ;  uncertainty k = 0.040275
        24        23        25        45     9        0.000000       -0.705221         1    ;  uncertainty k = 0.364394
        24        23        25        45     9      180.000000       -1.189189         2    ;  uncertainty k = 0.226350
        24        23        25        45     9        0.000000        1.357956         3    ;  uncertainty k = 0.055767
        24        23        25        45     9      180.000000        0.153889         4    ;  uncertainty k = 0.040275
        24        23        25        46     9        0.000000       -0.705221         1    ;  uncertainty k = 0.364394
        24        23        25        46     9      180.000000       -1.189189         2    ;  uncertainty k = 0.226350
        24        23        25        46     9        0.000000        1.357956         3    ;  uncertainty k = 0.055767
        24        23        25        46     9      180.000000        0.153889         4    ;  uncertainty k = 0.040275
        25        23        24        41     9        0.000000       -0.705221         1    ;  uncertainty k = 0.364394
        25        23        24        41     9      180.000000       -1.189189         2    ;  uncertainty k = 0.226350
        25        23        24        41     9        0.000000        1.357956         3    ;  uncertainty k = 0.055767
        25        23        24        41     9      180.000000        0.153889         4    ;  uncertainty k = 0.040275
        25        23        24        42     9        0.000000       -0.705221         1    ;  uncertainty k = 0.364394
        25        23        24        42     9      180.000000       -1.189189         2    ;  uncertainty k = 0.226350
        25        23        24        42     9        0.000000        1.357956         3    ;  uncertainty k = 0.055767
        25        23        24        42     9      180.000000        0.153889         4    ;  uncertainty k = 0.040275
        25        23        24        43     9        0.000000       -0.705221         1    ;  uncertainty k = 0.364394
        25        23        24        43     9      180.000000       -1.189189         2    ;  uncertainty k = 0.226350
        25        23        24        43     9        0.000000        1.357956         3    ;  uncertainty k = 0.055767
        25        23        24        43     9      180.000000        0.153889         4    ;  uncertainty k = 0.040275
        26         1         9        31     9        0.000000        0.170184         1    ;  uncertainty k = 0.341492
        26         1         9        31     9      180.000000       -0.347039         2    ;  uncertainty k = 0.146630
        26         1         9        31     9        0.000000        0.209106         3    ;  uncertainty k = 0.072402
        26         1         9        31     9      180.000000        0.072740         4    ;  uncertainty k = 0.053922
        26         1         9        32     9        0.000000        0.170184         1    ;  uncertainty k = 0.341492
        26         1         9        32     9      180.000000       -0.347039         2    ;  uncertainty k = 0.146630
        26         1         9        32     9        0.000000        0.209106         3    ;  uncertainty k = 0.072402
        26         1         9        32     9      180.000000        0.072740         4    ;  uncertainty k = 0.053922
        27         1         9        31     9        0.000000        0.170184         1    ;  uncertainty k = 0.341492
        27         1         9        31     9      180.000000       -0.347039         2    ;  uncertainty k = 0.146630
        27         1         9        31     9        0.000000        0.209106         3    ;  uncertainty k = 0.072402
        27         1         9        31     9      180.000000        0.072740         4    ;  uncertainty k = 0.053922
        27         1         9        32     9        0.000000        0.170184         1    ;  uncertainty k = 0.341492
        27         1         9        32     9      180.000000       -0.347039         2    ;  uncertainty k = 0.146630
        27         1         9        32     9        0.000000        0.209106         3    ;  uncertainty k = 0.072402
        27         1         9        32     9      180.000000        0.072740         4    ;  uncertainty k = 0.053922
        29         6         7        30     9        0.000000       -0.037735         1    ;  uncertainty k = 0.492713
        29         6         7        30     9      180.000000        5.853962         2    ;  uncertainty k = 0.726773
        29         6         7        30     9        0.000000        1.193179         3    ;  uncertainty k = 0.391011
        29         6         7        30     9      180.000000        0.332928         4    ;  uncertainty k = 0.074316
        30         7        13        36     9        0.000000       -0.321083         1    ;  uncertainty k = 1.032454
        30         7        13        36     9      180.000000        1.939239         2    ;  uncertainty k = 0.369095
        30         7        13        36     9        0.000000        1.097248         3    ;  uncertainty k = 0.356460
        30         7        13        36     9      180.000000        0.095305         4    ;  uncertainty k = 0.136884
        37        16        17        38     9        0.000000       -0.166562         1    ;  uncertainty k = 0.119843
        37        16        17        38     9      180.000000        7.933616         2    ;  uncertainty k = 0.280848
        37        16        17        38     9        0.000000       -0.483141         3    ;  uncertainty k = 0.260612
        37        16        17        38     9      180.000000        0.115647         4    ;  uncertainty k = 0.142176
        38        17        18        39     9        0.000000       -0.172915         1    ;  uncertainty k = 0.282059
        38        17        18        39     9      180.000000        7.808710         2    ;  uncertainty k = 0.367899
        38        17        18        39     9        0.000000       -0.388379         3    ;  uncertainty k = 0.220535
        38        17        18        39     9      180.000000        0.134717         4    ;  uncertainty k = 0.122160

[ dihedrals ] ; impropers
;       ai        aj        ak        al funct           phase               k        pn
         2         8        12        14     4      180.000000       45.186808         2    ;  uncertainty k = 0.046268
         2        12        14         8     4      180.000000       45.186808         2    ;  uncertainty k = 0.046268
         2        14         8        12     4      180.000000       45.186808         2    ;  uncertainty k = 0.046268
         3         4        12        28     4      180.000000        6.570333         2    ;  uncertainty k = 0.290853
         3        12        28         4     4      180.000000        6.570333         2    ;  uncertainty k = 0.290853
         3        28         4        12     4      180.000000        6.570333         2    ;  uncertainty k = 0.290853
         4         3         5        15     4      180.000000        8.864504         2    ;  uncertainty k = 0.208138
         4         5        15         3     4      180.000000        8.864504         2    ;  uncertainty k = 0.208138
         4        15         3         5     4      180.000000        8.864504         2    ;  uncertainty k = 0.208138
         5         4         6         8     4      180.000000        1.675382         2    ;  uncertainty k = 0.932715
         5         6         8         4     4      180.000000        1.675382         2    ;  uncertainty k = 0.932715
         5         8         4         6     4      180.000000        1.675382         2    ;  uncertainty k = 0.932715
         7         6        13        30     4      180.000000        1.479202         2    ;  uncertainty k = 0.580043
         7        13        30         6     4      180.000000        1.479202         2    ;  uncertainty k = 0.580043
         7        30         6        13     4      180.000000        1.479202         2    ;  uncertainty k = 0.580043
         8         2         5        13     4      180.000000        0.157062         2    ;  uncertainty k = 0.351202
         8         5        13         2     4      180.000000        0.157062         2    ;  uncertainty k = 0.351202
         8        13         2         5     4      180.000000        0.157062         2    ;  uncertainty k = 0.351202
        12         1         2         3     4      180.000000        1.946221         2    ;  uncertainty k = 0.685335
        12         2         3         1     4      180.000000        1.946221         2    ;  uncertainty k = 0.685335
        12         3         1         2     4      180.000000        1.946221         2    ;  uncertainty k = 0.685335
        15         4        16        20     4      180.000000       15.080325         2    ;  uncertainty k = 0.031430
        15        16        20         4     4      180.000000       15.080325         2    ;  uncertainty k = 0.031430
        15        20         4        16     4      180.000000       15.080325         2    ;  uncertainty k = 0.031430
        16        15        17        37     4      180.000000        4.110861         2    ;  uncertainty k = 0.132903
        16        17        37        15     4      180.000000        4.110861         2    ;  uncertainty k = 0.132903
        16        37        15        17     4      180.000000        4.110861         2    ;  uncertainty k = 0.132903
        17        16        18        38     4      180.000000        3.712223         2    ;  uncertainty k = 0.086897
        17        18        38        16     4      180.000000        3.712223         2    ;  uncertainty k = 0.086897
        17        38        16        18     4      180.000000        3.712223         2    ;  uncertainty k = 0.086897
        18        17        19        39     4      180.000000        4.150328         2    ;  uncertainty k = 0.141673
        18        19        39        17     4      180.000000        4.150328         2    ;  uncertainty k = 0.141673
        18        39        17        19     4      180.000000        4.150328         2    ;  uncertainty k = 0.141673
        19        18        20        21     4      180.000000        9.566044         2    ;  uncertainty k = 0.195607
        19        20        21        18     4      180.000000        9.566044         2    ;  uncertainty k = 0.195607
        19        21        18        20     4      180.000000        9.566044         2    ;  uncertainty k = 0.195607
        20        15        19        40     4      180.000000        4.319218         2    ;  uncertainty k = 0.182278
        20        19        40        15     4      180.000000        4.319218         2    ;  uncertainty k = 0.182278
        20        40        15        19     4      180.000000        4.319218         2    ;  uncertainty k = 0.182278
        21        19        22        23     4      180.000000       50.810772         2    ;  uncertainty k = 0.036615
        21        22        23        19     4      180.000000       50.810772         2    ;  uncertainty k = 0.036615
        21        23        19        22     4      180.000000       50.810772         2    ;  uncertainty k = 0.036615

[ pairs ]
;       ai        aj funct
         1         4     1
         1         8     1
         1        10     1
         1        14     1
         1        28     1
         2         4     1
         2         6     1
         2         7     1
         2         9     1
         2        26     1
         2        27     1
         2        28     1
         2        36     1
         3         6     1
         3         8     1
         3         9     1
         3        14     1
         3        16     1
         3        20     1
         3        26     1
         3        27     1
         4         7     1
         4        13     1
         4        17     1
         4        19     1
         4        29     1
         4        37     1
         4        40     1
         5        12     1
         5        14     1
         5        16     1
         5        20     1
         5        28     1
         5        30     1
         5        36     1
         6        15     1
         6        36     1
         8        15     1
         8        29     1
         8        30     1
         9        33     1
         9        34     1
         9        35     1
        10        31     1
        10        32     1
        11        12     1
        11        26     1
        11        27     1
        12        13     1
        12        15     1
        12        31     1
        12        32     1
        13        14     1
        13        29     1
        15        18     1
        15        21     1
        15        28     1
        15        38     1
        16        19     1
        16        39     1
        16        40     1
        17        20     1
        17        21     1
        18        22     1
        18        23     1
        18        37     1
        18        40     1
        19        24     1
        19        25     1
        19        38     1
        20        22     1
        20        23     1
        20        37     1
        20        39     1
        21        39     1
        21        40     1
        21        41     1
        21        42     1
        21        43     1
        21        44     1
        21        45     1
        21        46     1
        22        24     1
        22        25     1
        24        44     1
        24        45     1
        24        46     1
        25        41     1
        25        42     1
        25        43     1
        26        31     1
        26        32     1
        27        31     1
        27        32     1
        29        30     1
        30        36     1
        37        38     1
        38        39     1
