Generated by PDBParser (exclude clash < 1.000 A)
525
    1SOL     OW    1  -2.709  -0.405   4.323
    1SOL    HW1    2  -2.744  -0.318   4.282
    1SOL    HW2    3  -2.663  -0.456   4.251
    2SOL     OW    4   0.251  -2.289  -0.458
    2SOL    HW1    5   0.296  -2.226  -0.393
    2SOL    HW2    6   0.319  -2.318  -0.525
    3SOL     OW    7  -1.557  -1.832   2.717
    3SOL    HW1    8  -1.639  -1.836   2.661
    3SOL    HW2    9  -1.510  -1.923   2.710
    4SOL     OW   10  -2.582  -1.622   2.611
    4SOL    HW1   11  -2.547  -1.554   2.545
    4SOL    HW2   12  -2.546  -1.712   2.587
    5SOL     OW   13  -1.835  -1.153   0.867
    5SOL    HW1   14  -1.888  -1.214   0.807
    5SOL    HW2   15  -1.742  -1.141   0.827
    6SOL     OW   16   0.302  -0.394  -1.002
    6SOL    HW1   17   0.393  -0.436  -0.998
    6SOL    HW2   18   0.267  -0.400  -1.096
    7SOL     OW   19  -2.713  -0.694   2.749
    7SOL    HW1   20  -2.669  -0.614   2.794
    7SOL    HW2   21  -2.780  -0.730   2.814
    8SOL     OW   22   0.369  -1.942  -0.701
    8SOL    HW1   23   0.285  -1.938  -0.644
    8SOL    HW2   24   0.438  -1.996  -0.653
    9SOL     OW   25  -0.727  -0.342   0.499
    9SOL    HW1   26  -0.663  -0.408   0.457
    9SOL    HW2   27  -0.818  -0.355   0.459
   10SOL     OW   28  -1.709  -3.189   1.164
   10SOL    HW1   29  -1.723  -3.091   1.142
   10SOL    HW2   30  -1.744  -3.206   1.256
   11SOL     OW   31  -2.941  -0.317   4.031
   11SOL    HW1   32  -2.878  -0.280   4.102
   11SOL    HW2   33  -2.906  -0.294   3.940
   12SOL     OW   34  -1.080  -2.343   2.631
   12SOL    HW1   35  -1.164  -2.288   2.643
   12SOL    HW2   36  -1.015  -2.318   2.704
   13SOL     OW   37  -1.303  -3.245   1.195
   13SOL    HW1   38  -1.376  -3.284   1.139
   13SOL    HW2   39  -1.272  -3.159   1.153
   14SOL     OW   40  -1.863  -1.336   0.581
   14SOL    HW1   41  -1.919  -1.366   0.660
   14SOL    HW2   42  -1.768  -1.317   0.612
   15SOL     OW   43   0.558  -1.055   0.169
   15SOL    HW1   44   0.532  -0.971   0.122
   15SOL    HW2   45   0.555  -1.132   0.104
   16SOL     OW   46  -0.467   0.160  -0.052
   16SOL    HW1   47  -0.487   0.067  -0.085
   16SOL    HW2   48  -0.457   0.220  -0.132
   17SOL     OW   49  -0.146  -0.551   0.397
   17SOL    HW1   50  -0.096  -0.618   0.455
   17SOL    HW2   51  -0.231  -0.527   0.442
   18SOL     OW   52   0.491  -2.635   0.821
   18SOL    HW1   53   0.396  -2.603   0.811
   18SOL    HW2   54   0.517  -2.627   0.918
   19SOL     OW   55   0.857   0.226   0.175
   19SOL    HW1   56   0.852   0.138   0.126
   19SOL    HW2   57   0.786   0.226   0.246
   20SOL     OW   58  -1.336  -1.847  -0.076
   20SOL    HW1   59  -1.303  -1.759  -0.039
   20SOL    HW2   60  -1.410  -1.829  -0.141
   21SOL     OW   61  -0.881  -1.915  -0.798
   21SOL    HW1   62  -0.785  -1.942  -0.816
   21SOL    HW2   63  -0.899  -1.923  -0.699
   22SOL     OW   64   0.076  -0.933  -1.159
   22SOL    HW1   65   0.035  -0.928  -1.067
   22SOL    HW2   66   0.059  -0.846  -1.207
   23SOL     OW   67  -1.999  -1.752   1.607
   23SOL    HW1   68  -1.969  -1.664   1.648
   23SOL    HW2   69  -1.919  -1.799   1.567
   24SOL     OW   70  -0.048  -1.413   1.623
   24SOL    HW1   71  -0.044  -1.495   1.564
   24SOL    HW2   72  -0.108  -1.344   1.582
   25SOL     OW   73  -2.516  -0.188   2.609
   25SOL    HW1   74  -2.543  -0.276   2.651
   25SOL    HW2   75  -2.501  -0.122   2.683
   26SOL     OW   76  -0.925  -0.892  -1.210
   26SOL    HW1   77  -0.980  -0.812  -1.181
   26SOL    HW2   78  -0.854  -0.910  -1.141
   27SOL     OW   79   0.202  -2.019   1.537
   27SOL    HW1   80   0.155  -1.932   1.560
   27SOL    HW2   81   0.146  -2.096   1.570
   28SOL     OW   82  -2.425  -1.154   3.353
   28SOL    HW1   83  -2.354  -1.101   3.306
   28SOL    HW2   84  -2.441  -1.115   3.445
   29SOL     OW   85  -1.837  -1.342   3.123
   29SOL    HW1   86  -1.853  -1.438   3.151
   29SOL    HW2   87  -1.878  -1.326   3.033
   30SOL     OW   88  -0.632  -1.926  -1.151
   30SOL    HW1   89  -0.641  -1.827  -1.131
   30SOL    HW2   90  -0.699  -1.948  -1.224
   31SOL     OW   91   0.040  -2.308  -0.827
   31SOL    HW1   92   0.084  -2.219  -0.844
   31SOL    HW2   93   0.058  -2.336  -0.733
   32SOL     OW   94  -1.819  -1.230   1.106
   32SOL    HW1   95  -1.813  -1.188   1.014
   32SOL    HW2   96  -1.889  -1.302   1.102
   33SOL     OW   97  -0.964  -0.620   0.788
   33SOL    HW1   98  -0.967  -0.718   0.762
   33SOL    HW2   99  -0.987  -0.565   0.708
   34SOL     OW  100  -0.951  -3.134   0.667
   34SOL    HW1  101  -0.927  -3.039   0.691
   34SOL    HW2  102  -0.876  -3.195   0.694
   35SOL     OW  103  -0.407  -2.913   0.669
   35SOL    HW1  104  -0.455  -2.980   0.729
   35SOL    HW2  105  -0.436  -2.821   0.695
   36SOL     OW  106   0.453   0.377  -1.098
   36SOL    HW1  107   0.373   0.323  -1.067
   36SOL    HW2  108   0.496   0.327  -1.174
   37SOL     OW  109  -2.027  -0.068   3.433
   37SOL    HW1  110  -2.103  -0.130   3.410
   37SOL    HW2  111  -1.974  -0.107   3.508
   38SOL     OW  112  -0.913  -0.230  -0.435
   38SOL    HW1  113  -0.846  -0.198  -0.503
   38SOL    HW2  114  -0.996  -0.174  -0.445
   39SOL     OW  115   0.746   0.340  -0.545
   39SOL    HW1  116   0.725   0.249  -0.509
   39SOL    HW2  117   0.770   0.332  -0.642
   40SOL     OW  118   0.585  -2.009   0.943
   40SOL    HW1  119   0.514  -2.078   0.927
   40SOL    HW2  120   0.665  -2.029   0.887
   41SOL     OW  121  -1.276  -1.875   2.874
   41SOL    HW1  122  -1.258  -1.959   2.824
   41SOL    HW2  123  -1.369  -1.882   2.909
   42SOL     OW  124  -0.217  -0.637   0.037
   42SOL    HW1  125  -0.138  -0.591   0.079
   42SOL    HW2  126  -0.205  -0.638  -0.063
   43SOL     OW  127  -1.217  -1.897  -0.549
   43SOL    HW1  128  -1.120  -1.919  -0.567
   43SOL    HW2  129  -1.241  -1.932  -0.459
   44SOL     OW  130   0.114  -1.195  -1.262
   44SOL    HW1  131   0.101  -1.102  -1.225
   44SOL    HW2  132   0.204  -1.228  -1.234
   45SOL     OW  133   0.774  -2.442  -0.569
   45SOL    HW1  134   0.741  -2.346  -0.557
   45SOL    HW2  135   0.819  -2.448  -0.658
   46SOL     OW  136  -1.051  -0.687  -0.288
   46SOL    HW1  137  -1.113  -0.718  -0.214
   46SOL    HW2  138  -0.958  -0.675  -0.250
   47SOL     OW  139  -2.182  -2.149   2.583
   47SOL    HW1  140  -2.098  -2.194   2.547
   47SOL    HW2  141  -2.182  -2.158   2.682
   48SOL     OW  142   0.677  -0.548   0.441
   48SOL    HW1  143   0.734  -0.632   0.445
   48SOL    HW2  144   0.597  -0.566   0.384
   49SOL     OW  145  -1.484  -1.167   1.535
   49SOL    HW1  146  -1.460  -1.198   1.442
   49SOL    HW2  147  -1.515  -1.072   1.531
   50SOL     OW  148  -1.381  -1.082   0.270
   50SOL    HW1  149  -1.302  -1.095   0.331
   50SOL    HW2  150  -1.464  -1.113   0.318
   51SOL     OW  151   0.926  -1.373   0.591
   51SOL    HW1  152   0.916  -1.390   0.492
   51SOL    HW2  153   0.859  -1.302   0.617
   52SOL     OW  154  -2.481  -1.034   3.605
   52SOL    HW1  155  -2.402  -0.994   3.656
   52SOL    HW2  156  -2.552  -0.964   3.598
   53SOL     OW  157  -0.431  -2.285  -0.677
   53SOL    HW1  158  -0.382  -2.204  -0.642
   53SOL    HW2  159  -0.406  -2.364  -0.621
   54SOL     OW  160  -0.919  -1.714  -0.996
   54SOL    HW1  161  -0.904  -1.791  -0.931
   54SOL    HW2  162  -0.851  -1.720  -1.069
   55SOL     OW  163  -1.902  -2.835   1.887
   55SOL    HW1  164  -1.804  -2.819   1.874
   55SOL    HW2  165  -1.916  -2.933   1.902
   56SOL     OW  166  -1.947  -2.130   1.438
   56SOL    HW1  167  -1.908  -2.039   1.456
   56SOL    HW2  168  -1.987  -2.131   1.345
   57SOL     OW  169   1.251   0.144  -0.461
   57SOL    HW1  170   1.179   0.076  -0.478
   57SOL    HW2  171   1.320   0.137  -0.534
   58SOL     OW  172  -1.868  -0.823   2.692
   58SOL    HW1  173  -1.875  -0.773   2.605
   58SOL    HW2  174  -1.946  -0.887   2.700
   59SOL     OW  175  -0.420  -0.873  -0.003
   59SOL    HW1  176  -0.381  -0.935  -0.072
   59SOL    HW2  177  -0.348  -0.849   0.064
   60SOL     OW  178  -1.847  -0.725   3.304
   60SOL    HW1  179  -1.846  -0.650   3.373
   60SOL    HW2  180  -1.940  -0.731   3.265
   61SOL     OW  181   0.340  -1.352   0.820
   61SOL    HW1  182   0.325  -1.444   0.782
   61SOL    HW2  183   0.339  -1.284   0.745
   62SOL     OW  184   1.042  -0.513  -0.673
   62SOL    HW1  185   1.069  -0.566  -0.593
   62SOL    HW2  186   0.956  -0.465  -0.655
   63SOL     OW  187  -1.300  -0.790   1.778
   63SOL    HW1  188  -1.262  -0.872   1.734
   63SOL    HW2  189  -1.372  -0.820   1.841
   64SOL     OW  190  -0.338  -1.035  -0.202
   64SOL    HW1  191  -0.422  -1.088  -0.220
   64SOL    HW2  192  -0.311  -0.985  -0.285
   65SOL     OW  193  -2.453  -1.537   2.848
   65SOL    HW1  194  -2.365  -1.506   2.811
   65SOL    HW2  195  -2.523  -1.529   2.776
   66SOL     OW  196  -1.781  -1.612   1.932
   66SOL    HW1  197  -1.698  -1.626   1.876
   66SOL    HW2  198  -1.803  -1.699   1.978
   67SOL     OW  199   0.429  -0.842   0.026
   67SOL    HW1  200   0.374  -0.919  -0.010
   67SOL    HW2  201   0.385  -0.809   0.111
   68SOL     OW  202  -1.152  -0.940  -0.652
   68SOL    HW1  203  -1.207  -1.022  -0.632
   68SOL    HW2  204  -1.056  -0.959  -0.627
   69SOL     OW  205   0.077  -2.603   0.370
   69SOL    HW1  206   0.068  -2.503   0.383
   69SOL    HW2  207   0.084  -2.622   0.271
   70SOL     OW  208   0.559  -0.941  -1.049
   70SOL    HW1  209   0.538  -0.998  -0.968
   70SOL    HW2  210   0.657  -0.923  -1.052
   71SOL     OW  211  -0.893  -0.379  -0.199
   71SOL    HW1  212  -0.857  -0.473  -0.201
   71SOL    HW2  213  -0.901  -0.344  -0.294
   72SOL     OW  214  -0.712  -0.579   0.989
   72SOL    HW1  215  -0.766  -0.598   0.906
   72SOL    HW2  216  -0.663  -0.493   0.977
   73SOL     OW  217  -1.377  -2.536   1.089
   73SOL    HW1  218  -1.297  -2.594   1.109
   73SOL    HW2  219  -1.442  -2.588   1.033
   74SOL     OW  220   0.866  -1.412   0.336
   74SOL    HW1  221   0.937  -1.467   0.290
   74SOL    HW2  222   0.787  -1.472   0.357
   75SOL     OW  223  -0.253  -0.885  -0.415
   75SOL    HW1  224  -0.162  -0.906  -0.453
   75SOL    HW2  225  -0.304  -0.830  -0.482
   76SOL     OW  226  -2.859  -0.223   3.812
   76SOL    HW1  227  -2.761  -0.240   3.792
   76SOL    HW2  228  -2.867  -0.137   3.863
   77SOL     OW  229  -2.023  -1.674   1.199
   77SOL    HW1  230  -2.033  -1.623   1.111
   77SOL    HW2  231  -2.018  -1.606   1.274
   78SOL     OW  232  -1.286  -0.956   0.989
   78SOL    HW1  233  -1.251  -1.048   0.966
   78SOL    HW2  234  -1.370  -0.941   0.936
   79SOL     OW  235  -0.024  -0.484   0.167
   79SOL    HW1  236  -0.069  -0.514   0.253
   79SOL    HW2  237  -0.003  -0.386   0.174
   80SOL     OW  238  -0.232  -2.604   1.222
   80SOL    HW1  239  -0.293  -2.576   1.298
   80SOL    HW2  240  -0.163  -2.533   1.208
   81SOL     OW  241  -1.878  -1.920   2.842
   81SOL    HW1  242  -1.859  -1.886   2.749
   81SOL    HW2  243  -1.796  -1.966   2.877
   82SOL     OW  244  -2.598  -0.940   2.723
   82SOL    HW1  245  -2.627  -0.843   2.729
   82SOL    HW2  246  -2.526  -0.957   2.791
   83SOL     OW  247  -2.211  -0.840   4.079
   83SOL    HW1  248  -2.210  -0.846   3.978
   83SOL    HW2  249  -2.164  -0.755   4.103
   84SOL     OW  250  -1.414  -0.787  -0.343
   84SOL    HW1  251  -1.357  -0.782  -0.259
   84SOL    HW2  252  -1.501  -0.832  -0.320
   85SOL     OW  253  -1.315  -1.448  -0.214
   85SOL    HW1  254  -1.331  -1.357  -0.173
   85SOL    HW2  255  -1.297  -1.514  -0.140
   86SOL     OW  256   0.106  -1.572  -1.407
   86SOL    HW1  257   0.060  -1.502  -1.465
   86SOL    HW2  258   0.104  -1.661  -1.455
   87SOL     OW  259  -0.558  -1.328  -1.519
   87SOL    HW1  260  -0.489  -1.262  -1.548
   87SOL    HW2  261  -0.608  -1.362  -1.599
   88SOL     OW  262  -0.290  -1.804   2.203
   88SOL    HW1  263  -0.380  -1.849   2.208
   88SOL    HW2  264  -0.258  -1.786   2.296
   89SOL     OW  265  -0.773  -2.828   1.932
   89SOL    HW1  266  -0.754  -2.921   1.901
   89SOL    HW2  267  -0.707  -2.802   2.002
   90SOL     OW  268  -2.120   0.396   3.579
   90SOL    HW1  269  -2.137   0.318   3.517
   90SOL    HW2  270  -2.173   0.383   3.663
   91SOL     OW  271  -0.677  -0.455   1.347
   91SOL    HW1  272  -0.634  -0.539   1.313
   91SOL    HW2  273  -0.776  -0.469   1.353
   92SOL     OW  274   0.665  -2.071   0.185
   92SOL    HW1  275   0.651  -2.156   0.134
   92SOL    HW2  276   0.596  -2.064   0.258
   93SOL     OW  277  -0.838  -1.388   1.734
   93SOL    HW1  278  -0.779  -1.436   1.800
   93SOL    HW2  279  -0.934  -1.409   1.755
   94SOL     OW  280  -0.651  -2.449   2.134
   94SOL    HW1  281  -0.678  -2.358   2.100
   94SOL    HW2  282  -0.681  -2.459   2.229
   95SOL     OW  283  -1.574  -1.376   2.577
   95SOL    HW1  284  -1.583  -1.315   2.658
   95SOL    HW2  285  -1.657  -1.433   2.569
   96SOL     OW  286   0.387  -0.126  -0.974
   96SOL    HW1  287   0.344  -0.216  -0.988
   96SOL    HW2  288   0.353  -0.062  -1.044
   97SOL     OW  289  -1.794  -1.850   1.225
   97SOL    HW1  290  -1.875  -1.793   1.205
   97SOL    HW2  291  -1.796  -1.877   1.322
   98SOL     OW  292  -1.236  -3.047   1.666
   98SOL    HW1  293  -1.226  -3.121   1.732
   98SOL    HW2  294  -1.266  -3.085   1.578
   99SOL     OW  295  -1.789  -2.576   0.971
   99SOL    HW1  296  -1.766  -2.618   1.060
   99SOL    HW2  297  -1.819  -2.649   0.910
  100SOL     OW  298  -0.389  -2.501   1.429
  100SOL    HW1  299  -0.432  -2.411   1.440
  100SOL    HW2  300  -0.446  -2.571   1.472
  101SOL     OW  301   0.426   0.092   0.142
  101SOL    HW1  302   0.411  -0.002   0.174
  101SOL    HW2  303   0.344   0.146   0.161
  102SOL     OW  304  -2.060  -2.676   1.993
  102SOL    HW1  305  -2.039  -2.683   2.091
  102SOL    HW2  306  -1.997  -2.739   1.943
  103SOL     OW  307  -1.380  -3.168   1.446
  103SOL    HW1  308  -1.421  -3.249   1.489
  103SOL    HW2  309  -1.343  -3.195   1.355
  104SOL     OW  310  -1.216  -2.272  -0.202
  104SOL    HW1  311  -1.268  -2.356  -0.216
  104SOL    HW2  312  -1.119  -2.295  -0.193
  105SOL     OW  313   0.755  -1.870  -0.002
  105SOL    HW1  314   0.717  -1.927   0.073
  105SOL    HW2  315   0.829  -1.922  -0.046
  106SOL     OW  316   0.857  -2.187  -0.075
  106SOL    HW1  317   0.862  -2.286  -0.056
  106SOL    HW2  318   0.897  -2.170  -0.166
  107SOL     OW  319  -1.162  -1.614   2.688
  107SOL    HW1  320  -1.163  -1.541   2.756
  107SOL    HW2  321  -1.214  -1.692   2.726
  108SOL     OW  322  -1.825  -1.348   2.052
  108SOL    HW1  323  -1.817  -1.436   2.004
  108SOL    HW2  324  -1.748  -1.338   2.114
  109SOL     OW  325  -2.346  -1.874   2.245
  109SOL    HW1  326  -2.268  -1.880   2.307
  109SOL    HW2  327  -2.315  -1.853   2.152
  110SOL     OW  328  -1.207  -2.002  -0.255
  110SOL    HW1  329  -1.247  -1.946  -0.181
  110SOL    HW2  330  -1.223  -2.099  -0.234
  111SOL     OW  331   0.854  -0.297  -0.923
  111SOL    HW1  332   0.839  -0.331  -0.830
  111SOL    HW2  333   0.952  -0.280  -0.937
  112SOL     OW  334   0.899  -0.390   0.365
  112SOL    HW1  335   0.966  -0.451   0.407
  112SOL    HW2  336   0.807  -0.424   0.388
  113SOL     OW  337  -2.064  -2.199   1.686
  113SOL    HW1  338  -1.989  -2.225   1.747
  113SOL    HW2  339  -2.026  -2.176   1.595
  114SOL     OW  340  -0.873  -1.654   2.705
  114SOL    HW1  341  -0.867  -1.679   2.802
  114SOL    HW2  342  -0.970  -1.638   2.683
  115SOL     OW  343  -1.863  -0.538   3.470
  115SOL    HW1  344  -1.841  -0.450   3.512
  115SOL    HW2  345  -1.903  -0.595   3.544
  116SOL     OW  346   0.967  -2.196  -0.751
  116SOL    HW1  347   1.026  -2.179  -0.672
  116SOL    HW2  348   0.872  -2.183  -0.721
  117SOL     OW  349   0.472  -1.336   1.062
  117SOL    HW1  350   0.524  -1.251   1.064
  117SOL    HW2  351   0.421  -1.342   0.975
  118SOL     OW  352   0.815  -1.179   0.217
  118SOL    HW1  353   0.718  -1.154   0.214
  118SOL    HW2  354   0.826  -1.269   0.261
  119SOL     OW  355   0.237  -2.754   0.552
  119SOL    HW1  356   0.253  -2.684   0.622
  119SOL    HW2  357   0.178  -2.715   0.480
  120SOL     OW  358  -2.868  -1.022   2.860
  120SOL    HW1  359  -2.793  -1.006   2.794
  120SOL    HW2  360  -2.874  -0.942   2.921
  121SOL     OW  361  -2.588  -1.304   2.903
  121SOL    HW1  362  -2.659  -1.249   2.859
  121SOL    HW2  363  -2.599  -1.298   3.003
  122SOL     OW  364   0.366  -2.819   1.148
  122SOL    HW1  365   0.400  -2.733   1.188
  122SOL    HW2  366   0.437  -2.889   1.156
  123SOL     OW  367  -1.936  -1.194   3.335
  123SOL    HW1  368  -1.896  -1.247   3.259
  123SOL    HW2  369  -2.018  -1.240   3.368
  124SOL     OW  370  -1.600  -1.210   2.775
  124SOL    HW1  371  -1.603  -1.111   2.760
  124SOL    HW2  372  -1.586  -1.229   2.873
  125SOL     OW  373   0.962  -0.994   0.394
  125SOL    HW1  374   0.929  -1.052   0.318
  125SOL    HW2  375   0.929  -1.033   0.480
  126SOL     OW  376  -1.866  -0.608   2.866
  126SOL    HW1  377  -1.951  -0.609   2.920
  126SOL    HW2  378  -1.859  -0.694   2.813
  127SOL     OW  379   0.914  -0.775   0.738
  127SOL    HW1  380   0.976  -0.853   0.758
  127SOL    HW2  381   0.828  -0.789   0.787
  128SOL     OW  382  -2.010  -1.483   1.383
  128SOL    HW1  383  -2.020  -1.493   1.482
  128SOL    HW2  384  -2.053  -1.397   1.353
  129SOL     OW  385  -1.184  -1.383  -0.456
  129SOL    HW1  386  -1.222  -1.414  -0.368
  129SOL    HW2  387  -1.182  -1.462  -0.520
  130SOL     OW  388  -2.141  -1.955   1.791
  130SOL    HW1  389  -2.122  -2.045   1.750
  130SOL    HW2  390  -2.098  -1.883   1.734
  131SOL     OW  391   1.075  -1.007   0.774
  131SOL    HW1  392   1.046  -1.080   0.837
  131SOL    HW2  393   1.106  -1.049   0.688
  132SOL     OW  394  -2.031  -2.188   1.166
  132SOL    HW1  395  -1.961  -2.243   1.120
  132SOL    HW2  396  -2.053  -2.108   1.109
  133SOL     OW  397  -0.146  -1.776   1.973
  133SOL    HW1  398  -0.200  -1.784   2.058
  133SOL    HW2  399  -0.090  -1.857   1.961
  134SOL     OW  400  -1.582  -1.276   3.032
  134SOL    HW1  401  -1.514  -1.331   3.081
  134SOL    HW2  402  -1.672  -1.288   3.077
  135SOL     OW  403  -2.900  -1.148   3.108
  135SOL    HW1  404  -2.913  -1.063   3.160
  135SOL    HW2  405  -2.895  -1.125   3.010
  136SOL     OW  406   0.207  -1.313   1.697
  136SOL    HW1  407   0.125  -1.366   1.670
  136SOL    HW2  408   0.178  -1.221   1.725
  137SOL     OW  409   1.010  -1.238   0.919
  137SOL    HW1  410   1.024  -1.292   1.002
  137SOL    HW2  411   0.991  -1.299   0.842
  138SOL     OW  412  -1.692  -0.643   3.094
  138SOL    HW1  413  -1.745  -0.670   3.176
  138SOL    HW2  414  -1.756  -0.619   3.020
  139SOL     OW  415  -0.644  -1.995  -0.884
  139SOL    HW1  416  -0.632  -2.095  -0.872
  139SOL    HW2  417  -0.646  -1.974  -0.983
  140SOL     OW  418  -0.135  -1.512   1.881
  140SOL    HW1  419  -0.099  -1.502   1.788
  140SOL    HW2  420  -0.136  -1.610   1.907
  141SOL     OW  421  -1.323  -1.006   0.023
  141SOL    HW1  422  -1.348  -1.084  -0.036
  141SOL    HW2  423  -1.344  -1.031   0.119
  142SOL     OW  424   0.475  -1.994   1.583
  142SOL    HW1  425   0.376  -1.998   1.566
  142SOL    HW2  426   0.502  -2.069   1.643
  143SOL     OW  427  -1.671  -2.267   0.907
  143SOL    HW1  428  -1.730  -2.217   0.844
  143SOL    HW2  429  -1.708  -2.359   0.922
  144SOL     OW  430  -1.073  -2.101  -0.904
  144SOL    HW1  431  -1.005  -2.034  -0.870
  144SOL    HW2  432  -1.163  -2.058  -0.905
  145SOL     OW  433  -1.955  -1.538   1.727
  145SOL    HW1  434  -2.042  -1.496   1.755
  145SOL    HW2  435  -1.899  -1.557   1.809
  146SOL     OW  436  -1.263  -0.772  -0.119
  146SOL    HW1  437  -1.277  -0.853  -0.060
  146SOL    HW2  438  -1.272  -0.689  -0.061
  147SOL     OW  439  -2.198  -1.433   1.775
  147SOL    HW1  440  -2.242  -1.494   1.842
  147SOL    HW2  441  -2.264  -1.408   1.705
  148SOL     OW  442  -1.218  -0.843  -0.910
  148SOL    HW1  443  -1.192  -0.883  -0.821
  148SOL    HW2  444  -1.251  -0.917  -0.969
  149SOL     OW  445   0.867  -0.749   0.457
  149SOL    HW1  446   0.907  -0.834   0.420
  149SOL    HW2  447   0.882  -0.749   0.557
  150SOL     OW  448   0.101  -2.646   0.106
  150SOL    HW1  449   0.012  -2.642   0.058
  150SOL    HW2  450   0.168  -2.687   0.045
  151SOL     OW  451  -1.412  -1.195  -0.156
  151SOL    HW1  452  -1.403  -1.184  -0.255
  151SOL    HW2  453  -1.507  -1.219  -0.134
  152SOL     OW  454   0.081  -1.813  -1.549
  152SOL    HW1  455   0.162  -1.836  -1.604
  152SOL    HW2  456   0.001  -1.811  -1.608
  153SOL     OW  457   0.968  -0.665  -0.899
  153SOL    HW1  458   1.004  -0.612  -0.821
  153SOL    HW2  459   0.938  -0.602  -0.971
  154SOL     OW  460  -0.030  -1.396  -1.558
  154SOL    HW1  461   0.016  -1.306  -1.548
  154SOL    HW2  462  -0.105  -1.387  -1.624
  155SOL     OW  463  -1.090  -0.708  -1.120
  155SOL    HW1  464  -1.140  -0.751  -1.044
  155SOL    HW2  465  -1.144  -0.632  -1.157
  156SOL     OW  466  -2.317  -1.850   1.971
  156SOL    HW1  467  -2.252  -1.891   1.906
  156SOL    HW2  468  -2.405  -1.836   1.925
  157SOL     OW  469  -2.480  -1.679   3.065
  157SOL    HW1  470  -2.466  -1.631   2.977
  157SOL    HW2  471  -2.530  -1.617   3.126
  158SOL     OW  472   0.510  -2.785   0.467
  158SOL    HW1  473   0.416  -2.789   0.502
  158SOL    HW2  474   0.507  -2.770   0.368
  159SOL     OW  475  -1.623  -0.944   2.725
  159SOL    HW1  476  -1.712  -0.896   2.716
  159SOL    HW2  477  -1.572  -0.902   2.801
  160SOL     OW  478  -1.773  -0.967   3.394
  160SOL    HW1  479  -1.809  -0.875   3.373
  160SOL    HW2  480  -1.845  -1.036   3.382
  161SOL     OW  481  -2.634  -1.264   3.172
  161SOL    HW1  482  -2.576  -1.220   3.242
  161SOL    HW2  483  -2.724  -1.219   3.170
  162SOL     OW  484  -1.870  -1.594   3.203
  162SOL    HW1  485  -1.949  -1.655   3.202
  162SOL    HW2  486  -1.787  -1.649   3.218
  163SOL     OW  487   0.922  -1.925   0.377
  163SOL    HW1  488   0.854  -1.966   0.316
  163SOL    HW2  489   0.986  -1.996   0.408
  164SOL     OW  490  -1.294  -1.168  -0.586
  164SOL    HW1  491  -1.246  -1.242  -0.536
  164SOL    HW2  492  -1.361  -1.210  -0.648
  165SOL     OW  493  -1.210  -1.597  -0.635
  165SOL    HW1  494  -1.219  -1.694  -0.609
  165SOL    HW2  495  -1.186  -1.593  -0.734
  166SOL     OW  496  -0.616  -2.255  -0.859
  166SOL    HW1  497  -0.693  -2.316  -0.839
  166SOL    HW2  498  -0.543  -2.271  -0.790
  167SOL     OW  499  -1.885  -0.657   2.481
  167SOL    HW1  500  -1.977  -0.618   2.473
  167SOL    HW2  501  -1.824  -0.588   2.520
  168SOL     OW  502   0.076  -1.162  -1.525
  168SOL    HW1  503   0.084  -1.065  -1.547
  168SOL    HW2  504   0.090  -1.174  -1.425
  169SOL     OW  505   0.858  -2.462  -0.053
  169SOL    HW1  506   0.832  -2.535   0.010
  169SOL    HW2  507   0.861  -2.499  -0.147
  170SOL     OW  508  -1.272  -0.529   0.007
  170SOL    HW1  509  -1.186  -0.477   0.013
  170SOL    HW2  510  -1.323  -0.517   0.092
  171SOL     OW  511  -1.173  -1.120  -1.241
  171SOL    HW1  512  -1.100  -1.051  -1.248
  171SOL    HW2  513  -1.191  -1.157  -1.332
  172SOL     OW  514   0.692  -2.675   0.634
  172SOL    HW1  515   0.630  -2.652   0.710
  172SOL    HW2  516   0.639  -2.722   0.562
  173SOL     OW  517   0.866  -2.576  -0.315
  173SOL    HW1  518   0.823  -2.519  -0.387
  173SOL    HW2  519   0.923  -2.644  -0.360
  174SOL     OW  520  -1.147  -1.587  -0.899
  174SOL    HW1  521  -1.060  -1.629  -0.929
  174SOL    HW2  522  -1.210  -1.585  -0.977
  175SOL     OW  523  -1.504  -0.833   3.006
  175SOL    HW1  524  -1.508  -0.908   3.073
  175SOL    HW2  525  -1.561  -0.757   3.041
    5.3229    5.3229    5.3229
