Generated by PDBParser
12
    1SOL     OW    1   2.846  -0.917  -1.072
    1SOL    HW1    2   2.788  -0.845  -1.034
    1SOL    HW2    3   2.859  -0.989  -1.003
    2SOL     OW    4   2.615   0.350  -0.956
    2SOL    HW1    5   2.518   0.326  -0.961
    2SOL    HW2    6   2.668   0.288  -1.014
    3SOL     OW    7   1.643  -0.658  -2.162
    3SOL    HW1    8   1.593  -0.722  -2.104
    3SOL    HW2    9   1.588  -0.635  -2.242
    4SOL     OW   10   1.471   1.057  -0.407
    4SOL    HW1   11   1.413   0.983  -0.441
    4SOL    HW2   12   1.430   1.145  -0.431
    3.8585    3.8585    3.8585
