; ITP file created by ByteFF-ML, 2025-12-06 03:33:40.445617

[ atomtypes ]
;name           bonded.type        at.num        mass        charge   ptype           sigma         epsilon
 c0bf                                   6      0.0000       0.00000       A     3.31603e-01     4.14838e-01
 c1bf                                   6      0.0000       0.00000       A     3.31442e-01     4.13364e-01
 c2bf                                   6      0.0000       0.00000       A     3.31476e-01     4.13615e-01
 c3bf                                   6      0.0000       0.00000       A     3.31516e-01     4.13122e-01
 c4bf                                   6      0.0000       0.00000       A     3.31540e-01     4.13149e-01
 n5bf                                   7      0.0000       0.00000       A     3.38331e-01     3.95501e-01
 c6bf                                   6      0.0000       0.00000       A     3.31371e-01     4.12833e-01
 n7bf                                   7      0.0000       0.00000       A     3.38247e-01     3.92764e-01
 n8bf                                   7      0.0000       0.00000       A     3.20483e-01     8.55295e-01
 c9bf                                   6      0.0000       0.00000       A     3.31555e-01     4.13404e-01
 n10bf                                  7      0.0000       0.00000       A     3.38262e-01     3.94371e-01
 h11bf                                  1      0.0000       0.00000       A     2.62725e-01     6.75696e-02
 h12bf                                  1      0.0000       0.00000       A     2.62522e-01     6.74515e-02
 h13bf                                  1      0.0000       0.00000       A     1.10600e-01     4.04635e-02
 h14bf                                  1      0.0000       0.00000       A     2.45555e-01     6.72520e-02
 h15bf                                  1      0.0000       0.00000       A     2.62563e-01     6.75568e-02
 f16bf                                  9      0.0000       0.00000       A     3.03419e-01     3.46760e-01
 c17bf                                  6      0.0000       0.00000       A     3.39527e-01     4.50194e-01
 f18bf                                  9      0.0000       0.00000       A     3.03419e-01     3.46760e-01
 f19bf                                  9      0.0000       0.00000       A     3.03419e-01     3.46760e-01

[ moleculetype ]
;name             nrexcl
 10                    3

[ atoms ]
;       nr            type      resi   res      atom      cgnr      charge          mass ; qtot
         1            c0bf         1   UNL        c0         1     0.24150       12.0110 ; qtot    0.241
         2            c1bf         1   UNL        c1         2    -0.10183       12.0110 ; qtot    0.140
         3            c2bf         1   UNL        c2         3    -0.08377       12.0110 ; qtot    0.056
         4            c3bf         1   UNL        c3         4    -0.11525       12.0110 ; qtot   -0.059
         5            c4bf         1   UNL        c4         5     0.31622       12.0110 ; qtot    0.257
         6            n5bf         1   UNL        n5         6    -0.59341       14.0070 ; qtot   -0.337
         7            c6bf         1   UNL        c6         7     0.47195       12.0110 ; qtot    0.135
         8            n7bf         1   UNL        n7         8    -0.50297       14.0070 ; qtot   -0.368
         9            n8bf         1   UNL        n8         9    -0.20751       14.0070 ; qtot   -0.575
        10            c9bf         1   UNL        c9        10     0.42406       12.0110 ; qtot   -0.151
        11           n10bf         1   UNL       n10        11    -0.68195       14.0070 ; qtot   -0.833
        12           h11bf         1   UNL       h11        12     0.14561        1.0080 ; qtot   -0.687
        13           h12bf         1   UNL       h12        13     0.14452        1.0080 ; qtot   -0.543
        14           h13bf         1   UNL       h13        14     0.38205        1.0080 ; qtot   -0.161
        15           h14bf         1   UNL       h14        15     0.06785        1.0080 ; qtot   -0.093
        16           h15bf         1   UNL       h15        16     0.12885        1.0080 ; qtot    0.036
        17           f16bf         1   UNL       f16        17    -0.09574       18.9980 ; qtot   -0.060
        18           c17bf         1   UNL       c17        18     0.25131       12.0110 ; qtot    0.191
        19           f18bf         1   UNL       f18        19    -0.09574       18.9980 ; qtot    0.096
        20           f19bf         1   UNL       f19        20    -0.09575       18.9980 ; qtot   -0.000

[ bonds ]
;       ai        aj funct               r               k
         1         2     1        0.139682   287594.278027
         1         6     1        0.133095   319913.022168
         1        18     1        0.152062   186155.235889
         2         3     1        0.139796   313128.144189
         2        12     1        0.108402   327432.909229
         3         4     1        0.139325   326285.297070
         3        16     1        0.108588   322252.936426
         4         5     1        0.140572   275144.528613
         4        13     1        0.108334   327851.002783
         5         6     1        0.134284   296560.050684
         5         7     1        0.147439   219974.080908
         7         8     1        0.133591   324085.070801
         7        11     1        0.137519   235866.947705
         8         9     1        0.135461   254732.410645
         9        10     1        0.135508   310409.003857
         9        14     1        0.101096   433645.960742
        10        11     1        0.131908   377183.360840
        10        15     1        0.108153   336903.473926
        17        18     1        0.135399   232162.049414
        18        19     1        0.135399   232162.049414
        18        20     1        0.135399   232162.049414

[ angles ]
;       ai        aj        ak funct           theta             cth
         1         2         3     1      117.251991      707.647857
         1         2        12     1      120.789406      413.812163
         1         6         5     1      117.682968      725.483740
         1        18        17     1      111.469421      588.500004
         1        18        19     1      111.469421      588.500004
         1        18        20     1      111.469421      588.500004
         2         1         6     1      124.413025      670.135503
         2         1        18     1      120.225441      501.022444
         2         3         4     1      119.259216      783.416524
         2         3        16     1      120.390274      443.920766
         3         2        12     1      121.862411      422.648832
         3         4         5     1      118.598129      755.436152
         3         4        13     1      121.814087      413.970046
         4         3        16     1      120.404442      443.783440
         4         5         6     1      122.524475      648.494271
         4         5         7     1      119.567184      531.271821
         5         4        13     1      119.449806      425.439240
         5         7         8     1      122.862694      464.672061
         5         7        11     1      123.252869      461.007997
         6         1        18     1      115.354332      389.124290
         6         5         7     1      117.172897      457.617020
         7         8         9     1      102.436424      478.242226
         7        11        10     1      103.427246      481.863994
         8         7        11     1      113.973587      167.360000
         8         9        10     1      110.406410      167.360000
         8         9        14     1      119.847046      461.741742
         9        10        11     1      109.849503      227.222528
         9        10        15     1      123.584068      435.354661
        10         9        14     1      129.790680      339.693959
        11        10        15     1      126.633133      305.944594
        17        18        19     1      107.201317      700.916147
        17        18        20     1      107.201317      700.916147
        19        18        20     1      107.201317      700.916147

[ dihedrals ] ; propers for gromacs 4.5 or higher, use funct 9
;       ai        aj        ak        al funct           phase               k        pn
         1         2         3         4     9        0.000000        0.044690         1
         1         2         3         4     9      180.000000       18.468976         2
         1         2         3         4     9        0.000000       -1.741498         3
         1         2         3         4     9      180.000000       -0.488338         4
         1         2         3        16     9        0.000000        0.139267         1
         1         2         3        16     9      180.000000       13.963122         2
         1         2         3        16     9        0.000000       -0.572569         3
         1         2         3        16     9      180.000000        0.147306         4
         1         6         5         4     9        0.000000       -0.222478         1
         1         6         5         4     9      180.000000       21.732593         2
         1         6         5         4     9        0.000000       -0.209869         3
         1         6         5         4     9      180.000000       -0.341588         4
         1         6         5         7     9        0.000000       -0.107343         1
         1         6         5         7     9      180.000000       24.659748         2
         1         6         5         7     9        0.000000        0.790473         3
         1         6         5         7     9      180.000000       -1.045750         4
         2         1         6         5     9        0.000000       -0.206905         1
         2         1         6         5     9      180.000000       22.252167         2
         2         1         6         5     9        0.000000       -0.711569         3
         2         1         6         5     9      180.000000       -0.076125         4
         2         1        18        17     9        0.000000       -0.104876         1
         2         1        18        17     9      180.000000        0.052388         2
         2         1        18        17     9        0.000000       -0.179177         3
         2         1        18        17     9      180.000000       -0.033262         4
         2         1        18        19     9        0.000000       -0.104876         1
         2         1        18        19     9      180.000000        0.052388         2
         2         1        18        19     9        0.000000       -0.179177         3
         2         1        18        19     9      180.000000       -0.033262         4
         2         1        18        20     9        0.000000       -0.104876         1
         2         1        18        20     9      180.000000        0.052388         2
         2         1        18        20     9        0.000000       -0.179177         3
         2         1        18        20     9      180.000000       -0.033262         4
         2         3         4         5     9        0.000000       -0.056329         1
         2         3         4         5     9      180.000000       18.863028         2
         2         3         4         5     9        0.000000       -1.569966         3
         2         3         4         5     9      180.000000       -0.456661         4
         2         3         4        13     9        0.000000        0.015001         1
         2         3         4        13     9      180.000000       14.892583         2
         2         3         4        13     9        0.000000       -0.607726         3
         2         3         4        13     9      180.000000        0.117527         4
         3         2         1         6     9        0.000000       -0.075355         1
         3         2         1         6     9      180.000000       18.053735         2
         3         2         1         6     9        0.000000       -0.934092         3
         3         2         1         6     9      180.000000       -0.531335         4
         3         2         1        18     9        0.000000        0.272801         1
         3         2         1        18     9      180.000000       15.694306         2
         3         2         1        18     9        0.000000        0.042192         3
         3         2         1        18     9      180.000000       -0.469768         4
         3         4         5         6     9        0.000000       -0.054599         1
         3         4         5         6     9      180.000000       14.801211         2
         3         4         5         6     9        0.000000       -0.440711         3
         3         4         5         6     9      180.000000       -0.280505         4
         3         4         5         7     9        0.000000        0.251321         1
         3         4         5         7     9      180.000000       15.306554         2
         3         4         5         7     9        0.000000       -0.005330         3
         3         4         5         7     9      180.000000       -0.412233         4
         4         3         2        12     9        0.000000        0.064586         1
         4         3         2        12     9      180.000000       14.347275         2
         4         3         2        12     9        0.000000       -0.651398         3
         4         3         2        12     9      180.000000        0.075144         4
         4         5         7         8     9        0.000000        0.236531         1
         4         5         7         8     9      180.000000        3.092832         2
         4         5         7         8     9        0.000000       -0.143834         3
         4         5         7         8     9      180.000000        0.023843         4
         4         5         7        11     9        0.000000        0.389066         1
         4         5         7        11     9      180.000000        3.230056         2
         4         5         7        11     9        0.000000       -0.386832         3
         4         5         7        11     9      180.000000        0.040351         4
         5         4         3        16     9        0.000000        0.028750         1
         5         4         3        16     9      180.000000       14.277043         2
         5         4         3        16     9        0.000000       -0.511113         3
         5         4         3        16     9      180.000000        0.202938         4
         5         6         1        18     9        0.000000        1.476005         1
         5         6         1        18     9      180.000000       21.581930         2
         5         6         1        18     9        0.000000        1.294823         3
         5         6         1        18     9      180.000000       -0.822272         4
         5         7         8         9     9        0.000000        0.344481         1
         5         7         8         9     9      180.000000       29.273304         2
         5         7         8         9     9        0.000000        0.902111         3
         5         7         8         9     9      180.000000       -0.847365         4
         5         7        11        10     9        0.000000        0.892780         1
         5         7        11        10     9      180.000000       21.570526         2
         5         7        11        10     9        0.000000        0.532306         3
         5         7        11        10     9      180.000000       -0.417878         4
         6         1         2        12     9        0.000000       -0.081124         1
         6         1         2        12     9      180.000000       12.122019         2
         6         1         2        12     9        0.000000       -0.293244         3
         6         1         2        12     9      180.000000       -0.121769         4
         6         1        18        17     9        0.000000        0.076599         1
         6         1        18        17     9      180.000000        0.176314         2
         6         1        18        17     9        0.000000        0.516729         3
         6         1        18        17     9      180.000000       -0.064691         4
         6         1        18        19     9        0.000000        0.076599         1
         6         1        18        19     9      180.000000        0.176314         2
         6         1        18        19     9        0.000000        0.516729         3
         6         1        18        19     9      180.000000       -0.064691         4
         6         1        18        20     9        0.000000        0.076599         1
         6         1        18        20     9      180.000000        0.176314         2
         6         1        18        20     9        0.000000        0.516729         3
         6         1        18        20     9      180.000000       -0.064691         4
         6         5         4        13     9        0.000000       -0.175113         1
         6         5         4        13     9      180.000000       12.110862         2
         6         5         4        13     9        0.000000       -0.355305         3
         6         5         4        13     9      180.000000       -0.074488         4
         6         5         7         8     9        0.000000       -1.268349         1
         6         5         7         8     9      180.000000        3.225421         2
         6         5         7         8     9        0.000000        0.047259         3
         6         5         7         8     9      180.000000       -0.002643         4
         6         5         7        11     9        0.000000       -2.445625         1
         6         5         7        11     9      180.000000        3.446109         2
         6         5         7        11     9        0.000000        0.265447         3
         6         5         7        11     9      180.000000       -0.062853         4
         7         5         4        13     9        0.000000        0.037612         1
         7         5         4        13     9      180.000000       12.088870         2
         7         5         4        13     9        0.000000       -0.124383         3
         7         5         4        13     9      180.000000        0.046934         4
         7         8         9        10     9        0.000000       -0.413698         1
         7         8         9        10     9      180.000000       22.206394         2
         7         8         9        10     9        0.000000       -3.389081         3
         7         8         9        10     9      180.000000       -0.222067         4
         7         8         9        14     9        0.000000        2.103295         1
         7         8         9        14     9      180.000000        6.658159         2
         7         8         9        14     9        0.000000       -0.009483         3
         7         8         9        14     9      180.000000        0.084008         4
         7        11        10         9     9        0.000000       -0.150928         1
         7        11        10         9     9      180.000000       41.060340         2
         7        11        10         9     9        0.000000       -6.073861         3
         7        11        10         9     9      180.000000        0.004087         4
         7        11        10        15     9        0.000000        1.782394         1
         7        11        10        15     9      180.000000       25.799014         2
         7        11        10        15     9        0.000000        0.443319         3
         7        11        10        15     9      180.000000       -0.228702         4
         8         7        11        10     9        0.000000       -0.526613         1
         8         7        11        10     9      180.000000       35.409010         2
         8         7        11        10     9        0.000000       -6.578732         3
         8         7        11        10     9      180.000000        0.078326         4
         8         9        10        11     9        0.000000        0.041595         1
         8         9        10        11     9      180.000000       33.164958         2
         8         9        10        11     9        0.000000       -6.882509         3
         8         9        10        11     9      180.000000       -0.424385         4
         8         9        10        15     9        0.000000        2.095177         1
         8         9        10        15     9      180.000000       16.044932         2
         8         9        10        15     9        0.000000        0.273906         3
         8         9        10        15     9      180.000000       -0.597421         4
         9         8         7        11     9        0.000000       -0.250020         1
         9         8         7        11     9      180.000000       45.213516         2
         9         8         7        11     9        0.000000       -6.781589         3
         9         8         7        11     9      180.000000        0.036964         4
        11        10         9        14     9        0.000000        1.103654         1
        11        10         9        14     9      180.000000        7.704870         2
        11        10         9        14     9        0.000000        0.089785         3
        11        10         9        14     9      180.000000       -0.122986         4
        12         2         1        18     9        0.000000       -0.035828         1
        12         2         1        18     9      180.000000       11.784112         2
        12         2         1        18     9        0.000000       -0.296037         3
        12         2         1        18     9      180.000000        0.030006         4
        12         2         3        16     9        0.000000       -0.269548         1
        12         2         3        16     9      180.000000       11.399510         2
        12         2         3        16     9        0.000000       -0.758903         3
        12         2         3        16     9      180.000000        0.293524         4
        13         4         3        16     9        0.000000       -0.274596         1
        13         4         3        16     9      180.000000       12.110433         2
        13         4         3        16     9        0.000000       -0.727703         3
        13         4         3        16     9      180.000000        0.362370         4
        14         9        10        15     9        0.000000       -1.284505         1
        14         9        10        15     9      180.000000        2.893688         2
        14         9        10        15     9        0.000000       -0.079111         3
        14         9        10        15     9      180.000000       -0.072945         4

[ dihedrals ] ; impropers
;       ai        aj        ak        al funct           phase               k        pn
         5         4         6         7     4      180.000000        3.744037         2
         5         6         7         4     4      180.000000        3.744037         2
         5         7         4         6     4      180.000000        3.744037         2
        10         9        11        15     4      180.000000        1.191032         2
        10        11        15         9     4      180.000000        1.191032         2
        10        15         9        11     4      180.000000        1.191032         2

[ pairs ]
;       ai        aj funct
         1         4     1
         1         7     1
         1        16     1
         2         5     1
         2        13     1
         2        17     1
         2        19     1
         2        20     1
         3         6     1
         3         7     1
         3        18     1
         4         8     1
         4        11     1
         4        12     1
         5         9     1
         5        10     1
         5        16     1
         5        18     1
         6         8     1
         6        11     1
         6        12     1
         6        13     1
         6        17     1
         6        19     1
         6        20     1
         7        13     1
         7        14     1
         7        15     1
         8        15     1
        11        14     1
        12        16     1
        12        18     1
        13        16     1
        14        15     1
