; ITP file created by ByteFF-ML, 2025-12-06 03:33:22.543906

[ atomtypes ]
;name           bonded.type        at.num        mass        charge   ptype           sigma         epsilon
 c0bf                                   6      0.0000       0.00000       A     3.31601e-01     4.14657e-01
 c1bf                                   6      0.0000       0.00000       A     3.31442e-01     4.13364e-01
 c2bf                                   6      0.0000       0.00000       A     3.31475e-01     4.13527e-01
 c3bf                                   6      0.0000       0.00000       A     3.31418e-01     4.13160e-01
 c4bf                                   6      0.0000       0.00000       A     3.31472e-01     4.14245e-01
 n5bf                                   7      0.0000       0.00000       A     3.38376e-01     3.95192e-01
 c6bf                                   6      0.0000       0.00000       A     3.31415e-01     4.10868e-01
 n7bf                                   7      0.0000       0.00000       A     3.38335e-01     3.93104e-01
 n8bf                                   7      0.0000       0.00000       A     3.20492e-01     8.56492e-01
 h9bf                                   1      0.0000       0.00000       A     2.62725e-01     6.75696e-02
 h10bf                                  1      0.0000       0.00000       A     2.62533e-01     6.74850e-02
 h11bf                                  1      0.0000       0.00000       A     1.10678e-01     4.14914e-02
 h12bf                                  1      0.0000       0.00000       A     2.62563e-01     6.75568e-02
 f13bf                                  9      0.0000       0.00000       A     3.03419e-01     3.46760e-01
 c14bf                                  6      0.0000       0.00000       A     3.39527e-01     4.50194e-01
 f15bf                                  9      0.0000       0.00000       A     3.03419e-01     3.46760e-01
 f16bf                                  9      0.0000       0.00000       A     3.03419e-01     3.46760e-01
 c17bf                                  6      0.0000       0.00000       A     3.31629e-01     4.14231e-01
 c18bf                                  6      0.0000       0.00000       A     3.31443e-01     4.12586e-01
 c19bf                                  6      0.0000       0.00000       A     3.31520e-01     4.11730e-01
 c20bf                                  6      0.0000       0.00000       A     3.31564e-01     4.13317e-01
 n21bf                                  7      0.0000       0.00000       A     3.38393e-01     3.94722e-01
 c22bf                                  6      0.0000       0.00000       A     3.31577e-01     4.11673e-01
 h23bf                                  1      0.0000       0.00000       A     2.62511e-01     6.74531e-02
 h24bf                                  1      0.0000       0.00000       A     2.53817e-01     6.73908e-02
 h25bf                                  1      0.0000       0.00000       A     2.53857e-01     6.73030e-02

[ moleculetype ]
;name             nrexcl
 11                    3

[ atoms ]
;       nr            type      resi   res      atom      cgnr      charge          mass ; qtot
         1            c0bf         1   UNL        c0         1     0.24606       12.0110 ; qtot    0.246
         2            c1bf         1   UNL        c1         2    -0.10725       12.0110 ; qtot    0.139
         3            c2bf         1   UNL        c2         3    -0.07828       12.0110 ; qtot    0.061
         4            c3bf         1   UNL        c3         4    -0.12951       12.0110 ; qtot   -0.069
         5            c4bf         1   UNL        c4         5     0.34505       12.0110 ; qtot    0.276
         6            n5bf         1   UNL        n5         6    -0.61809       14.0070 ; qtot   -0.342
         7            c6bf         1   UNL        c6         7     0.28847       12.0110 ; qtot   -0.054
         8            n7bf         1   UNL        n7         8    -0.48558       14.0070 ; qtot   -0.539
         9            n8bf         1   UNL        n8         9    -0.05837       14.0070 ; qtot   -0.598
        10            h9bf         1   UNL        h9        10     0.14561        1.0080 ; qtot   -0.452
        11           h10bf         1   UNL       h10        11     0.13822        1.0080 ; qtot   -0.314
        12           h11bf         1   UNL       h11        12     0.38387        1.0080 ; qtot    0.070
        13           h12bf         1   UNL       h12        13     0.12684        1.0080 ; qtot    0.197
        14           f13bf         1   UNL       f13        14    -0.09574       18.9980 ; qtot    0.101
        15           c14bf         1   UNL       c14        15     0.25107       12.0110 ; qtot    0.352
        16           f15bf         1   UNL       f15        16    -0.09574       18.9980 ; qtot    0.257
        17           f16bf         1   UNL       f16        17    -0.09574       18.9980 ; qtot    0.161
        18           c17bf         1   UNL       c17        18    -0.10248       12.0110 ; qtot    0.058
        19           c18bf         1   UNL       c18        19    -0.16787       12.0110 ; qtot   -0.109
        20           c19bf         1   UNL       c19        20    -0.07551       12.0110 ; qtot   -0.185
        21           c20bf         1   UNL       c20        21     0.28829       12.0110 ; qtot    0.103
        22           n21bf         1   UNL       n21        22    -0.63669       14.0070 ; qtot   -0.533
        23           c22bf         1   UNL       c22        23     0.33440       12.0110 ; qtot   -0.199
        24           h23bf         1   UNL       h23        24     0.14283        1.0080 ; qtot   -0.056
        25           h24bf         1   UNL       h24        25     0.02566        1.0080 ; qtot   -0.030
        26           h25bf         1   UNL       h25        26     0.03048        1.0080 ; qtot    0.000

[ bonds ]
;       ai        aj funct               r               k
         1         2     1        0.139628   288770.261914
         1         6     1        0.133059   320795.993262
         1        15     1        0.152061   186471.564062
         2         3     1        0.139819   312277.809521
         2        10     1        0.108402   327432.909229
         3         4     1        0.139280   326779.772119
         3        13     1        0.108602   321650.567090
         4         5     1        0.140749   270528.619482
         4        11     1        0.108355   326450.752002
         5         6     1        0.134605   289360.450049
         5         7     1        0.147164   223600.248291
         7         8     1        0.133515   340518.558203
         7        19     1        0.144065   225454.319043
         8         9     1        0.135141   259794.606299
         9        12     1        0.101002   433290.688477
         9        18     1        0.137312   281435.467822
        14        15     1        0.135399   232162.049414
        15        16     1        0.135399   232162.023877
        15        17     1        0.135399   232162.023877
        18        19     1        0.141670   253101.202246
        18        23     1        0.140551   287335.229590
        19        20     1        0.140654   303193.365918
        20        21     1        0.138957   316767.412109
        20        24     1        0.108349   328462.846387
        21        22     1        0.135846   272396.199365
        21        25     1        0.108746   316536.812012
        22        23     1        0.132737   352153.622754
        23        26     1        0.108850   313789.427637

[ angles ]
;       ai        aj        ak funct           theta             cth
         1         2         3     1      117.088120      707.651368
         1         2        10     1      120.825760      413.863301
         1         6         5     1      118.049637      734.539582
         1        15        14     1      111.464745      587.831251
         1        15        16     1      111.464745      587.831315
         1        15        17     1      111.464745      587.831315
         2         1         6     1      124.446060      669.157751
         2         1        15     1      120.251343      500.392667
         2         3         4     1      119.299278      781.131017
         2         3        13     1      120.409134      441.983521
         3         2        10     1      121.934402      422.538512
         3         4         5     1      118.926651      761.818450
         3         4        11     1      121.366783      418.512299
         4         3        13     1      120.349915      438.914630
         4         5         6     1      121.877907      670.306027
         4         5         7     1      120.769241      500.706965
         5         4        11     1      119.857971      424.365054
         5         7         8     1      120.890335      528.871811
         5         7        19     1      128.391602      404.943476
         6         1        15     1      115.391281      388.647544
         6         5         7     1      116.771667      470.125224
         7         8         9     1      106.560226      584.336689
         7        19        18     1      104.576599      323.411210
         7        19        20     1      137.755936      469.042131
         8         7        19     1      110.195190      351.400584
         8         9        12     1      118.889359      482.326631
         8         9        18     1      112.315475      448.003383
         9        18        19     1      106.048416      167.360000
         9        18        23     1      133.041458      455.630871
        12         9        18     1      128.846512      374.939734
        14        15        16     1      107.201317      700.916083
        14        15        17     1      107.201317      700.916147
        16        15        17     1      107.201317      700.916083
        18        19        20     1      117.703651      779.457570
        18        23        22     1      120.537254      830.772157
        18        23        26     1      121.927391      416.359904
        19        18        23     1      120.961502      679.649928
        19        20        21     1      117.031235      787.546258
        19        20        24     1      121.722900      440.035965
        20        21        22     1      124.814957      675.966774
        20        21        25     1      120.047012      425.794462
        21        20        24     1      121.092979      427.649158
        21        22        23     1      118.945755      562.387097
        22        21        25     1      115.309219      373.620934
        22        23        26     1      117.450455      372.903501

[ dihedrals ] ; propers for gromacs 4.5 or higher, use funct 9
;       ai        aj        ak        al funct           phase               k        pn
         1         2         3         4     9        0.000000        0.054856         1
         1         2         3         4     9      180.000000       18.254959         2
         1         2         3         4     9        0.000000       -1.751772         3
         1         2         3         4     9      180.000000       -0.456800         4
         1         2         3        13     9        0.000000        0.122492         1
         1         2         3        13     9      180.000000       13.965894         2
         1         2         3        13     9        0.000000       -0.571775         3
         1         2         3        13     9      180.000000        0.144169         4
         1         6         5         4     9        0.000000       -0.213683         1
         1         6         5         4     9      180.000000       21.102131         2
         1         6         5         4     9        0.000000        0.089461         3
         1         6         5         4     9      180.000000       -0.312984         4
         1         6         5         7     9        0.000000        0.168162         1
         1         6         5         7     9      180.000000       24.093046         2
         1         6         5         7     9        0.000000        1.048453         3
         1         6         5         7     9      180.000000       -1.136800         4
         2         1         6         5     9        0.000000       -0.261346         1
         2         1         6         5     9      180.000000       22.020244         2
         2         1         6         5     9        0.000000       -0.637842         3
         2         1         6         5     9      180.000000       -0.030883         4
         2         1        15        14     9        0.000000       -0.108987         1
         2         1        15        14     9      180.000000        0.056334         2
         2         1        15        14     9        0.000000       -0.180852         3
         2         1        15        14     9      180.000000       -0.034304         4
         2         1        15        16     9        0.000000       -0.108987         1
         2         1        15        16     9      180.000000        0.056334         2
         2         1        15        16     9        0.000000       -0.180852         3
         2         1        15        16     9      180.000000       -0.034304         4
         2         1        15        17     9        0.000000       -0.108987         1
         2         1        15        17     9      180.000000        0.056334         2
         2         1        15        17     9        0.000000       -0.180852         3
         2         1        15        17     9      180.000000       -0.034304         4
         2         3         4         5     9        0.000000       -0.006924         1
         2         3         4         5     9      180.000000       18.779954         2
         2         3         4         5     9        0.000000       -1.588153         3
         2         3         4         5     9      180.000000       -0.421654         4
         2         3         4        11     9        0.000000        0.029010         1
         2         3         4        11     9      180.000000       15.046798         2
         2         3         4        11     9        0.000000       -0.579857         3
         2         3         4        11     9      180.000000        0.099247         4
         3         2         1         6     9        0.000000       -0.058439         1
         3         2         1         6     9      180.000000       18.113308         2
         3         2         1         6     9        0.000000       -0.950585         3
         3         2         1         6     9      180.000000       -0.545650         4
         3         2         1        15     9        0.000000        0.279966         1
         3         2         1        15     9      180.000000       15.599303         2
         3         2         1        15     9        0.000000        0.066979         3
         3         2         1        15     9      180.000000       -0.450983         4
         3         4         5         6     9        0.000000       -0.080416         1
         3         4         5         6     9      180.000000       14.629436         2
         3         4         5         6     9        0.000000       -0.471559         3
         3         4         5         6     9      180.000000       -0.282400         4
         3         4         5         7     9        0.000000        0.332502         1
         3         4         5         7     9      180.000000       14.750710         2
         3         4         5         7     9        0.000000        0.251639         3
         3         4         5         7     9      180.000000       -0.427189         4
         4         3         2        10     9        0.000000        0.068219         1
         4         3         2        10     9      180.000000       14.100554         2
         4         3         2        10     9        0.000000       -0.628767         3
         4         3         2        10     9      180.000000        0.076196         4
         4         5         7         8     9        0.000000        0.906305         1
         4         5         7         8     9      180.000000        3.754411         2
         4         5         7         8     9        0.000000       -0.056207         3
         4         5         7         8     9      180.000000        0.111958         4
         4         5         7        19     9        0.000000       -0.597295         1
         4         5         7        19     9      180.000000        3.569167         2
         4         5         7        19     9        0.000000       -0.143135         3
         4         5         7        19     9      180.000000        0.007747         4
         5         4         3        13     9        0.000000        0.008000         1
         5         4         3        13     9      180.000000       14.243668         2
         5         4         3        13     9        0.000000       -0.458898         3
         5         4         3        13     9      180.000000        0.182491         4
         5         6         1        15     9        0.000000        1.271798         1
         5         6         1        15     9      180.000000       21.086356         2
         5         6         1        15     9        0.000000        1.091677         3
         5         6         1        15     9      180.000000       -0.715738         4
         5         7         8         9     9        0.000000        1.219547         1
         5         7         8         9     9      180.000000       25.870429         2
         5         7         8         9     9        0.000000        1.452014         3
         5         7         8         9     9      180.000000       -0.730904         4
         5         7        19        18     9        0.000000        0.562452         1
         5         7        19        18     9      180.000000       14.215751         2
         5         7        19        18     9        0.000000        0.032625         3
         5         7        19        18     9      180.000000       -0.684251         4
         5         7        19        20     9        0.000000       -0.110982         1
         5         7        19        20     9      180.000000        5.162916         2
         5         7        19        20     9        0.000000        0.383104         3
         5         7        19        20     9      180.000000       -0.102395         4
         6         1         2        10     9        0.000000       -0.015188         1
         6         1         2        10     9      180.000000       12.233975         2
         6         1         2        10     9        0.000000       -0.327293         3
         6         1         2        10     9      180.000000       -0.152675         4
         6         1        15        14     9        0.000000        0.011022         1
         6         1        15        14     9      180.000000        0.160693         2
         6         1        15        14     9        0.000000        0.500839         3
         6         1        15        14     9      180.000000       -0.048641         4
         6         1        15        16     9        0.000000        0.011022         1
         6         1        15        16     9      180.000000        0.160693         2
         6         1        15        16     9        0.000000        0.500839         3
         6         1        15        16     9      180.000000       -0.048641         4
         6         1        15        17     9        0.000000        0.011022         1
         6         1        15        17     9      180.000000        0.160693         2
         6         1        15        17     9        0.000000        0.500839         3
         6         1        15        17     9      180.000000       -0.048641         4
         6         5         4        11     9        0.000000       -0.178468         1
         6         5         4        11     9      180.000000       12.111847         2
         6         5         4        11     9        0.000000       -0.323676         3
         6         5         4        11     9      180.000000       -0.087138         4
         6         5         7         8     9        0.000000       -3.434908         1
         6         5         7         8     9      180.000000        3.899572         2
         6         5         7         8     9        0.000000        0.325702         3
         6         5         7         8     9      180.000000        0.119879         4
         6         5         7        19     9        0.000000        0.518920         1
         6         5         7        19     9      180.000000        3.461731         2
         6         5         7        19     9        0.000000       -0.333710         3
         6         5         7        19     9      180.000000        0.067999         4
         7         5         4        11     9        0.000000       -0.032936         1
         7         5         4        11     9      180.000000       12.164672         2
         7         5         4        11     9        0.000000       -0.158107         3
         7         5         4        11     9      180.000000        0.056743         4
         7         8         9        12     9        0.000000        2.133442         1
         7         8         9        12     9      180.000000        6.977952         2
         7         8         9        12     9        0.000000        0.401436         3
         7         8         9        12     9      180.000000       -0.104772         4
         7         8         9        18     9        0.000000       -0.203880         1
         7         8         9        18     9      180.000000       23.490418         2
         7         8         9        18     9        0.000000       -2.839056         3
         7         8         9        18     9      180.000000       -0.935286         4
         7        19        18         9     9        0.000000        0.228053         1
         7        19        18         9     9      180.000000       17.612124         2
         7        19        18         9     9        0.000000       -6.290714         3
         7        19        18         9     9      180.000000       -0.330998         4
         7        19        18        23     9        0.000000       -0.067642         1
         7        19        18        23     9      180.000000       10.311039         2
         7        19        18        23     9        0.000000       -2.845157         3
         7        19        18        23     9      180.000000        0.113553         4
         7        19        20        21     9        0.000000       -0.119704         1
         7        19        20        21     9      180.000000       12.441207         2
         7        19        20        21     9        0.000000       -0.751627         3
         7        19        20        21     9      180.000000       -0.066147         4
         7        19        20        24     9        0.000000        0.029794         1
         7        19        20        24     9      180.000000       10.009616         2
         7        19        20        24     9        0.000000       -0.168009         3
         7        19        20        24     9      180.000000        0.063923         4
         8         7        19        18     9        0.000000       -0.554350         1
         8         7        19        18     9      180.000000       31.076007         2
         8         7        19        18     9        0.000000      -10.007049         3
         8         7        19        18     9      180.000000       -0.025835         4
         8         7        19        20     9        0.000000       -0.111741         1
         8         7        19        20     9      180.000000        5.124510         2
         8         7        19        20     9        0.000000       -1.360906         3
         8         7        19        20     9      180.000000        0.127298         4
         8         9        18        19     9        0.000000        0.341152         1
         8         9        18        19     9      180.000000       24.174184         2
         8         9        18        19     9        0.000000       -5.530154         3
         8         9        18        19     9      180.000000       -0.737199         4
         8         9        18        23     9        0.000000        0.451326         1
         8         9        18        23     9      180.000000        3.305074         2
         8         9        18        23     9        0.000000        0.150351         3
         8         9        18        23     9      180.000000        0.073668         4
         9         8         7        19     9        0.000000       -0.612122         1
         9         8         7        19     9      180.000000       37.006172         2
         9         8         7        19     9        0.000000       -4.112787         3
         9         8         7        19     9      180.000000        0.012612         4
         9        18        19        20     9        0.000000        0.252403         1
         9        18        19        20     9      180.000000       11.093685         2
         9        18        19        20     9        0.000000       -2.481356         3
         9        18        19        20     9      180.000000       -0.037831         4
         9        18        23        22     9        0.000000        0.056465         1
         9        18        23        22     9      180.000000       12.389307         2
         9        18        23        22     9        0.000000       -0.148258         3
         9        18        23        22     9      180.000000       -0.198301         4
         9        18        23        26     9        0.000000       -0.021012         1
         9        18        23        26     9      180.000000       10.259007         2
         9        18        23        26     9        0.000000        0.004416         3
         9        18        23        26     9      180.000000        0.117868         4
        10         2         1        15     9        0.000000       -0.033841         1
        10         2         1        15     9      180.000000       11.830726         2
        10         2         1        15     9        0.000000       -0.286823         3
        10         2         1        15     9      180.000000        0.028095         4
        10         2         3        13     9        0.000000       -0.291025         1
        10         2         3        13     9      180.000000       11.365184         2
        10         2         3        13     9        0.000000       -0.759348         3
        10         2         3        13     9      180.000000        0.284446         4
        11         4         3        13     9        0.000000       -0.306819         1
        11         4         3        13     9      180.000000       12.019600         2
        11         4         3        13     9        0.000000       -0.726607         3
        11         4         3        13     9      180.000000        0.346620         4
        12         9        18        19     9        0.000000        0.106118         1
        12         9        18        19     9      180.000000        1.577998         2
        12         9        18        19     9        0.000000        0.351260         3
        12         9        18        19     9      180.000000        0.062560         4
        12         9        18        23     9        0.000000       -0.906417         1
        12         9        18        23     9      180.000000        0.856407         2
        12         9        18        23     9        0.000000       -0.004498         3
        12         9        18        23     9      180.000000       -0.115830         4
        18        19        20        21     9        0.000000       -0.030263         1
        18        19        20        21     9      180.000000       19.137556         2
        18        19        20        21     9        0.000000       -2.547015         3
        18        19        20        21     9      180.000000       -0.348951         4
        18        19        20        24     9        0.000000        0.173205         1
        18        19        20        24     9      180.000000       13.726988         2
        18        19        20        24     9        0.000000       -0.353300         3
        18        19        20        24     9      180.000000       -0.042603         4
        18        23        22        21     9        0.000000        0.070167         1
        18        23        22        21     9      180.000000       27.401925         2
        18        23        22        21     9        0.000000       -1.345594         3
        18        23        22        21     9      180.000000       -0.120494         4
        19        18        23        22     9        0.000000       -0.045553         1
        19        18        23        22     9      180.000000       15.925601         2
        19        18        23        22     9        0.000000       -1.289256         3
        19        18        23        22     9      180.000000       -0.355269         4
        19        18        23        26     9        0.000000        0.300423         1
        19        18        23        26     9      180.000000       11.961364         2
        19        18        23        26     9        0.000000       -0.114460         3
        19        18        23        26     9      180.000000       -0.010263         4
        19        20        21        22     9        0.000000       -0.236995         1
        19        20        21        22     9      180.000000       21.959279         2
        19        20        21        22     9        0.000000       -1.134763         3
        19        20        21        22     9      180.000000       -0.748089         4
        19        20        21        25     9        0.000000        0.089804         1
        19        20        21        25     9      180.000000       16.831698         2
        19        20        21        25     9        0.000000       -0.307026         3
        19        20        21        25     9      180.000000       -0.190297         4
        20        19        18        23     9        0.000000       -0.311874         1
        20        19        18        23     9      180.000000       10.055235         2
        20        19        18        23     9        0.000000       -2.156541         3
        20        19        18        23     9      180.000000        0.094068         4
        20        21        22        23     9        0.000000        0.029619         1
        20        21        22        23     9      180.000000       19.743757         2
        20        21        22        23     9        0.000000       -0.834309         3
        20        21        22        23     9      180.000000       -0.044393         4
        21        22        23        26     9        0.000000        1.316698         1
        21        22        23        26     9      180.000000       22.599626         2
        21        22        23        26     9        0.000000        0.221533         3
        21        22        23        26     9      180.000000       -0.103668         4
        22        21        20        24     9        0.000000        0.020086         1
        22        21        20        24     9      180.000000       15.472786         2
        22        21        20        24     9        0.000000       -0.181432         3
        22        21        20        24     9      180.000000        0.044626         4
        23        22        21        25     9        0.000000        1.090742         1
        23        22        21        25     9      180.000000       19.374289         2
        23        22        21        25     9        0.000000        0.029004         3
        23        22        21        25     9      180.000000       -0.325534         4
        24        20        21        25     9        0.000000       -0.176626         1
        24        20        21        25     9      180.000000       12.447421         2
        24        20        21        25     9        0.000000       -0.513554         3
        24        20        21        25     9      180.000000        0.347289         4

[ dihedrals ] ; impropers
;       ai        aj        ak        al funct           phase               k        pn
         5         4         6         7     4      180.000000        4.553315         2
         5         6         7         4     4      180.000000        4.553315         2
         5         7         4         6     4      180.000000        4.553315         2
        23        18        22        26     4      180.000000        1.013628         2
        23        22        26        18     4      180.000000        1.013628         2
        23        26        18        22     4      180.000000        1.013628         2

[ pairs ]
;       ai        aj funct
         1         4     1
         1         7     1
         1        13     1
         2         5     1
         2        11     1
         2        14     1
         2        16     1
         2        17     1
         3         6     1
         3         7     1
         3        15     1
         4         8     1
         4        10     1
         4        19     1
         5         9     1
         5        13     1
         5        15     1
         5        18     1
         5        20     1
         6         8     1
         6        10     1
         6        11     1
         6        14     1
         6        16     1
         6        17     1
         6        19     1
         7        11     1
         7        12     1
         7        21     1
         7        23     1
         7        24     1
         8        20     1
         8        23     1
         9        20     1
         9        22     1
         9        26     1
        10        13     1
        10        15     1
        11        13     1
        12        19     1
        12        23     1
        18        21     1
        18        24     1
        19        22     1
        19        25     1
        19        26     1
        20        23     1
        21        26     1
        22        24     1
        23        25     1
        24        25     1
