; ITP file created by ByteFF-ML, 2025-12-06 03:33:55.139322

[ atomtypes ]
;name           bonded.type        at.num        mass        charge   ptype           sigma         epsilon
 c0bf                                   6      0.0000       0.00000       A     3.31593e-01     4.13854e-01
 c1bf                                   6      0.0000       0.00000       A     3.31346e-01     4.14561e-01
 c2bf                                   6      0.0000       0.00000       A     3.31550e-01     4.13227e-01
 n3bf                                   7      0.0000       0.00000       A     3.38601e-01     3.91517e-01
 c4bf                                   6      0.0000       0.00000       A     3.31422e-01     4.16150e-01
 n5bf                                   7      0.0000       0.00000       A     3.38384e-01     3.95345e-01
 c6bf                                   6      0.0000       0.00000       A     3.31627e-01     4.13843e-01
 n7bf                                   7      0.0000       0.00000       A     3.38243e-01     3.93619e-01
 n8bf                                   7      0.0000       0.00000       A     3.20574e-01     8.57348e-01
 h9bf                                   1      0.0000       0.00000       A     2.62481e-01     6.74706e-02
 h10bf                                  1      0.0000       0.00000       A     1.10678e-01     4.14914e-02
 f11bf                                  9      0.0000       0.00000       A     3.03419e-01     3.46760e-01
 c12bf                                  6      0.0000       0.00000       A     3.39828e-01     4.48944e-01
 f13bf                                  9      0.0000       0.00000       A     3.03419e-01     3.46760e-01
 f14bf                                  9      0.0000       0.00000       A     3.03419e-01     3.46760e-01
 c15bf                                  6      0.0000       0.00000       A     3.31625e-01     4.14261e-01
 c16bf                                  6      0.0000       0.00000       A     3.31417e-01     4.12306e-01
 c17bf                                  6      0.0000       0.00000       A     3.31535e-01     4.12044e-01
 c18bf                                  6      0.0000       0.00000       A     3.31564e-01     4.13317e-01
 n19bf                                  7      0.0000       0.00000       A     3.38393e-01     3.94722e-01
 c20bf                                  6      0.0000       0.00000       A     3.31577e-01     4.11673e-01
 h21bf                                  1      0.0000       0.00000       A     2.62511e-01     6.74531e-02
 h22bf                                  1      0.0000       0.00000       A     2.53817e-01     6.73908e-02
 h23bf                                  1      0.0000       0.00000       A     2.53857e-01     6.73030e-02
 n24bf                                  7      0.0000       0.00000       A     3.27925e-01     6.45644e-01
 h25bf                                  1      0.0000       0.00000       A     1.10632e-01     4.08562e-02
 c26bf                                  6      0.0000       0.00000       A     3.39764e-01     4.51525e-01
 h27bf                                  1      0.0000       0.00000       A     2.42286e-01     8.71885e-02
 h28bf                                  1      0.0000       0.00000       A     2.42286e-01     8.71885e-02
 c29bf                                  6      0.0000       0.00000       A     3.39778e-01     4.52045e-01
 h30bf                                  1      0.0000       0.00000       A     2.41926e-01     8.68757e-02
 h31bf                                  1      0.0000       0.00000       A     2.41926e-01     8.68757e-02
 o32bf                                  8      0.0000       0.00000       A     3.24531e-01     3.89209e-01
 h33bf                                  1      0.0000       0.00000       A     5.36358e-02     2.03467e-02

[ moleculetype ]
;name             nrexcl
 13                    3

[ atoms ]
;       nr            type      resi   res      atom      cgnr      charge          mass ; qtot
         1            c0bf         1   UNL        c0         1     0.05017       12.0110 ; qtot    0.050
         2            c1bf         1   UNL        c1         2    -0.22937       12.0110 ; qtot   -0.179
         3            c2bf         1   UNL        c2         3     0.37600       12.0110 ; qtot    0.197
         4            n3bf         1   UNL        n3         4    -0.23694       14.0070 ; qtot   -0.040
         5            c4bf         1   UNL        c4         5     0.16126       12.0110 ; qtot    0.121
         6            n5bf         1   UNL        n5         6    -0.13775       14.0070 ; qtot   -0.017
         7            c6bf         1   UNL        c6         7     0.26493       12.0110 ; qtot    0.248
         8            n7bf         1   UNL        n7         8    -0.44885       14.0070 ; qtot   -0.201
         9            n8bf         1   UNL        n8         9    -0.06399       14.0070 ; qtot   -0.265
        10            h9bf         1   UNL        h9        10     0.15257        1.0080 ; qtot   -0.112
        11           h10bf         1   UNL       h10        11     0.38442        1.0080 ; qtot    0.272
        12           f11bf         1   UNL       f11        12    -0.09470       18.9980 ; qtot    0.178
        13           c12bf         1   UNL       c12        13     0.25669       12.0110 ; qtot    0.434
        14           f13bf         1   UNL       f13        14    -0.09470       18.9980 ; qtot    0.340
        15           f14bf         1   UNL       f14        15    -0.09470       18.9980 ; qtot    0.245
        16           c15bf         1   UNL       c15        16    -0.10471       12.0110 ; qtot    0.140
        17           c16bf         1   UNL       c16        17    -0.14312       12.0110 ; qtot   -0.003
        18           c17bf         1   UNL       c17        18    -0.07219       12.0110 ; qtot   -0.075
        19           c18bf         1   UNL       c18        19     0.28618       12.0110 ; qtot    0.211
        20           n19bf         1   UNL       n19        20    -0.63669       14.0070 ; qtot   -0.425
        21           c20bf         1   UNL       c20        21     0.33448       12.0110 ; qtot   -0.091
        22           h21bf         1   UNL       h21        22     0.14506        1.0080 ; qtot    0.054
        23           h22bf         1   UNL       h22        23     0.02566        1.0080 ; qtot    0.080
        24           h23bf         1   UNL       h23        24     0.03050        1.0080 ; qtot    0.110
        25           n24bf         1   UNL       n24        25    -0.91569       14.0070 ; qtot   -0.805
        26           h25bf         1   UNL       h25        26     0.48759        1.0080 ; qtot   -0.318
        27           c26bf         1   UNL       c26        27     0.18976       12.0110 ; qtot   -0.128
        28           h27bf         1   UNL       h27        28     0.06027        1.0080 ; qtot   -0.068
        29           h28bf         1   UNL       h28        29     0.06027        1.0080 ; qtot   -0.008
        30           c29bf         1   UNL       c29        30     0.13957       12.0110 ; qtot    0.132
        31           h30bf         1   UNL       h30        31     0.04286        1.0080 ; qtot    0.175
        32           h31bf         1   UNL       h31        32     0.04286        1.0080 ; qtot    0.218
        33           o32bf         1   UNL       o32        33    -0.66660       15.9990 ; qtot   -0.449
        34           h33bf         1   UNL       h33        34     0.44890        1.0080 ; qtot    0.000

[ bonds ]
;       ai        aj funct               r               k
         1         2     1        0.138233   325738.573096
         1         6     1        0.133245   327370.266699
         1        13     1        0.152217   192815.837524
         2         3     1        0.141791   257858.638037
         2        10     1        0.108292   328654.962061
         3         4     1        0.134409   297478.799268
         3        25     1        0.136712   321701.998828
         4         5     1        0.133907   296049.895850
         5         6     1        0.134567   271486.312158
         5         7     1        0.146791   223257.233838
         7         8     1        0.133578   338345.707715
         7        17     1        0.143928   229654.790479
         8         9     1        0.135021   260969.338867
         9        11     1        0.101009   433027.962695
         9        16     1        0.137414   279882.683887
        12        13     1        0.135238   235738.164062
        13        14     1        0.135238   235738.164062
        13        15     1        0.135238   235738.164062
        16        17     1        0.141720   252783.954736
        16        21     1        0.140528   287497.466846
        17        18     1        0.140644   303505.531543
        18        19     1        0.138952   317075.491797
        18        22     1        0.108338   328945.089160
        19        20     1        0.135846   272396.173828
        19        23     1        0.108746   316536.786475
        20        21     1        0.132737   352153.597217
        21        24     1        0.108850   313789.427637
        25        26     1        0.101191   418507.409082
        25        27     1        0.145698   214735.091846
        27        28     1        0.109452   296785.824268
        27        29     1        0.109452   296785.824268
        27        30     1        0.153044   184114.591016
        30        31     1        0.109667   290693.665918
        30        32     1        0.109667   290693.665918
        30        33     1        0.142998   210894.438281
        33        34     1        0.097067   468275.098242

[ angles ]
;       ai        aj        ak funct           theta             cth
         1         2         3     1      115.552017      942.595520
         1         2        10     1      121.543846      411.022584
         1         6         5     1      115.812805      834.736219
         1        13        12     1      111.141335      587.534255
         1        13        14     1      111.141335      587.534255
         1        13        15     1      111.141335      587.534255
         2         1         6     1      124.434708      680.332982
         2         1        13     1      120.337646      455.791531
         2         3         4     1      121.039566      689.815166
         2         3        25     1      122.098465      532.509190
         3         2        10     1      122.320763      413.972057
         3         4         5     1      117.584923      939.214853
         3        25        26     1      115.248352      473.597760
         3        25        27     1      123.385887      481.247018
         4         3        25     1      116.580261      626.297671
         4         5         6     1      125.899475      650.944621
         4         5         7     1      116.551041      438.419466
         5         7         8     1      121.158310      496.007275
         5         7        17     1      127.583542      412.762428
         6         1        13     1      115.446838      415.246039
         6         5         7     1      116.745117      464.848586
         7         8         9     1      106.389259      578.987559
         7        17        16     1      104.426720      310.949420
         7        17        18     1      137.738983      432.537950
         8         7        17     1      110.614281      320.557311
         8         9        11     1      118.815735      481.838521
         8         9        16     1      112.402565      449.637152
         9        16        17     1      105.994751      167.360000
         9        16        21     1      133.067047      455.587394
        11         9        16     1      128.834930      374.800908
        12        13        14     1      107.344955      698.639833
        12        13        15     1      107.344955      698.639833
        14        13        15     1      107.344955      698.639833
        16        17        18     1      117.799988      780.272332
        16        21        20     1      120.541611      830.921804
        16        21        24     1      121.940292      416.702389
        17        16        21     1      121.007568      679.121501
        17        18        19     1      116.979263      787.211466
        17        18        22     1      121.320633      444.110315
        18        19        20     1      124.826012      678.072692
        18        19        23     1      120.043800      426.975170
        19        18        22     1      121.334618      423.086123
        19        20        21     1      118.945755      562.387161
        20        19        23     1      115.309219      373.620934
        20        21        24     1      117.450455      372.903533
        25        27        28     1      109.327957      479.513176
        25        27        29     1      109.327957      479.513176
        25        27        30     1      111.779175      541.542878
        26        25        27     1      116.452293      436.262697
        27        30        31     1      109.511086      483.907889
        27        30        32     1      109.511086      483.907889
        27        30        33     1      110.695656      618.387232
        28        27        29     1      107.603111      350.410958
        28        27        30     1      109.469604      481.483555
        29        27        30     1      109.469604      481.483555
        30        33        34     1      107.990211      592.236339
        31        30        32     1      108.005699      339.614187
        31        30        33     1      109.379517      486.020542
        32        30        33     1      109.379517      486.020542

[ dihedrals ] ; propers for gromacs 4.5 or higher, use funct 9
;       ai        aj        ak        al funct           phase               k        pn
         1         2         3         4     9        0.000000       -0.111892         1
         1         2         3         4     9      180.000000       10.189820         2
         1         2         3         4     9        0.000000        0.435638         3
         1         2         3         4     9      180.000000       -0.598144         4
         1         2         3        25     9        0.000000        0.260168         1
         1         2         3        25     9      180.000000       13.172139         2
         1         2         3        25     9        0.000000        0.243913         3
         1         2         3        25     9      180.000000       -0.703720         4
         1         6         5         4     9        0.000000        0.269936         1
         1         6         5         4     9      180.000000       14.861908         2
         1         6         5         4     9        0.000000        0.762009         3
         1         6         5         4     9      180.000000       -0.175468         4
         1         6         5         7     9        0.000000        0.772875         1
         1         6         5         7     9      180.000000       19.002544         2
         1         6         5         7     9        0.000000        0.644666         3
         1         6         5         7     9      180.000000       -0.825169         4
         2         1         6         5     9        0.000000       -0.353239         1
         2         1         6         5     9      180.000000       18.624830         2
         2         1         6         5     9        0.000000       -1.206054         3
         2         1         6         5     9      180.000000       -0.227063         4
         2         1        13        12     9        0.000000       -0.472267         1
         2         1        13        12     9      180.000000        0.034015         2
         2         1        13        12     9        0.000000       -0.329599         3
         2         1        13        12     9      180.000000        0.040642         4
         2         1        13        14     9        0.000000       -0.472267         1
         2         1        13        14     9      180.000000        0.034015         2
         2         1        13        14     9        0.000000       -0.329599         3
         2         1        13        14     9      180.000000        0.040642         4
         2         1        13        15     9        0.000000       -0.472267         1
         2         1        13        15     9      180.000000        0.034015         2
         2         1        13        15     9        0.000000       -0.329599         3
         2         1        13        15     9      180.000000        0.040642         4
         2         3         4         5     9        0.000000       -0.176648         1
         2         3         4         5     9      180.000000       15.198363         2
         2         3         4         5     9        0.000000       -0.014512         3
         2         3         4         5     9      180.000000       -0.480391         4
         2         3        25        26     9        0.000000       -1.129603         1
         2         3        25        26     9      180.000000        8.869945         2
         2         3        25        26     9        0.000000       -0.564965         3
         2         3        25        26     9      180.000000       -0.456390         4
         2         3        25        27     9        0.000000        3.798726         1
         2         3        25        27     9      180.000000        7.355120         2
         2         3        25        27     9        0.000000        0.180997         3
         2         3        25        27     9      180.000000       -0.706660         4
         3         2         1         6     9        0.000000       -0.123928         1
         3         2         1         6     9      180.000000       16.826627         2
         3         2         1         6     9        0.000000       -0.774044         3
         3         2         1         6     9      180.000000       -0.609969         4
         3         2         1        13     9        0.000000        0.327205         1
         3         2         1        13     9      180.000000       16.243754         2
         3         2         1        13     9        0.000000        0.508644         3
         3         2         1        13     9      180.000000       -0.674340         4
         3         4         5         6     9        0.000000       -0.336431         1
         3         4         5         6     9      180.000000       14.900335         2
         3         4         5         6     9        0.000000        0.308131         3
         3         4         5         6     9      180.000000       -0.235782         4
         3         4         5         7     9        0.000000        0.713754         1
         3         4         5         7     9      180.000000       17.856503         2
         3         4         5         7     9        0.000000        0.449582         3
         3         4         5         7     9      180.000000       -0.760003         4
         3        25        27        28     9        0.000000       -0.168722         1
         3        25        27        28     9      180.000000        0.026833         2
         3        25        27        28     9        0.000000        0.535385         3
         3        25        27        28     9      180.000000        0.096829         4
         3        25        27        29     9        0.000000       -0.168722         1
         3        25        27        29     9      180.000000        0.026833         2
         3        25        27        29     9        0.000000        0.535385         3
         3        25        27        29     9      180.000000        0.096829         4
         3        25        27        30     9        0.000000       -0.565349         1
         3        25        27        30     9      180.000000       -0.877644         2
         3        25        27        30     9        0.000000        0.274872         3
         3        25        27        30     9      180.000000        0.073712         4
         4         3         2        10     9        0.000000       -0.437542         1
         4         3         2        10     9      180.000000       10.358094         2
         4         3         2        10     9        0.000000       -0.210902         3
         4         3         2        10     9      180.000000       -0.091467         4
         4         3        25        26     9        0.000000       -0.526003         1
         4         3        25        26     9      180.000000        9.832622         2
         4         3        25        26     9        0.000000       -0.230985         3
         4         3        25        26     9      180.000000       -0.668608         4
         4         3        25        27     9        0.000000       -1.178105         1
         4         3        25        27     9      180.000000        7.735493         2
         4         3        25        27     9        0.000000        0.626295         3
         4         3        25        27     9      180.000000       -0.999496         4
         4         5         7         8     9        0.000000        1.073273         1
         4         5         7         8     9      180.000000        3.871545         2
         4         5         7         8     9        0.000000        0.212284         3
         4         5         7         8     9      180.000000       -0.007674         4
         4         5         7        17     9        0.000000       -0.975276         1
         4         5         7        17     9      180.000000        4.623614         2
         4         5         7        17     9        0.000000       -0.373525         3
         4         5         7        17     9      180.000000        0.062273         4
         5         4         3        25     9        0.000000        0.069506         1
         5         4         3        25     9      180.000000       18.460693         2
         5         4         3        25     9        0.000000        0.194284         3
         5         4         3        25     9      180.000000       -0.799220         4
         5         6         1        13     9        0.000000        1.688899         1
         5         6         1        13     9      180.000000       18.227866         2
         5         6         1        13     9        0.000000        0.593043         3
         5         6         1        13     9      180.000000       -0.739594         4
         5         7         8         9     9        0.000000       -0.303532         1
         5         7         8         9     9      180.000000       25.294944         2
         5         7         8         9     9        0.000000        0.671157         3
         5         7         8         9     9      180.000000       -0.644468         4
         5         7        17        16     9        0.000000        0.256431         1
         5         7        17        16     9      180.000000       13.313515         2
         5         7        17        16     9        0.000000       -0.616313         3
         5         7        17        16     9      180.000000       -0.591624         4
         5         7        17        18     9        0.000000       -0.591966         1
         5         7        17        18     9      180.000000        5.569130         2
         5         7        17        18     9        0.000000        0.164784         3
         5         7        17        18     9      180.000000        0.036735         4
         6         1         2        10     9        0.000000       -0.191184         1
         6         1         2        10     9      180.000000       14.279245         2
         6         1         2        10     9        0.000000       -0.143139         3
         6         1         2        10     9      180.000000       -0.199999         4
         6         1        13        12     9        0.000000        0.281710         1
         6         1        13        12     9      180.000000       -0.213950         2
         6         1        13        12     9        0.000000        0.278822         3
         6         1        13        12     9      180.000000        0.053694         4
         6         1        13        14     9        0.000000        0.281710         1
         6         1        13        14     9      180.000000       -0.213950         2
         6         1        13        14     9        0.000000        0.278822         3
         6         1        13        14     9      180.000000        0.053694         4
         6         1        13        15     9        0.000000        0.281710         1
         6         1        13        15     9      180.000000       -0.213950         2
         6         1        13        15     9        0.000000        0.278822         3
         6         1        13        15     9      180.000000        0.053694         4
         6         5         7         8     9        0.000000        0.987932         1
         6         5         7         8     9      180.000000        4.001890         2
         6         5         7         8     9        0.000000        0.246176         3
         6         5         7         8     9      180.000000       -0.004675         4
         6         5         7        17     9        0.000000       -0.671199         1
         6         5         7        17     9      180.000000        4.819336         2
         6         5         7        17     9        0.000000       -0.267867         3
         6         5         7        17     9      180.000000        0.050864         4
         7         8         9        11     9        0.000000        1.623310         1
         7         8         9        11     9      180.000000        8.144695         2
         7         8         9        11     9        0.000000        0.378367         3
         7         8         9        11     9      180.000000       -0.183649         4
         7         8         9        16     9        0.000000       -0.548575         1
         7         8         9        16     9      180.000000       24.180901         2
         7         8         9        16     9        0.000000       -2.958913         3
         7         8         9        16     9      180.000000       -0.681283         4
         7        17        16         9     9        0.000000        0.058304         1
         7        17        16         9     9      180.000000       17.853436         2
         7        17        16         9     9        0.000000       -6.695998         3
         7        17        16         9     9      180.000000       -0.250175         4
         7        17        16        21     9        0.000000       -0.165388         1
         7        17        16        21     9      180.000000       10.294126         2
         7        17        16        21     9        0.000000       -3.231454         3
         7        17        16        21     9      180.000000        0.197275         4
         7        17        18        19     9        0.000000       -0.296975         1
         7        17        18        19     9      180.000000       12.784768         2
         7        17        18        19     9        0.000000       -1.046483         3
         7        17        18        19     9      180.000000       -0.061988         4
         7        17        18        22     9        0.000000       -0.028317         1
         7        17        18        22     9      180.000000       10.041005         2
         7        17        18        22     9        0.000000       -0.212939         3
         7        17        18        22     9      180.000000        0.117870         4
         8         7        17        16     9        0.000000       -0.341902         1
         8         7        17        16     9      180.000000       30.085735         2
         8         7        17        16     9        0.000000       -9.836242         3
         8         7        17        16     9      180.000000       -0.107699         4
         8         7        17        18     9        0.000000       -0.044937         1
         8         7        17        18     9      180.000000        4.933436         2
         8         7        17        18     9        0.000000       -1.300425         3
         8         7        17        18     9      180.000000        0.148613         4
         8         9        16        17     9        0.000000        0.194936         1
         8         9        16        17     9      180.000000       23.597243         2
         8         9        16        17     9        0.000000       -5.430477         3
         8         9        16        17     9      180.000000       -0.829628         4
         8         9        16        21     9        0.000000        0.412206         1
         8         9        16        21     9      180.000000        3.350860         2
         8         9        16        21     9        0.000000        0.043728         3
         8         9        16        21     9      180.000000        0.069682         4
         9         8         7        17     9        0.000000       -0.613297         1
         9         8         7        17     9      180.000000       37.305479         2
         9         8         7        17     9        0.000000       -4.406530         3
         9         8         7        17     9      180.000000       -0.150228         4
         9        16        17        18     9        0.000000        0.110206         1
         9        16        17        18     9      180.000000       10.954218         2
         9        16        17        18     9        0.000000       -2.568426         3
         9        16        17        18     9      180.000000        0.034393         4
         9        16        21        20     9        0.000000        0.032632         1
         9        16        21        20     9      180.000000       12.524037         2
         9        16        21        20     9        0.000000       -0.173560         3
         9        16        21        20     9      180.000000       -0.215845         4
         9        16        21        24     9        0.000000       -0.032327         1
         9        16        21        24     9      180.000000       10.339830         2
         9        16        21        24     9        0.000000        0.001234         3
         9        16        21        24     9      180.000000        0.112604         4
        10         2         1        13     9        0.000000        0.379947         1
        10         2         1        13     9      180.000000       11.760439         2
        10         2         1        13     9        0.000000       -0.142729         3
        10         2         1        13     9      180.000000        0.049537         4
        10         2         3        25     9        0.000000       -0.370441         1
        10         2         3        25     9      180.000000       11.252211         2
        10         2         3        25     9        0.000000       -0.159815         3
        10         2         3        25     9      180.000000        0.005320         4
        11         9        16        17     9        0.000000        0.311216         1
        11         9        16        17     9      180.000000        1.693480         2
        11         9        16        17     9        0.000000        0.353576         3
        11         9        16        17     9      180.000000        0.068700         4
        11         9        16        21     9        0.000000       -0.870728         1
        11         9        16        21     9      180.000000        0.866219         2
        11         9        16        21     9        0.000000        0.007681         3
        11         9        16        21     9      180.000000       -0.109409         4
        16        17        18        19     9        0.000000       -0.061711         1
        16        17        18        19     9      180.000000       18.944964         2
        16        17        18        19     9        0.000000       -2.427944         3
        16        17        18        19     9      180.000000       -0.347962         4
        16        17        18        22     9        0.000000        0.181372         1
        16        17        18        22     9      180.000000       13.750310         2
        16        17        18        22     9        0.000000       -0.344330         3
        16        17        18        22     9      180.000000       -0.056440         4
        16        21        20        19     9        0.000000        0.083161         1
        16        21        20        19     9      180.000000       27.324781         2
        16        21        20        19     9        0.000000       -1.341266         3
        16        21        20        19     9      180.000000       -0.118165         4
        17        16        21        20     9        0.000000       -0.060397         1
        17        16        21        20     9      180.000000       15.723294         2
        17        16        21        20     9        0.000000       -1.284027         3
        17        16        21        20     9      180.000000       -0.340402         4
        17        16        21        24     9        0.000000        0.322853         1
        17        16        21        24     9      180.000000       11.998986         2
        17        16        21        24     9        0.000000       -0.126220         3
        17        16        21        24     9      180.000000       -0.020307         4
        17        18        19        20     9        0.000000       -0.221903         1
        17        18        19        20     9      180.000000       21.877841         2
        17        18        19        20     9        0.000000       -1.144522         3
        17        18        19        20     9      180.000000       -0.756509         4
        17        18        19        23     9        0.000000        0.068613         1
        17        18        19        23     9      180.000000       16.837528         2
        17        18        19        23     9        0.000000       -0.310403         3
        17        18        19        23     9      180.000000       -0.221338         4
        18        17        16        21     9        0.000000       -0.275457         1
        18        17        16        21     9      180.000000       10.076845         2
        18        17        16        21     9        0.000000       -2.210664         3
        18        17        16        21     9      180.000000        0.110542         4
        18        19        20        21     9        0.000000        0.035626         1
        18        19        20        21     9      180.000000       19.711039         2
        18        19        20        21     9        0.000000       -0.852193         3
        18        19        20        21     9      180.000000       -0.037167         4
        19        20        21        24     9        0.000000        1.316701         1
        19        20        21        24     9      180.000000       22.599628         2
        19        20        21        24     9        0.000000        0.221533         3
        19        20        21        24     9      180.000000       -0.103668         4
        20        19        18        22     9        0.000000        0.009126         1
        20        19        18        22     9      180.000000       15.422986         2
        20        19        18        22     9        0.000000       -0.189585         3
        20        19        18        22     9      180.000000        0.044118         4
        21        20        19        23     9        0.000000        1.090743         1
        21        20        19        23     9      180.000000       19.374287         2
        21        20        19        23     9        0.000000        0.029003         3
        21        20        19        23     9      180.000000       -0.325534         4
        22        18        19        23     9        0.000000       -0.179165         1
        22        18        19        23     9      180.000000       12.396864         2
        22        18        19        23     9        0.000000       -0.519251         3
        22        18        19        23     9      180.000000        0.348089         4
        25        27        30        31     9        0.000000        0.144182         1
        25        27        30        31     9      180.000000        0.291130         2
        25        27        30        31     9        0.000000        0.793580         3
        25        27        30        31     9      180.000000        0.088588         4
        25        27        30        32     9        0.000000        0.144182         1
        25        27        30        32     9      180.000000        0.291130         2
        25        27        30        32     9        0.000000        0.793580         3
        25        27        30        32     9      180.000000        0.088588         4
        25        27        30        33     9        0.000000        2.016781         1
        25        27        30        33     9      180.000000       -1.762400         2
        25        27        30        33     9        0.000000        0.731407         3
        25        27        30        33     9      180.000000       -0.208741         4
        26        25        27        28     9        0.000000       -0.127764         1
        26        25        27        28     9      180.000000        0.084160         2
        26        25        27        28     9        0.000000        0.489787         3
        26        25        27        28     9      180.000000        0.014154         4
        26        25        27        29     9        0.000000       -0.127764         1
        26        25        27        29     9      180.000000        0.084160         2
        26        25        27        29     9        0.000000        0.489787         3
        26        25        27        29     9      180.000000        0.014154         4
        26        25        27        30     9        0.000000        0.857186         1
        26        25        27        30     9      180.000000       -1.600298         2
        26        25        27        30     9        0.000000        0.281944         3
        26        25        27        30     9      180.000000       -0.084314         4
        27        30        33        34     9        0.000000        5.495766         1
        27        30        33        34     9      180.000000       -3.184795         2
        27        30        33        34     9        0.000000        1.399844         3
        27        30        33        34     9      180.000000        0.012923         4
        28        27        30        31     9        0.000000       -0.110088         1
        28        27        30        31     9      180.000000        0.008325         2
        28        27        30        31     9        0.000000        0.721851         3
        28        27        30        31     9      180.000000       -0.019773         4
        28        27        30        32     9        0.000000       -0.110088         1
        28        27        30        32     9      180.000000        0.008325         2
        28        27        30        32     9        0.000000        0.721851         3
        28        27        30        32     9      180.000000       -0.019773         4
        28        27        30        33     9        0.000000        0.126138         1
        28        27        30        33     9      180.000000        0.093726         2
        28        27        30        33     9        0.000000        0.663369         3
        28        27        30        33     9      180.000000        0.070029         4
        29        27        30        31     9        0.000000       -0.110088         1
        29        27        30        31     9      180.000000        0.008325         2
        29        27        30        31     9        0.000000        0.721851         3
        29        27        30        31     9      180.000000       -0.019773         4
        29        27        30        32     9        0.000000       -0.110088         1
        29        27        30        32     9      180.000000        0.008325         2
        29        27        30        32     9        0.000000        0.721851         3
        29        27        30        32     9      180.000000       -0.019773         4
        29        27        30        33     9        0.000000        0.126138         1
        29        27        30        33     9      180.000000        0.093726         2
        29        27        30        33     9        0.000000        0.663369         3
        29        27        30        33     9      180.000000        0.070029         4
        31        30        33        34     9        0.000000       -0.249315         1
        31        30        33        34     9      180.000000       -0.033420         2
        31        30        33        34     9        0.000000        0.903921         3
        31        30        33        34     9      180.000000        0.106383         4
        32        30        33        34     9        0.000000       -0.249315         1
        32        30        33        34     9      180.000000       -0.033420         2
        32        30        33        34     9        0.000000        0.903921         3
        32        30        33        34     9      180.000000        0.106383         4

[ dihedrals ] ; impropers
;       ai        aj        ak        al funct           phase               k        pn
         1         2         6        13     4      180.000000        3.959674         2
         1         6        13         2     4      180.000000        3.959674         2
         1        13         2         6     4      180.000000        3.959674         2
         3         2         4        25     4      180.000000        8.380977         2
         3         4        25         2     4      180.000000        8.380977         2
         3        25         2         4     4      180.000000        8.380977         2
         5         4         6         7     4      180.000000       27.893333         2
         5         6         7         4     4      180.000000       27.893333         2
         5         7         4         6     4      180.000000       27.893333         2
        21        16        20        24     4      180.000000        0.992098         2
        21        20        24        16     4      180.000000        0.992098         2
        21        24        16        20     4      180.000000        0.992098         2

[ pairs ]
;       ai        aj funct
         1         4     1
         1         7     1
         1        25     1
         2         5     1
         2        12     1
         2        14     1
         2        15     1
         2        26     1
         2        27     1
         3         6     1
         3         7     1
         3        13     1
         3        28     1
         3        29     1
         3        30     1
         4         8     1
         4        10     1
         4        17     1
         4        26     1
         4        27     1
         5         9     1
         5        13     1
         5        16     1
         5        18     1
         5        25     1
         6         8     1
         6        10     1
         6        12     1
         6        14     1
         6        15     1
         6        17     1
         7        11     1
         7        19     1
         7        21     1
         7        22     1
         8        18     1
         8        21     1
         9        18     1
         9        20     1
         9        24     1
        10        13     1
        10        25     1
        11        17     1
        11        21     1
        16        19     1
        16        22     1
        17        20     1
        17        23     1
        17        24     1
        18        21     1
        19        24     1
        20        22     1
        21        23     1
        22        23     1
        25        31     1
        25        32     1
        25        33     1
        26        28     1
        26        29     1
        26        30     1
        27        34     1
        28        31     1
        28        32     1
        28        33     1
        29        31     1
        29        32     1
        29        33     1
        31        34     1
        32        34     1
