; ITP file created by ByteFF-ML, 2025-12-06 03:32:53.753438

[ atomtypes ]
;name           bonded.type        at.num        mass        charge   ptype           sigma         epsilon
 cl0bf                                 17      0.0000       0.00000       A     3.46706e-01     1.10461e+00
 c1bf                                   6      0.0000       0.00000       A     3.31473e-01     4.12879e-01
 c2bf                                   6      0.0000       0.00000       A     3.31475e-01     4.13332e-01
 n3bf                                   7      0.0000       0.00000       A     3.38270e-01     3.91787e-01
 c4bf                                   6      0.0000       0.00000       A     3.31500e-01     4.14062e-01
 c5bf                                   6      0.0000       0.00000       A     3.31458e-01     4.13264e-01
 n6bf                                   7      0.0000       0.00000       A     3.38459e-01     3.93169e-01
 c7bf                                   6      0.0000       0.00000       A     3.31375e-01     4.13230e-01
 n8bf                                   7      0.0000       0.00000       A     3.38259e-01     3.92424e-01
 n9bf                                   7      0.0000       0.00000       A     3.20483e-01     8.55295e-01
 c10bf                                  6      0.0000       0.00000       A     3.31555e-01     4.13404e-01
 n11bf                                  7      0.0000       0.00000       A     3.38259e-01     3.94409e-01
 h12bf                                  1      0.0000       0.00000       A     2.53530e-01     6.68482e-02
 h13bf                                  1      0.0000       0.00000       A     2.53911e-01     6.70620e-02
 h14bf                                  1      0.0000       0.00000       A     1.10600e-01     4.04635e-02
 h15bf                                  1      0.0000       0.00000       A     2.45555e-01     6.72520e-02

[ moleculetype ]
;name             nrexcl
 3                     3

[ atoms ]
;       nr            type      resi   res      atom      cgnr      charge          mass ; qtot
         1           cl0bf         1   UNL       cl0         1    -0.15089       35.4530 ; qtot   -0.151
         2            c1bf         1   UNL        c1         2     0.39288       12.0110 ; qtot    0.242
         3            c2bf         1   UNL        c2         3     0.30909       12.0110 ; qtot    0.551
         4            n3bf         1   UNL        n3         4    -0.62512       14.0070 ; qtot   -0.074
         5            c4bf         1   UNL        c4         5     0.32049       12.0110 ; qtot    0.246
         6            c5bf         1   UNL        c5         6     0.28410       12.0110 ; qtot    0.531
         7            n6bf         1   UNL        n6         7    -0.60028       14.0070 ; qtot   -0.070
         8            c7bf         1   UNL        c7         8     0.46790       12.0110 ; qtot    0.398
         9            n8bf         1   UNL        n8         9    -0.49653       14.0070 ; qtot   -0.098
        10            n9bf         1   UNL        n9        10    -0.20577       14.0070 ; qtot   -0.304
        11           c10bf         1   UNL       c10        11     0.42571       12.0110 ; qtot    0.122
        12           n11bf         1   UNL       n11        12    -0.67806       14.0070 ; qtot   -0.556
        13           h12bf         1   UNL       h12        13     0.05272        1.0080 ; qtot   -0.504
        14           h13bf         1   UNL       h13        14     0.05387        1.0080 ; qtot   -0.450
        15           h14bf         1   UNL       h14        15     0.38205        1.0080 ; qtot   -0.068
        16           h15bf         1   UNL       h15        16     0.06784        1.0080 ; qtot   -0.000

[ bonds ]
;       ai        aj funct               r               k
         1         2     1        0.175402   137120.512842
         2         3     1        0.140580   251598.803027
         2         7     1        0.131601   331084.894629
         3         4     1        0.133532   321780.397754
         3        13     1        0.108601   323613.860059
         4         5     1        0.133591   331467.185156
         5         6     1        0.140740   260554.973730
         5        14     1        0.108507   325430.902002
         6         7     1        0.134459   294470.144727
         6         8     1        0.147033   224842.373291
         8         9     1        0.133556   325148.129590
         8        12     1        0.137359   239368.672754
         9        10     1        0.135415   255397.448047
        10        11     1        0.135508   310409.029395
        10        15     1        0.101096   433645.960742
        11        12     1        0.131918   376991.475000
        11        16     1        0.108153   336903.473926

[ angles ]
;       ai        aj        ak funct           theta             cth
         1         2         3     1      119.035141      312.800797
         1         2         7     1      117.695267      465.402071
         2         3         4     1      120.357262      585.765107
         2         3        13     1      121.460022      409.876830
         2         7         6     1      116.838661      765.092499
         3         2         7     1      123.040916      699.867849
         3         4         5     1      117.391068      824.318929
         4         3        13     1      118.104042      338.962416
         4         5         6     1      121.774315      749.676002
         4         5        14     1      117.684830      339.265797
         5         6         7     1      120.924088      607.742982
         5         6         8     1      120.292397      575.376867
         6         5        14     1      120.249374      404.908809
         6         8         9     1      122.717247      463.453334
         6         8        12     1      123.108315      464.261680
         7         6         8     1      117.945007      459.400691
         8         9        10     1      102.401596      476.013443
         8        12        11     1      103.381668      479.530222
         9         8        12     1      114.162392      167.360000
         9        10        11     1      110.410622      167.360000
         9        10        15     1      119.854248      461.409344
        10        11        12     1      109.841797      229.220407
        10        11        16     1      123.584068      435.354598
        11        10        15     1      129.790680      339.693959
        12        11        16     1      126.630814      305.921483

[ dihedrals ] ; propers for gromacs 4.5 or higher, use funct 9
;       ai        aj        ak        al funct           phase               k        pn
         1         2         3         4     9        0.000000       -0.139560         1
         1         2         3         4     9      180.000000       12.935450         2
         1         2         3         4     9        0.000000        0.131704         3
         1         2         3         4     9      180.000000       -0.607874         4
         1         2         3        13     9        0.000000       -0.050406         1
         1         2         3        13     9      180.000000       10.501527         2
         1         2         3        13     9        0.000000       -0.247747         3
         1         2         3        13     9      180.000000        0.000092         4
         1         2         7         6     9        0.000000        0.300399         1
         1         2         7         6     9      180.000000       28.178099         2
         1         2         7         6     9        0.000000        0.743352         3
         1         2         7         6     9      180.000000       -1.185301         4
         2         3         4         5     9        0.000000        0.067321         1
         2         3         4         5     9      180.000000       21.680439         2
         2         3         4         5     9        0.000000       -0.892487         3
         2         3         4         5     9      180.000000       -0.083266         4
         2         7         6         5     9        0.000000       -0.113080         1
         2         7         6         5     9      180.000000       19.175458         2
         2         7         6         5     9        0.000000       -0.394029         3
         2         7         6         5     9      180.000000       -0.316026         4
         2         7         6         8     9        0.000000        0.565138         1
         2         7         6         8     9      180.000000       22.286066         2
         2         7         6         8     9        0.000000        0.731399         3
         2         7         6         8     9      180.000000       -1.050746         4
         3         2         7         6     9        0.000000        0.383966         1
         3         2         7         6     9      180.000000       21.293785         2
         3         2         7         6     9        0.000000       -0.135084         3
         3         2         7         6     9      180.000000       -0.263177         4
         3         4         5         6     9        0.000000        0.113873         1
         3         4         5         6     9      180.000000       22.019492         2
         3         4         5         6     9        0.000000       -0.484221         3
         3         4         5         6     9      180.000000       -0.250317         4
         3         4         5        14     9        0.000000        0.836631         1
         3         4         5        14     9      180.000000       19.259226         2
         3         4         5        14     9        0.000000        0.301740         3
         3         4         5        14     9      180.000000       -0.299229         4
         4         3         2         7     9        0.000000       -0.653064         1
         4         3         2         7     9      180.000000       11.260673         2
         4         3         2         7     9        0.000000        0.025859         3
         4         3         2         7     9      180.000000       -0.539616         4
         4         5         6         7     9        0.000000       -0.573240         1
         4         5         6         7     9      180.000000       12.601641         2
         4         5         6         7     9        0.000000        0.056224         3
         4         5         6         7     9      180.000000       -0.504073         4
         4         5         6         8     9        0.000000       -0.287252         1
         4         5         6         8     9      180.000000       13.500315         2
         4         5         6         8     9        0.000000        0.136634         3
         4         5         6         8     9      180.000000       -0.540989         4
         5         4         3        13     9        0.000000        0.641682         1
         5         4         3        13     9      180.000000       19.271234         2
         5         4         3        13     9        0.000000        0.272145         3
         5         4         3        13     9      180.000000       -0.353812         4
         5         6         8         9     9        0.000000        0.390201         1
         5         6         8         9     9      180.000000        2.977257         2
         5         6         8         9     9        0.000000       -0.215319         3
         5         6         8         9     9      180.000000       -0.008575         4
         5         6         8        12     9        0.000000        0.395389         1
         5         6         8        12     9      180.000000        3.093228         2
         5         6         8        12     9        0.000000       -0.405610         3
         5         6         8        12     9      180.000000        0.020711         4
         6         8         9        10     9        0.000000        0.150394         1
         6         8         9        10     9      180.000000       30.421714         2
         6         8         9        10     9        0.000000        0.683989         3
         6         8         9        10     9      180.000000       -0.882046         4
         6         8        12        11     9        0.000000        0.587133         1
         6         8        12        11     9      180.000000       22.399349         2
         6         8        12        11     9        0.000000        0.374023         3
         6         8        12        11     9      180.000000       -0.447993         4
         7         2         3        13     9        0.000000       -0.090382         1
         7         2         3        13     9      180.000000        9.535320         2
         7         2         3        13     9        0.000000       -0.274333         3
         7         2         3        13     9      180.000000       -0.179214         4
         7         6         5        14     9        0.000000       -0.249865         1
         7         6         5        14     9      180.000000        9.896219         2
         7         6         5        14     9        0.000000       -0.240113         3
         7         6         5        14     9      180.000000       -0.060084         4
         7         6         8         9     9        0.000000       -1.708702         1
         7         6         8         9     9      180.000000        3.358090         2
         7         6         8         9     9        0.000000        0.037227         3
         7         6         8         9     9      180.000000       -0.022371         4
         7         6         8        12     9        0.000000       -2.829403         1
         7         6         8        12     9      180.000000        3.602116         2
         7         6         8        12     9        0.000000        0.302695         3
         7         6         8        12     9      180.000000       -0.086614         4
         8         6         5        14     9        0.000000        0.178656         1
         8         6         5        14     9      180.000000       11.583713         2
         8         6         5        14     9        0.000000       -0.093360         3
         8         6         5        14     9      180.000000       -0.050237         4
         8         9        10        11     9        0.000000       -0.490292         1
         8         9        10        11     9      180.000000       22.459904         2
         8         9        10        11     9        0.000000       -3.455358         3
         8         9        10        11     9      180.000000       -0.217444         4
         8         9        10        15     9        0.000000        1.972599         1
         8         9        10        15     9      180.000000        7.055265         2
         8         9        10        15     9        0.000000       -0.051869         3
         8         9        10        15     9      180.000000        0.060778         4
         8        12        11        10     9        0.000000       -0.160181         1
         8        12        11        10     9      180.000000       41.392183         2
         8        12        11        10     9        0.000000       -6.140603         3
         8        12        11        10     9      180.000000        0.015791         4
         8        12        11        16     9        0.000000        1.647499         1
         8        12        11        16     9      180.000000       26.096719         2
         8        12        11        16     9        0.000000        0.403294         3
         8        12        11        16     9      180.000000       -0.205837         4
         9         8        12        11     9        0.000000       -0.483511         1
         9         8        12        11     9      180.000000       35.546511         2
         9         8        12        11     9        0.000000       -6.738272         3
         9         8        12        11     9      180.000000        0.077591         4
         9        10        11        12     9        0.000000        0.040664         1
         9        10        11        12     9      180.000000       33.154947         2
         9        10        11        12     9        0.000000       -6.904208         3
         9        10        11        12     9      180.000000       -0.414051         4
         9        10        11        16     9        0.000000        2.078080         1
         9        10        11        16     9      180.000000       16.023668         2
         9        10        11        16     9        0.000000        0.261556         3
         9        10        11        16     9      180.000000       -0.586769         4
        10         9         8        12     9        0.000000       -0.316215         1
        10         9         8        12     9      180.000000       45.039616         2
        10         9         8        12     9        0.000000       -6.822393         3
        10         9         8        12     9      180.000000        0.025566         4
        12        11        10        15     9        0.000000        1.074373         1
        12        11        10        15     9      180.000000        7.755705         2
        12        11        10        15     9        0.000000        0.081275         3
        12        11        10        15     9      180.000000       -0.128841         4
        15        10        11        16     9        0.000000       -1.284504         1
        15        10        11        16     9      180.000000        2.893690         2
        15        10        11        16     9        0.000000       -0.079111         3
        15        10        11        16     9      180.000000       -0.072945         4

[ dihedrals ] ; impropers
;       ai        aj        ak        al funct           phase               k        pn
         2         1         3         7     4      180.000000       13.911916         2
         2         3         7         1     4      180.000000       13.911916         2
         2         7         1         3     4      180.000000       13.911916         2
         3         2         4        13     4      180.000000        2.978622         2
         3         4        13         2     4      180.000000        2.978622         2
         3        13         2         4     4      180.000000        2.978622         2
         5         4         6        14     4      180.000000        5.120341         2
         5         6        14         4     4      180.000000        5.120341         2
         5        14         4         6     4      180.000000        5.120341         2
         6         5         7         8     4      180.000000        2.171880         2
         6         7         8         5     4      180.000000        2.171880         2
         6         8         5         7     4      180.000000        2.171880         2
        11        10        12        16     4      180.000000        1.244166         2
        11        12        16        10     4      180.000000        1.244166         2
        11        16        10        12     4      180.000000        1.244166         2

[ pairs ]
;       ai        aj funct
         1         4     1
         1         6     1
         1        13     1
         2         5     1
         2         8     1
         3         6     1
         3        14     1
         4         7     1
         4         8     1
         5         9     1
         5        12     1
         5        13     1
         6        10     1
         6        11     1
         7         9     1
         7        12     1
         7        13     1
         7        14     1
         8        14     1
         8        15     1
         8        16     1
         9        16     1
        12        15     1
        15        16     1
