; ITP file created by ByteFF-ML, 2025-12-06 03:34:19.540626

[ atomtypes ]
;name           bonded.type        at.num        mass        charge   ptype           sigma         epsilon
 c0bf                                   6      0.0000       0.00000       A     3.31505e-01     4.11660e-01
 c1bf                                   6      0.0000       0.00000       A     3.31611e-01     4.12571e-01
 c2bf                                   6      0.0000       0.00000       A     3.31491e-01     4.13293e-01
 c3bf                                   6      0.0000       0.00000       A     3.31516e-01     4.12978e-01
 c4bf                                   6      0.0000       0.00000       A     3.31589e-01     4.13483e-01
 n5bf                                   7      0.0000       0.00000       A     3.38409e-01     3.92636e-01
 c6bf                                   6      0.0000       0.00000       A     3.31350e-01     4.12632e-01
 n7bf                                   7      0.0000       0.00000       A     3.38247e-01     3.92764e-01
 n8bf                                   7      0.0000       0.00000       A     3.20483e-01     8.55295e-01
 c9bf                                   6      0.0000       0.00000       A     3.31555e-01     4.13404e-01
 n10bf                                  7      0.0000       0.00000       A     3.38262e-01     3.94371e-01
 h11bf                                  1      0.0000       0.00000       A     2.62312e-01     6.67157e-02
 h12bf                                  1      0.0000       0.00000       A     2.62522e-01     6.74515e-02
 h13bf                                  1      0.0000       0.00000       A     1.10600e-01     4.04635e-02
 h14bf                                  1      0.0000       0.00000       A     2.45555e-01     6.72520e-02
 h15bf                                  1      0.0000       0.00000       A     2.62586e-01     6.75137e-02
 o16bf                                  8      0.0000       0.00000       A     3.15740e-01     3.04185e-01
 c17bf                                  6      0.0000       0.00000       A     3.39743e-01     4.50034e-01
 h18bf                                  1      0.0000       0.00000       A     2.42098e-01     8.72826e-02
 h19bf                                  1      0.0000       0.00000       A     2.42098e-01     8.72826e-02
 h20bf                                  1      0.0000       0.00000       A     2.42098e-01     8.72826e-02

[ moleculetype ]
;name             nrexcl
 6                     3

[ atoms ]
;       nr            type      resi   res      atom      cgnr      charge          mass ; qtot
         1            c0bf         1   UNL        c0         1     0.57051       12.0110 ; qtot    0.571
         2            c1bf         1   UNL        c1         2    -0.18045       12.0110 ; qtot    0.390
         3            c2bf         1   UNL        c2         3    -0.05211       12.0110 ; qtot    0.338
         4            c3bf         1   UNL        c3         4    -0.15639       12.0110 ; qtot    0.182
         5            c4bf         1   UNL        c4         5     0.34421       12.0110 ; qtot    0.526
         6            n5bf         1   UNL        n5         6    -0.72768       14.0070 ; qtot   -0.202
         7            c6bf         1   UNL        c6         7     0.47456       12.0110 ; qtot    0.273
         8            n7bf         1   UNL        n7         8    -0.50217       14.0070 ; qtot   -0.230
         9            n8bf         1   UNL        n8         9    -0.20751       14.0070 ; qtot   -0.437
        10            c9bf         1   UNL        c9        10     0.42406       12.0110 ; qtot   -0.013
        11           n10bf         1   UNL       n10        11    -0.68115       14.0070 ; qtot   -0.694
        12           h11bf         1   UNL       h11        12     0.14013        1.0080 ; qtot   -0.554
        13           h12bf         1   UNL       h12        13     0.14668        1.0080 ; qtot   -0.407
        14           h13bf         1   UNL       h13        14     0.38205        1.0080 ; qtot   -0.025
        15           h14bf         1   UNL       h14        15     0.06785        1.0080 ; qtot    0.043
        16           h15bf         1   UNL       h15        16     0.12044        1.0080 ; qtot    0.163
        17           o16bf         1   UNL       o16        17    -0.46782       15.9990 ; qtot   -0.305
        18           c17bf         1   UNL       c17        18     0.15241       12.0110 ; qtot   -0.152
        19           h18bf         1   UNL       h18        19     0.05080        1.0080 ; qtot   -0.102
        20           h19bf         1   UNL       h19        20     0.05080        1.0080 ; qtot   -0.051
        21           h20bf         1   UNL       h20        21     0.05078        1.0080 ; qtot   -0.000

[ bonds ]
;       ai        aj funct               r               k
         1         2     1        0.140991   261336.434814
         1         6     1        0.132566   317122.582227
         1        17     1        0.135556   274916.865283
         2         3     1        0.139025   334749.852881
         2        12     1        0.108356   327438.144336
         3         4     1        0.139816   314540.244189
         3        16     1        0.108640   319825.991699
         4         5     1        0.140240   282841.464453
         4        13     1        0.108298   329023.590234
         5         6     1        0.134698   295557.795752
         5         7     1        0.147490   220073.803320
         7         8     1        0.133605   323620.576318
         7        11     1        0.137524   235725.216748
         8         9     1        0.135461   254732.410645
         9        10     1        0.135508   310409.003857
         9        14     1        0.101096   433645.960742
        10        11     1        0.131908   377183.360840
        10        15     1        0.108153   336903.473926
        17        18     1        0.143539   193755.603149
        18        19     1        0.109204   305081.145654
        18        20     1        0.109204   305081.145654
        18        21     1        0.109204   305081.145654

[ angles ]
;       ai        aj        ak funct           theta             cth
         1         2         3     1      117.520164      765.095883
         1         2        12     1      120.209610      425.636004
         1         6         5     1      118.068771      795.698916
         1        17        18     1      116.815170      555.243154
         2         1         6     1      123.562889      622.548377
         2         1        17     1      116.981102      519.849040
         2         3         4     1      119.781052      771.207552
         2         3        16     1      119.958580      440.742257
         3         2        12     1      122.335831      430.896329
         3         4         5     1      117.993057      722.301944
         3         4        13     1      122.047958      417.709317
         4         3        16     1      120.202370      441.935830
         4         5         6     1      122.831703      605.191059
         4         5         7     1      119.594620      533.168462
         5         4        13     1      119.692947      429.089834
         5         7         8     1      122.914467      464.237260
         5         7        11     1      123.243813      461.461536
         6         1        17     1      119.202377      581.455082
         6         5         7     1      116.798462      437.148005
         7         8         9     1      102.434875      477.728227
         7        11        10     1      103.424484      481.927039
         8         7        11     1      113.977577      176.178937
         8         9        10     1      110.406410      167.360000
         8         9        14     1      119.847046      461.741774
         9        10        11     1      109.849510      227.222512
         9        10        15     1      123.584068      435.354661
        10         9        14     1      129.790680      339.693959
        11        10        15     1      126.633133      305.944594
        17        18        19     1      109.008400      455.155977
        17        18        20     1      109.008408      455.155913
        17        18        21     1      109.008408      455.155913
        19        18        20     1      110.063782      339.546833
        19        18        21     1      110.063766      339.546833
        20        18        21     1      110.063766      339.546833

[ dihedrals ] ; propers for gromacs 4.5 or higher, use funct 9
;       ai        aj        ak        al funct           phase               k        pn
         1         2         3         4     9        0.000000       -0.023901         1
         1         2         3         4     9      180.000000       18.648877         2
         1         2         3         4     9        0.000000       -1.891726         3
         1         2         3         4     9      180.000000       -0.400964         4
         1         2         3        16     9        0.000000        0.162947         1
         1         2         3        16     9      180.000000       14.215947         2
         1         2         3        16     9        0.000000       -0.541396         3
         1         2         3        16     9      180.000000        0.061523         4
         1         6         5         4     9        0.000000       -0.171625         1
         1         6         5         4     9      180.000000       20.249264         2
         1         6         5         4     9        0.000000       -0.454851         3
         1         6         5         4     9      180.000000       -0.421487         4
         1         6         5         7     9        0.000000        0.521711         1
         1         6         5         7     9      180.000000       22.073884         2
         1         6         5         7     9        0.000000        0.816065         3
         1         6         5         7     9      180.000000       -0.982526         4
         1        17        18        19     9        0.000000        0.039340         1
         1        17        18        19     9      180.000000        0.060361         2
         1        17        18        19     9        0.000000        0.407236         3
         1        17        18        19     9      180.000000       -0.000329         4
         1        17        18        20     9        0.000000        0.039340         1
         1        17        18        20     9      180.000000        0.060361         2
         1        17        18        20     9        0.000000        0.407236         3
         1        17        18        20     9      180.000000       -0.000329         4
         1        17        18        21     9        0.000000        0.039340         1
         1        17        18        21     9      180.000000        0.060361         2
         1        17        18        21     9        0.000000        0.407236         3
         1        17        18        21     9      180.000000       -0.000329         4
         2         1         6         5     9        0.000000        0.659319         1
         2         1         6         5     9      180.000000       19.616410         2
         2         1         6         5     9        0.000000        0.537325         3
         2         1         6         5     9      180.000000       -0.446009         4
         2         1        17        18     9        0.000000       -1.426937         1
         2         1        17        18     9      180.000000        7.655839         2
         2         1        17        18     9        0.000000       -0.513533         3
         2         1        17        18     9      180.000000        0.644979         4
         2         3         4         5     9        0.000000       -0.048474         1
         2         3         4         5     9      180.000000       18.275860         2
         2         3         4         5     9        0.000000       -1.564806         3
         2         3         4         5     9      180.000000       -0.395283         4
         2         3         4        13     9        0.000000        0.057823         1
         2         3         4        13     9      180.000000       14.513223         2
         2         3         4        13     9        0.000000       -0.679273         3
         2         3         4        13     9      180.000000        0.101616         4
         3         2         1         6     9        0.000000       -0.014226         1
         3         2         1         6     9      180.000000       11.411992         2
         3         2         1         6     9        0.000000       -0.091135         3
         3         2         1         6     9      180.000000       -0.348873         4
         3         2         1        17     9        0.000000        0.537016         1
         3         2         1        17     9      180.000000       14.610153         2
         3         2         1        17     9        0.000000        0.628658         3
         3         2         1        17     9      180.000000       -0.526323         4
         3         4         5         6     9        0.000000       -0.122722         1
         3         4         5         6     9      180.000000       16.437976         2
         3         4         5         6     9        0.000000       -0.618900         3
         3         4         5         6     9      180.000000       -0.394446         4
         3         4         5         7     9        0.000000        0.168086         1
         3         4         5         7     9      180.000000       15.651748         2
         3         4         5         7     9        0.000000        0.000371         3
         3         4         5         7     9      180.000000       -0.457553         4
         4         3         2        12     9        0.000000        0.134777         1
         4         3         2        12     9      180.000000       14.231546         2
         4         3         2        12     9        0.000000       -0.563760         3
         4         3         2        12     9      180.000000        0.147671         4
         4         5         7         8     9        0.000000        0.235729         1
         4         5         7         8     9      180.000000        3.027296         2
         4         5         7         8     9        0.000000       -0.183477         3
         4         5         7         8     9      180.000000        0.016199         4
         4         5         7        11     9        0.000000        0.446073         1
         4         5         7        11     9      180.000000        3.172013         2
         4         5         7        11     9        0.000000       -0.420866         3
         4         5         7        11     9      180.000000        0.026855         4
         5         4         3        16     9        0.000000        0.073731         1
         5         4         3        16     9      180.000000       13.741351         2
         5         4         3        16     9        0.000000       -0.527224         3
         5         4         3        16     9      180.000000        0.184248         4
         5         6         1        17     9        0.000000        1.350428         1
         5         6         1        17     9      180.000000       24.646682         2
         5         6         1        17     9        0.000000        1.174001         3
         5         6         1        17     9      180.000000       -0.978145         4
         5         7         8         9     9        0.000000        0.395706         1
         5         7         8         9     9      180.000000       29.536496         2
         5         7         8         9     9        0.000000        0.798429         3
         5         7         8         9     9      180.000000       -0.874128         4
         5         7        11        10     9        0.000000        0.862747         1
         5         7        11        10     9      180.000000       21.905573         2
         5         7        11        10     9        0.000000        0.500277         3
         5         7        11        10     9      180.000000       -0.428558         4
         6         1         2        12     9        0.000000       -0.108183         1
         6         1         2        12     9      180.000000        9.480582         2
         6         1         2        12     9        0.000000       -0.274428         3
         6         1         2        12     9      180.000000       -0.234722         4
         6         1        17        18     9        0.000000        2.497987         1
         6         1        17        18     9      180.000000        7.222841         2
         6         1        17        18     9        0.000000        0.025992         3
         6         1        17        18     9      180.000000        0.274380         4
         6         5         4        13     9        0.000000        0.060748         1
         6         5         4        13     9      180.000000       12.522228         2
         6         5         4        13     9        0.000000       -0.356036         3
         6         5         4        13     9      180.000000       -0.040167         4
         6         5         7         8     9        0.000000       -1.599886         1
         6         5         7         8     9      180.000000        3.309453         2
         6         5         7         8     9        0.000000       -0.036015         3
         6         5         7         8     9      180.000000       -0.003575         4
         6         5         7        11     9        0.000000       -2.691463         1
         6         5         7        11     9      180.000000        3.548417         2
         6         5         7        11     9        0.000000        0.179204         3
         6         5         7        11     9      180.000000       -0.054343         4
         7         5         4        13     9        0.000000        0.012336         1
         7         5         4        13     9      180.000000       12.261143         2
         7         5         4        13     9        0.000000       -0.114992         3
         7         5         4        13     9      180.000000        0.006384         4
         7         8         9        10     9        0.000000       -0.417676         1
         7         8         9        10     9      180.000000       22.358092         2
         7         8         9        10     9        0.000000       -3.426790         3
         7         8         9        10     9      180.000000       -0.219360         4
         7         8         9        14     9        0.000000        2.053597         1
         7         8         9        14     9      180.000000        6.710565         2
         7         8         9        14     9        0.000000       -0.018559         3
         7         8         9        14     9      180.000000        0.079456         4
         7        11        10         9     9        0.000000       -0.147097         1
         7        11        10         9     9      180.000000       41.176398         2
         7        11        10         9     9        0.000000       -6.093684         3
         7        11        10         9     9      180.000000        0.000590         4
         7        11        10        15     9        0.000000        1.752368         1
         7        11        10        15     9      180.000000       25.866646         2
         7        11        10        15     9        0.000000        0.418061         3
         7        11        10        15     9      180.000000       -0.221836         4
         8         7        11        10     9        0.000000       -0.527412         1
         8         7        11        10     9      180.000000       35.429068         2
         8         7        11        10     9        0.000000       -6.568766         3
         8         7        11        10     9      180.000000        0.076303         4
         8         9        10        11     9        0.000000        0.041594         1
         8         9        10        11     9      180.000000       33.164954         2
         8         9        10        11     9        0.000000       -6.882508         3
         8         9        10        11     9      180.000000       -0.424385         4
         8         9        10        15     9        0.000000        2.095177         1
         8         9        10        15     9      180.000000       16.044932         2
         8         9        10        15     9        0.000000        0.273906         3
         8         9        10        15     9      180.000000       -0.597421         4
         9         8         7        11     9        0.000000       -0.258003         1
         9         8         7        11     9      180.000000       45.227314         2
         9         8         7        11     9        0.000000       -6.778856         3
         9         8         7        11     9      180.000000        0.031182         4
        11        10         9        14     9        0.000000        1.103653         1
        11        10         9        14     9      180.000000        7.704872         2
        11        10         9        14     9        0.000000        0.089785         3
        11        10         9        14     9      180.000000       -0.122986         4
        12         2         1        17     9        0.000000       -0.120415         1
        12         2         1        17     9      180.000000       11.268778         2
        12         2         1        17     9        0.000000       -0.030937         3
        12         2         1        17     9      180.000000       -0.015840         4
        12         2         3        16     9        0.000000       -0.229120         1
        12         2         3        16     9      180.000000       11.731746         2
        12         2         3        16     9        0.000000       -0.565953         3
        12         2         3        16     9      180.000000        0.226340         4
        13         4         3        16     9        0.000000       -0.211332         1
        13         4         3        16     9      180.000000       11.796472         2
        13         4         3        16     9        0.000000       -0.673283         3
        13         4         3        16     9      180.000000        0.323698         4
        14         9        10        15     9        0.000000       -1.284505         1
        14         9        10        15     9      180.000000        2.893688         2
        14         9        10        15     9        0.000000       -0.079111         3
        14         9        10        15     9      180.000000       -0.072945         4

[ dihedrals ] ; impropers
;       ai        aj        ak        al funct           phase               k        pn
         1         2         6        17     4      180.000000       18.738280         2
         1         6        17         2     4      180.000000       18.738280         2
         1        17         2         6     4      180.000000       18.738280         2
         3         2         4        16     4      180.000000        0.180346         2
         3         4        16         2     4      180.000000        0.180346         2
         3        16         2         4     4      180.000000        0.180346         2
         5         4         6         7     4      180.000000        3.708094         2
         5         6         7         4     4      180.000000        3.708094         2
         5         7         4         6     4      180.000000        3.708094         2
         7         5         8        11     4      180.000000        0.051751         2
         7         8        11         5     4      180.000000        0.051751         2
         7        11         5         8     4      180.000000        0.051751         2
        10         9        11        15     4      180.000000        1.191032         2
        10        11        15         9     4      180.000000        1.191032         2
        10        15         9        11     4      180.000000        1.191032         2

[ pairs ]
;       ai        aj funct
         1         4     1
         1         7     1
         1        16     1
         1        19     1
         1        20     1
         1        21     1
         2         5     1
         2        13     1
         2        18     1
         3         6     1
         3         7     1
         3        17     1
         4         8     1
         4        11     1
         4        12     1
         5         9     1
         5        10     1
         5        16     1
         5        17     1
         6         8     1
         6        11     1
         6        12     1
         6        13     1
         6        18     1
         7        13     1
         7        14     1
         7        15     1
         8        15     1
        11        14     1
        12        16     1
        12        17     1
        13        16     1
        14        15     1
