; ITP file created by ByteFF-ML, 2025-12-06 03:34:11.041966

[ atomtypes ]
;name           bonded.type        at.num        mass        charge   ptype           sigma         epsilon
 c0bf                                   6      0.0000       0.00000       A     3.31690e-01     4.12857e-01
 c1bf                                   6      0.0000       0.00000       A     3.31394e-01     4.13219e-01
 c2bf                                   6      0.0000       0.00000       A     3.31486e-01     4.13513e-01
 c3bf                                   6      0.0000       0.00000       A     3.31516e-01     4.13122e-01
 c4bf                                   6      0.0000       0.00000       A     3.31548e-01     4.13262e-01
 n5bf                                   7      0.0000       0.00000       A     3.38340e-01     3.95594e-01
 c6bf                                   6      0.0000       0.00000       A     3.31371e-01     4.12833e-01
 n7bf                                   7      0.0000       0.00000       A     3.38247e-01     3.92764e-01
 n8bf                                   7      0.0000       0.00000       A     3.20483e-01     8.55295e-01
 c9bf                                   6      0.0000       0.00000       A     3.31555e-01     4.13404e-01
 n10bf                                  7      0.0000       0.00000       A     3.38262e-01     3.94371e-01
 h11bf                                  1      0.0000       0.00000       A     2.62759e-01     6.73541e-02
 h12bf                                  1      0.0000       0.00000       A     2.62522e-01     6.74515e-02
 h13bf                                  1      0.0000       0.00000       A     1.10600e-01     4.04635e-02
 h14bf                                  1      0.0000       0.00000       A     2.45555e-01     6.72520e-02
 h15bf                                  1      0.0000       0.00000       A     2.62563e-01     6.75568e-02
 c16bf                                  6      0.0000       0.00000       A     3.39691e-01     4.50326e-01
 h17bf                                  1      0.0000       0.00000       A     2.59941e-01     8.76003e-02
 h18bf                                  1      0.0000       0.00000       A     2.59941e-01     8.76003e-02
 h19bf                                  1      0.0000       0.00000       A     2.59941e-01     8.76003e-02
 c20bf                                  6      0.0000       0.00000       A     3.39860e-01     4.51668e-01
 f21bf                                  9      0.0000       0.00000       A     3.03361e-01     3.46708e-01
 f22bf                                  9      0.0000       0.00000       A     3.03361e-01     3.46708e-01

[ moleculetype ]
;name             nrexcl
 9                     3

[ atoms ]
;       nr            type      resi   res      atom      cgnr      charge          mass ; qtot
         1            c0bf         1   UNL        c0         1     0.27343       12.0110 ; qtot    0.273
         2            c1bf         1   UNL        c1         2    -0.11508       12.0110 ; qtot    0.158
         3            c2bf         1   UNL        c2         3    -0.08433       12.0110 ; qtot    0.074
         4            c3bf         1   UNL        c3         4    -0.11835       12.0110 ; qtot   -0.044
         5            c4bf         1   UNL        c4         5     0.31603       12.0110 ; qtot    0.272
         6            n5bf         1   UNL        n5         6    -0.61678       14.0070 ; qtot   -0.345
         7            c6bf         1   UNL        c6         7     0.47255       12.0110 ; qtot    0.127
         8            n7bf         1   UNL        n7         8    -0.50297       14.0070 ; qtot   -0.376
         9            n8bf         1   UNL        n8         9    -0.20751       14.0070 ; qtot   -0.583
        10            c9bf         1   UNL        c9        10     0.42406       12.0110 ; qtot   -0.159
        11           n10bf         1   UNL       n10        11    -0.68195       14.0070 ; qtot   -0.841
        12           h11bf         1   UNL       h11        12     0.14252        1.0080 ; qtot   -0.698
        13           h12bf         1   UNL       h12        13     0.14452        1.0080 ; qtot   -0.554
        14           h13bf         1   UNL       h13        14     0.38205        1.0080 ; qtot   -0.172
        15           h14bf         1   UNL       h14        15     0.06785        1.0080 ; qtot   -0.104
        16           h15bf         1   UNL       h15        16     0.12642        1.0080 ; qtot    0.022
        17           c16bf         1   UNL       c16        17    -0.13400       12.0110 ; qtot   -0.112
        18           h17bf         1   UNL       h17        18     0.06849        1.0080 ; qtot   -0.043
        19           h18bf         1   UNL       h18        19     0.06849        1.0080 ; qtot    0.025
        20           h19bf         1   UNL       h19        20     0.06849        1.0080 ; qtot    0.094
        21           c20bf         1   UNL       c20        21     0.12876       12.0110 ; qtot    0.223
        22           f21bf         1   UNL       f21        22    -0.11135       18.9980 ; qtot    0.111
        23           f22bf         1   UNL       f22        23    -0.11134       18.9980 ; qtot   -0.000

[ bonds ]
;       ai        aj funct               r               k
         1         2     1        0.139846   283043.258691
         1         6     1        0.133317   316876.021436
         1        21     1        0.152263   182181.253076
         2         3     1        0.139723   315348.008496
         2        12     1        0.108407   326532.062158
         3         4     1        0.139319   326203.757080
         3        16     1        0.108601   321625.515186
         4         5     1        0.140541   275863.347168
         4        13     1        0.108334   327851.002783
         5         6     1        0.134233   297976.721826
         5         7     1        0.147467   219776.015088
         7         8     1        0.133591   324085.070801
         7        11     1        0.137519   235866.947705
         8         9     1        0.135461   254732.410645
         9        10     1        0.135508   310409.003857
         9        14     1        0.101096   433645.960742
        10        11     1        0.131908   377183.360840
        10        15     1        0.108153   336903.473926
        17        18     1        0.109172   310478.081738
        17        19     1        0.109172   310478.081738
        17        20     1        0.109172   310478.081738
        17        21     1        0.151468   200721.513696
        21        22     1        0.138396   206290.480518
        21        23     1        0.138396   206290.480518

[ angles ]
;       ai        aj        ak funct           theta             cth
         1         2         3     1      117.808609      726.727014
         1         2        12     1      120.463257      409.501339
         1         6         5     1      118.124390      746.481820
         1        21        17     1      115.028908      572.990041
         1        21        22     1      109.028770      667.544636
         1        21        23     1      109.028770      667.544636
         2         1         6     1      123.636147      679.491023
         2         1        21     1      120.877586      495.656651
         2         3         4     1      119.254471      782.659924
         2         3        16     1      120.420631      442.506074
         3         2        12     1      121.702652      421.656396
         3         4         5     1      118.453331      752.801680
         3         4        13     1      121.881027      414.311509
         4         3        16     1      120.411011      443.757488
         4         5         6     1      122.547951      646.974813
         4         5         7     1      119.554703      531.490770
         5         4        13     1      119.489746      425.203597
         5         7         8     1      122.887451      464.854236
         5         7        11     1      123.275536      460.780972
         6         1        21     1      115.533981      396.355952
         6         5         7     1      117.111374      454.612228
         7         8         9     1      102.436424      478.242226
         7        11        10     1      103.427246      481.863994
         8         7        11     1      113.973587      167.360000
         8         9        10     1      110.406410      167.360000
         8         9        14     1      119.847046      461.741774
         9        10        11     1      109.849510      227.222512
         9        10        15     1      123.584068      435.354661
        10         9        14     1      129.790680      339.693959
        11        10        15     1      126.633133      305.944594
        17        21        22     1      109.190186      633.090351
        17        21        23     1      109.190186      633.090351
        18        17        19     1      109.486710      354.284458
        18        17        20     1      109.486710      354.284458
        18        17        21     1      109.468407      477.617428
        19        17        20     1      109.486710      354.284458
        19        17        21     1      109.468407      477.617428
        20        17        21     1      109.468407      477.617428
        22        21        23     1      105.744202      725.108153

[ dihedrals ] ; propers for gromacs 4.5 or higher, use funct 9
;       ai        aj        ak        al funct           phase               k        pn
         1         2         3         4     9        0.000000        0.020160         1
         1         2         3         4     9      180.000000       18.462831         2
         1         2         3         4     9        0.000000       -1.679880         3
         1         2         3         4     9      180.000000       -0.482373         4
         1         2         3        16     9        0.000000        0.112994         1
         1         2         3        16     9      180.000000       13.761739         2
         1         2         3        16     9        0.000000       -0.518198         3
         1         2         3        16     9      180.000000        0.166663         4
         1         6         5         4     9        0.000000       -0.220867         1
         1         6         5         4     9      180.000000       21.706351         2
         1         6         5         4     9        0.000000       -0.232198         3
         1         6         5         4     9      180.000000       -0.398010         4
         1         6         5         7     9        0.000000       -0.007770         1
         1         6         5         7     9      180.000000       24.056001         2
         1         6         5         7     9        0.000000        0.830700         3
         1         6         5         7     9      180.000000       -1.043433         4
         1        21        17        18     9        0.000000        0.045956         1
         1        21        17        18     9      180.000000        0.024032         2
         1        21        17        18     9        0.000000        0.559008         3
         1        21        17        18     9      180.000000       -0.003000         4
         1        21        17        19     9        0.000000        0.045956         1
         1        21        17        19     9      180.000000        0.024032         2
         1        21        17        19     9        0.000000        0.559008         3
         1        21        17        19     9      180.000000       -0.003000         4
         1        21        17        20     9        0.000000        0.045956         1
         1        21        17        20     9      180.000000        0.024032         2
         1        21        17        20     9        0.000000        0.559008         3
         1        21        17        20     9      180.000000       -0.003000         4
         2         1         6         5     9        0.000000       -0.303149         1
         2         1         6         5     9      180.000000       22.699290         2
         2         1         6         5     9        0.000000       -0.566846         3
         2         1         6         5     9      180.000000       -0.047711         4
         2         1        21        17     9        0.000000        0.278253         1
         2         1        21        17     9      180.000000        0.079453         2
         2         1        21        17     9        0.000000       -0.176078         3
         2         1        21        17     9      180.000000        0.110325         4
         2         1        21        22     9        0.000000       -0.268145         1
         2         1        21        22     9      180.000000        0.464747         2
         2         1        21        22     9        0.000000       -0.290397         3
         2         1        21        22     9      180.000000       -0.008247         4
         2         1        21        23     9        0.000000       -0.268145         1
         2         1        21        23     9      180.000000        0.464747         2
         2         1        21        23     9        0.000000       -0.290397         3
         2         1        21        23     9      180.000000       -0.008247         4
         2         3         4         5     9        0.000000       -0.054563         1
         2         3         4         5     9      180.000000       18.822691         2
         2         3         4         5     9        0.000000       -1.580790         3
         2         3         4         5     9      180.000000       -0.444030         4
         2         3         4        13     9        0.000000        0.013229         1
         2         3         4        13     9      180.000000       14.865337         2
         2         3         4        13     9        0.000000       -0.608399         3
         2         3         4        13     9      180.000000        0.104044         4
         3         2         1         6     9        0.000000       -0.078341         1
         3         2         1         6     9      180.000000       17.738553         2
         3         2         1         6     9        0.000000       -0.838379         3
         3         2         1         6     9      180.000000       -0.503242         4
         3         2         1        21     9        0.000000        0.136595         1
         3         2         1        21     9      180.000000       15.735749         2
         3         2         1        21     9        0.000000        0.006650         3
         3         2         1        21     9      180.000000       -0.541507         4
         3         4         5         6     9        0.000000       -0.069322         1
         3         4         5         6     9      180.000000       14.871765         2
         3         4         5         6     9        0.000000       -0.477870         3
         3         4         5         6     9      180.000000       -0.266006         4
         3         4         5         7     9        0.000000        0.247437         1
         3         4         5         7     9      180.000000       15.330906         2
         3         4         5         7     9        0.000000       -0.009786         3
         3         4         5         7     9      180.000000       -0.409659         4
         4         3         2        12     9        0.000000        0.100657         1
         4         3         2        12     9      180.000000       14.214024         2
         4         3         2        12     9        0.000000       -0.631292         3
         4         3         2        12     9      180.000000        0.082674         4
         4         5         7         8     9        0.000000        0.226775         1
         4         5         7         8     9      180.000000        3.086496         2
         4         5         7         8     9        0.000000       -0.151506         3
         4         5         7         8     9      180.000000        0.023266         4
         4         5         7        11     9        0.000000        0.380509         1
         4         5         7        11     9      180.000000        3.225694         2
         4         5         7        11     9        0.000000       -0.390122         3
         4         5         7        11     9      180.000000        0.040373         4
         5         4         3        16     9        0.000000        0.049615         1
         5         4         3        16     9      180.000000       14.238971         2
         5         4         3        16     9        0.000000       -0.521100         3
         5         4         3        16     9      180.000000        0.197304         4
         5         6         1        21     9        0.000000        1.077464         1
         5         6         1        21     9      180.000000       22.457733         2
         5         6         1        21     9        0.000000        1.179335         3
         5         6         1        21     9      180.000000       -0.933206         4
         5         7         8         9     9        0.000000        0.351033         1
         5         7         8         9     9      180.000000       29.296022         2
         5         7         8         9     9        0.000000        0.871022         3
         5         7         8         9     9      180.000000       -0.847682         4
         5         7        11        10     9        0.000000        0.878042         1
         5         7        11        10     9      180.000000       21.617359         2
         5         7        11        10     9        0.000000        0.513030         3
         5         7        11        10     9      180.000000       -0.411517         4
         6         1         2        12     9        0.000000       -0.118182         1
         6         1         2        12     9      180.000000       12.384890         2
         6         1         2        12     9        0.000000       -0.265622         3
         6         1         2        12     9      180.000000       -0.171417         4
         6         1        21        17     9        0.000000       -0.613458         1
         6         1        21        17     9      180.000000        0.406517         2
         6         1        21        17     9        0.000000        0.342687         3
         6         1        21        17     9      180.000000       -0.019860         4
         6         1        21        22     9        0.000000       -0.159251         1
         6         1        21        22     9      180.000000        0.080194         2
         6         1        21        22     9        0.000000        0.461327         3
         6         1        21        22     9      180.000000        0.006760         4
         6         1        21        23     9        0.000000       -0.159252         1
         6         1        21        23     9      180.000000        0.080194         2
         6         1        21        23     9        0.000000        0.461327         3
         6         1        21        23     9      180.000000        0.006761         4
         6         5         4        13     9        0.000000       -0.137456         1
         6         5         4        13     9      180.000000       12.122273         2
         6         5         4        13     9        0.000000       -0.373196         3
         6         5         4        13     9      180.000000       -0.070703         4
         6         5         7         8     9        0.000000       -1.287051         1
         6         5         7         8     9      180.000000        3.234010         2
         6         5         7         8     9        0.000000        0.046309         3
         6         5         7         8     9      180.000000       -0.000982         4
         6         5         7        11     9        0.000000       -2.481243         1
         6         5         7        11     9      180.000000        3.462452         2
         6         5         7        11     9        0.000000        0.269682         3
         6         5         7        11     9      180.000000       -0.060117         4
         7         5         4        13     9        0.000000        0.039690         1
         7         5         4        13     9      180.000000       12.109554         2
         7         5         4        13     9        0.000000       -0.125931         3
         7         5         4        13     9      180.000000        0.049193         4
         7         8         9        10     9        0.000000       -0.413700         1
         7         8         9        10     9      180.000000       22.206394         2
         7         8         9        10     9        0.000000       -3.389080         3
         7         8         9        10     9      180.000000       -0.222066         4
         7         8         9        14     9        0.000000        2.103295         1
         7         8         9        14     9      180.000000        6.658159         2
         7         8         9        14     9        0.000000       -0.009483         3
         7         8         9        14     9      180.000000        0.084008         4
         7        11        10         9     9        0.000000       -0.150925         1
         7        11        10         9     9      180.000000       41.060344         2
         7        11        10         9     9        0.000000       -6.073861         3
         7        11        10         9     9      180.000000        0.004087         4
         7        11        10        15     9        0.000000        1.782394         1
         7        11        10        15     9      180.000000       25.799020         2
         7        11        10        15     9        0.000000        0.443319         3
         7        11        10        15     9      180.000000       -0.228702         4
         8         7        11        10     9        0.000000       -0.526613         1
         8         7        11        10     9      180.000000       35.409014         2
         8         7        11        10     9        0.000000       -6.578733         3
         8         7        11        10     9      180.000000        0.078326         4
         8         9        10        11     9        0.000000        0.041595         1
         8         9        10        11     9      180.000000       33.164954         2
         8         9        10        11     9        0.000000       -6.882509         3
         8         9        10        11     9      180.000000       -0.424384         4
         8         9        10        15     9        0.000000        2.095176         1
         8         9        10        15     9      180.000000       16.044934         2
         8         9        10        15     9        0.000000        0.273906         3
         8         9        10        15     9      180.000000       -0.597420         4
         9         8         7        11     9        0.000000       -0.250020         1
         9         8         7        11     9      180.000000       45.213508         2
         9         8         7        11     9        0.000000       -6.781590         3
         9         8         7        11     9      180.000000        0.036964         4
        11        10         9        14     9        0.000000        1.103654         1
        11        10         9        14     9      180.000000        7.704872         2
        11        10         9        14     9        0.000000        0.089786         3
        11        10         9        14     9      180.000000       -0.122986         4
        12         2         1        21     9        0.000000       -0.084892         1
        12         2         1        21     9      180.000000       11.771662         2
        12         2         1        21     9        0.000000       -0.418720         3
        12         2         1        21     9      180.000000        0.124305         4
        12         2         3        16     9        0.000000       -0.232538         1
        12         2         3        16     9      180.000000       11.285468         2
        12         2         3        16     9        0.000000       -0.721388         3
        12         2         3        16     9      180.000000        0.273427         4
        13         4         3        16     9        0.000000       -0.274938         1
        13         4         3        16     9      180.000000       12.072392         2
        13         4         3        16     9        0.000000       -0.736906         3
        13         4         3        16     9      180.000000        0.361125         4
        14         9        10        15     9        0.000000       -1.284503         1
        14         9        10        15     9      180.000000        2.893689         2
        14         9        10        15     9        0.000000       -0.079111         3
        14         9        10        15     9      180.000000       -0.072945         4
        18        17        21        22     9        0.000000        0.097366         1
        18        17        21        22     9      180.000000       -0.022682         2
        18        17        21        22     9        0.000000        0.419439         3
        18        17        21        22     9      180.000000       -0.037813         4
        18        17        21        23     9        0.000000        0.097366         1
        18        17        21        23     9      180.000000       -0.022682         2
        18        17        21        23     9        0.000000        0.419439         3
        18        17        21        23     9      180.000000       -0.037813         4
        19        17        21        22     9        0.000000        0.097367         1
        19        17        21        22     9      180.000000       -0.022681         2
        19        17        21        22     9        0.000000        0.419439         3
        19        17        21        22     9      180.000000       -0.037813         4
        19        17        21        23     9        0.000000        0.097367         1
        19        17        21        23     9      180.000000       -0.022681         2
        19        17        21        23     9        0.000000        0.419439         3
        19        17        21        23     9      180.000000       -0.037813         4
        20        17        21        22     9        0.000000        0.097367         1
        20        17        21        22     9      180.000000       -0.022681         2
        20        17        21        22     9        0.000000        0.419439         3
        20        17        21        22     9      180.000000       -0.037813         4
        20        17        21        23     9        0.000000        0.097367         1
        20        17        21        23     9      180.000000       -0.022681         2
        20        17        21        23     9        0.000000        0.419439         3
        20        17        21        23     9      180.000000       -0.037813         4

[ dihedrals ] ; impropers
;       ai        aj        ak        al funct           phase               k        pn
         5         4         6         7     4      180.000000        3.979364         2
         5         6         7         4     4      180.000000        3.979364         2
         5         7         4         6     4      180.000000        3.979364         2
        10         9        11        15     4      180.000000        1.191032         2
        10        11        15         9     4      180.000000        1.191032         2
        10        15         9        11     4      180.000000        1.191032         2

[ pairs ]
;       ai        aj funct
         1         4     1
         1         7     1
         1        16     1
         1        18     1
         1        19     1
         1        20     1
         2         5     1
         2        13     1
         2        17     1
         2        22     1
         2        23     1
         3         6     1
         3         7     1
         3        21     1
         4         8     1
         4        11     1
         4        12     1
         5         9     1
         5        10     1
         5        16     1
         5        21     1
         6         8     1
         6        11     1
         6        12     1
         6        13     1
         6        17     1
         6        22     1
         6        23     1
         7        13     1
         7        14     1
         7        15     1
         8        15     1
        11        14     1
        12        16     1
        12        21     1
        13        16     1
        14        15     1
        18        22     1
        18        23     1
        19        22     1
        19        23     1
        20        22     1
        20        23     1
