clashed crystal waters from macrocycles/hsp90_3hvd_custcore
9
    2SOL     OW    4   1.391   0.115   1.328
    2SOL    HW1    5   1.357   0.112   1.234
    2SOL    HW2    6   1.366   0.202   1.369
   44SOL     OW  130   1.630   0.240   1.250
   44SOL    HW1  131   1.545   0.195   1.278
   44SOL    HW2  132   1.609   0.325   1.202
   45SOL     OW  133   1.662   0.491   1.105
   45SOL    HW1  134   1.586   0.534   1.057
   45SOL    HW2  135   1.722   0.445   1.040
    4.4313    4.4313    4.4313
