Generated by PDBParser
918
    1SOL     OW    1   0.979   0.747   1.073
    1SOL    HW1    2   0.951   0.682   1.145
    1SOL    HW2    3   0.897   0.778   1.025
    2SOL     OW    4   1.391   0.115   1.328
    2SOL    HW1    5   1.357   0.112   1.234
    2SOL    HW2    6   1.366   0.202   1.369
    3SOL     OW    7   0.739   1.814   2.137
    3SOL    HW1    8   0.657   1.791   2.085
    3SOL    HW2    9   0.718   1.808   2.235
    4SOL     OW   10   1.889   1.214   0.834
    4SOL    HW1   11   1.961   1.234   0.767
    4SOL    HW2   12   1.929   1.168   0.913
    5SOL     OW   13  -0.045   1.880   1.197
    5SOL    HW1   14   0.019   1.902   1.124
    5SOL    HW2   15  -0.063   1.781   1.197
    6SOL     OW   16   0.620   0.175   1.430
    6SOL    HW1   17   0.712   0.200   1.401
    6SOL    HW2   18   0.557   0.249   1.408
    7SOL     OW   19   1.517   0.504   0.321
    7SOL    HW1   20   1.489   0.488   0.226
    7SOL    HW2   21   1.449   0.466   0.383
    8SOL     OW   22  -0.202   1.635   0.829
    8SOL    HW1   23  -0.143   1.611   0.752
    8SOL    HW2   24  -0.177   1.725   0.864
    9SOL     OW   25   2.152  -0.336   1.377
    9SOL    HW1   26   2.150  -0.332   1.277
    9SOL    HW2   27   2.117  -0.251   1.415
   10SOL     OW   28   1.616   1.089   0.738
   10SOL    HW1   29   1.552   1.024   0.780
   10SOL    HW2   30   1.693   1.105   0.799
   11SOL     OW   31  -0.575   0.307   0.597
   11SOL    HW1   32  -0.605   0.216   0.568
   11SOL    HW2   33  -0.574   0.312   0.696
   12SOL     OW   34   1.546  -0.717   1.381
   12SOL    HW1   35   1.612  -0.653   1.343
   12SOL    HW2   36   1.584  -0.761   1.462
   13SOL     OW   37   0.636  -1.452   1.191
   13SOL    HW1   38   0.656  -1.365   1.237
   13SOL    HW2   39   0.620  -1.523   1.260
   14SOL     OW   40   0.437   0.389   1.365
   14SOL    HW1   41   0.409   0.462   1.428
   14SOL    HW2   42   0.392   0.402   1.277
   15SOL     OW   43  -0.210   0.932   2.797
   15SOL    HW1   44  -0.275   0.856   2.805
   15SOL    HW2   45  -0.183   0.963   2.888
   16SOL     OW   46   0.563  -1.927   1.991
   16SOL    HW1   47   0.598  -1.835   1.972
   16SOL    HW2   48   0.495  -1.951   1.922
   17SOL     OW   49   1.078   2.132   1.207
   17SOL    HW1   50   1.153   2.183   1.164
   17SOL    HW2   51   1.020   2.093   1.136
   18SOL     OW   52   1.680   1.629   0.382
   18SOL    HW1   53   1.732   1.706   0.419
   18SOL    HW2   54   1.643   1.575   0.457
   19SOL     OW   55  -0.306  -1.375   0.709
   19SOL    HW1   56  -0.333  -1.286   0.671
   19SOL    HW2   57  -0.243  -1.361   0.786
   20SOL     OW   58  -1.555  -0.085   1.175
   20SOL    HW1   59  -1.622  -0.026   1.220
   20SOL    HW2   60  -1.501  -0.133   1.244
   21SOL     OW   61   1.752  -0.231  -0.322
   21SOL    HW1   62   1.676  -0.288  -0.354
   21SOL    HW2   63   1.725  -0.183  -0.238
   22SOL     OW   64   0.426   0.532   1.124
   22SOL    HW1   65   0.454   0.577   1.039
   22SOL    HW2   66   0.497   0.542   1.193
   23SOL     OW   67   1.131  -1.728   1.071
   23SOL    HW1   68   1.210  -1.673   1.101
   23SOL    HW2   69   1.084  -1.680   0.997
   24SOL     OW   70  -1.487  -0.390   0.120
   24SOL    HW1   71  -1.401  -0.350   0.152
   24SOL    HW2   72  -1.542  -0.416   0.199
   25SOL     OW   73   2.153   1.227   0.185
   25SOL    HW1   74   2.075   1.230   0.122
   25SOL    HW2   75   2.225   1.288   0.152
   26SOL     OW   76   0.911  -0.134   1.841
   26SOL    HW1   77   1.004  -0.126   1.805
   26SOL    HW2   78   0.911  -0.189   1.924
   27SOL     OW   79   0.920  -0.331  -0.609
   27SOL    HW1   80   0.912  -0.250  -0.550
   27SOL    HW2   81   0.832  -0.347  -0.654
   28SOL     OW   82  -0.698  -0.414   0.193
   28SOL    HW1   83  -0.763  -0.390   0.266
   28SOL    HW2   84  -0.613  -0.446   0.234
   29SOL     OW   85   0.769  -0.585   0.044
   29SOL    HW1   86   0.821  -0.506   0.076
   29SOL    HW2   87   0.784  -0.662   0.106
   30SOL     OW   88   1.876   0.226   1.397
   30SOL    HW1   89   1.964   0.201   1.357
   30SOL    HW2   90   1.802   0.198   1.336
   31SOL     OW   91   1.455  -0.528  -0.191
   31SOL    HW1   92   1.383  -0.582  -0.149
   31SOL    HW2   93   1.544  -0.567  -0.168
   32SOL     OW   94   0.615   0.206   2.479
   32SOL    HW1   95   0.561   0.134   2.434
   32SOL    HW2   96   0.706   0.210   2.437
   33SOL     OW   97  -1.567  -0.208   0.918
   33SOL    HW1   98  -1.519  -0.175   1.000
   33SOL    HW2   99  -1.500  -0.248   0.855
   34SOL     OW  100   1.508  -0.412  -0.427
   34SOL    HW1  101   1.570  -0.477  -0.472
   34SOL    HW2  102   1.472  -0.454  -0.343
   35SOL     OW  103  -1.386  -0.315   0.745
   35SOL    HW1  104  -1.398  -0.322   0.646
   35SOL    HW2  105  -1.297  -0.353   0.771
   36SOL     OW  106   0.154   0.664   2.226
   36SOL    HW1  107   0.177   0.575   2.187
   36SOL    HW2  108   0.155   0.659   2.326
   37SOL     OW  109   1.287   2.038   1.380
   37SOL    HW1  110   1.373   2.031   1.328
   37SOL    HW2  111   1.214   2.071   1.320
   38SOL     OW  112   1.791   2.376   1.359
   38SOL    HW1  113   1.827   2.285   1.337
   38SOL    HW2  114   1.787   2.387   1.458
   39SOL     OW  115  -0.123  -0.079   2.941
   39SOL    HW1  116  -0.194  -0.142   2.909
   39SOL    HW2  117  -0.122  -0.077   3.041
   40SOL     OW  118   0.256   1.253   0.879
   40SOL    HW1  119   0.274   1.348   0.902
   40SOL    HW2  120   0.246   1.199   0.963
   41SOL     OW  121   1.053   0.884  -0.181
   41SOL    HW1  122   0.979   0.829  -0.140
   41SOL    HW2  123   1.117   0.823  -0.227
   42SOL     OW  124  -0.862  -1.162   1.688
   42SOL    HW1  125  -0.849  -1.070   1.725
   42SOL    HW2  126  -0.960  -1.180   1.677
   43SOL     OW  127  -0.730  -1.329   2.048
   43SOL    HW1  128  -0.663  -1.359   1.980
   43SOL    HW2  129  -0.790  -1.404   2.072
   44SOL     OW  130   1.630   0.240   1.250
   44SOL    HW1  131   1.545   0.195   1.278
   44SOL    HW2  132   1.609   0.325   1.202
   45SOL     OW  133   1.662   0.491   1.105
   45SOL    HW1  134   1.586   0.534   1.057
   45SOL    HW2  135   1.722   0.445   1.040
   46SOL     OW  136   0.893   1.024   2.179
   46SOL    HW1  137   0.813   1.056   2.129
   46SOL    HW2  138   0.971   1.084   2.160
   47SOL     OW  139  -1.602   1.424   1.412
   47SOL    HW1  140  -1.579   1.336   1.452
   47SOL    HW2  141  -1.620   1.491   1.485
   48SOL     OW  142   0.846   0.364   2.110
   48SOL    HW1  143   0.894   0.446   2.079
   48SOL    HW2  144   0.774   0.341   2.045
   49SOL     OW  145   0.903  -0.075   2.131
   49SOL    HW1  146   0.935  -0.066   2.225
   49SOL    HW2  147   0.977  -0.053   2.067
   50SOL     OW  148   1.119  -1.984   1.566
   50SOL    HW1  149   1.161  -1.900   1.602
   50SOL    HW2  150   1.020  -1.974   1.565
   51SOL     OW  151   2.071  -0.801   0.956
   51SOL    HW1  152   2.083  -0.702   0.960
   51SOL    HW2  153   1.977  -0.824   0.979
   52SOL     OW  154   2.206   0.260   0.679
   52SOL    HW1  155   2.107   0.254   0.667
   52SOL    HW2  156   2.227   0.316   0.760
   53SOL     OW  157   0.950  -1.881   2.984
   53SOL    HW1  158   0.921  -1.786   2.978
   53SOL    HW2  159   0.965  -1.917   2.892
   54SOL     OW  160   0.830  -1.412  -0.102
   54SOL    HW1  161   0.817  -1.451  -0.193
   54SOL    HW2  162   0.925  -1.382  -0.092
   55SOL     OW  163   0.864   1.459   0.553
   55SOL    HW1  164   0.927   1.498   0.486
   55SOL    HW2  165   0.916   1.427   0.632
   56SOL     OW  166  -1.353  -0.545   1.668
   56SOL    HW1  167  -1.322  -0.639   1.652
   56SOL    HW2  168  -1.333  -0.518   1.762
   57SOL     OW  169   0.854   0.676   2.348
   57SOL    HW1  170   0.783   0.618   2.307
   57SOL    HW2  171   0.909   0.718   2.276
   58SOL     OW  172   0.621  -1.678   1.356
   58SOL    HW1  173   0.646  -1.657   1.450
   58SOL    HW2  174   0.522  -1.672   1.345
   59SOL     OW  175  -1.724   0.593   1.572
   59SOL    HW1  176  -1.712   0.560   1.478
   59SOL    HW2  177  -1.768   0.523   1.627
   60SOL     OW  178   1.413   1.156   0.283
   60SOL    HW1  179   1.456   1.231   0.332
   60SOL    HW2  180   1.320   1.181   0.257
   61SOL     OW  181   0.103   0.997   2.628
   61SOL    HW1  182   0.093   0.913   2.575
   61SOL    HW2  183   0.175   0.986   2.697
   62SOL     OW  184  -0.095   1.604   1.197
   62SOL    HW1  185  -0.076   1.508   1.218
   62SOL    HW2  186  -0.193   1.617   1.183
   63SOL     OW  187  -1.112  -0.131  -0.149
   63SOL    HW1  188  -1.047  -0.093  -0.083
   63SOL    HW2  189  -1.187  -0.176  -0.100
   64SOL     OW  190   0.780   1.689   0.682
   64SOL    HW1  191   0.786   1.702   0.781
   64SOL    HW2  192   0.832   1.608   0.656
   65SOL     OW  193   1.286  -0.656   1.532
   65SOL    HW1  194   1.304  -0.573   1.479
   65SOL    HW2  195   1.370  -0.686   1.576
   66SOL     OW  196  -0.896  -1.201   0.928
   66SOL    HW1  197  -0.842  -1.277   0.965
   66SOL    HW2  198  -0.884  -1.196   0.829
   67SOL     OW  199   0.457  -1.324   0.572
   67SOL    HW1  200   0.461  -1.377   0.656
   67SOL    HW2  201   0.542  -1.335   0.521
   68SOL     OW  202   0.638  -1.389   0.088
   68SOL    HW1  203   0.709  -1.397   0.017
   68SOL    HW2  204   0.677  -1.348   0.170
   69SOL     OW  205  -1.364   0.706   1.059
   69SOL    HW1  206  -1.365   0.616   1.015
   69SOL    HW2  207  -1.419   0.703   1.143
   70SOL     OW  208  -0.736  -0.789   0.646
   70SOL    HW1  209  -0.740  -0.790   0.746
   70SOL    HW2  210  -0.826  -0.811   0.608
   71SOL     OW  211   1.437  -0.323   1.610
   71SOL    HW1  212   1.399  -0.364   1.528
   71SOL    HW2  213   1.515  -0.266   1.586
   72SOL     OW  214  -0.877  -0.620   2.314
   72SOL    HW1  215  -0.853  -0.588   2.405
   72SOL    HW2  216  -0.893  -0.719   2.317
   73SOL     OW  217   1.695  -1.434   0.939
   73SOL    HW1  218   1.716  -1.484   0.855
   73SOL    HW2  219   1.596  -1.420   0.946
   74SOL     OW  220   1.611   2.255   0.560
   74SOL    HW1  221   1.663   2.206   0.630
   74SOL    HW2  222   1.642   2.226   0.469
   75SOL     OW  223   0.656  -1.286   0.346
   75SOL    HW1  224   0.604  -1.207   0.381
   75SOL    HW2  225   0.715  -1.321   0.419
   76SOL     OW  226  -0.830  -0.334   2.414
   76SOL    HW1  227  -0.860  -0.385   2.333
   76SOL    HW2  228  -0.784  -0.397   2.477
   77SOL     OW  229   0.824   2.196   1.338
   77SOL    HW1  230   0.901   2.163   1.282
   77SOL    HW2  231   0.739   2.154   1.307
   78SOL     OW  232   0.380   0.964   2.569
   78SOL    HW1  233   0.345   1.056   2.586
   78SOL    HW2  234   0.478   0.962   2.585
   79SOL     OW  235   1.075   0.427   1.650
   79SOL    HW1  236   1.003   0.497   1.648
   79SOL    HW2  237   1.104   0.412   1.744
   80SOL     OW  238  -0.265  -0.827   2.826
   80SOL    HW1  239  -0.327  -0.906   2.833
   80SOL    HW2  240  -0.317  -0.743   2.837
   81SOL     OW  241   0.673   0.065   2.072
   81SOL    HW1  242   0.692   0.131   1.999
   81SOL    HW2  243   0.756   0.014   2.093
   82SOL     OW  244   1.604  -1.678   1.077
   82SOL    HW1  245   1.515  -1.641   1.104
   82SOL    HW2  246   1.655  -1.608   1.026
   83SOL     OW  247   1.875  -1.351   1.120
   83SOL    HW1  248   1.845  -1.264   1.159
   83SOL    HW2  249   1.807  -1.382   1.052
   84SOL     OW  250   2.140  -0.537   0.647
   84SOL    HW1  251   2.125  -0.492   0.558
   84SOL    HW2  252   2.119  -0.473   0.721
   85SOL     OW  253  -1.487  -0.685   1.372
   85SOL    HW1  254  -1.447  -0.757   1.315
   85SOL    HW2  255  -1.488  -0.598   1.321
   86SOL     OW  256   2.406  -0.304   0.826
   86SOL    HW1  257   2.398  -0.205   0.825
   86SOL    HW2  258   2.409  -0.336   0.921
   87SOL     OW  259  -1.976   0.353   2.118
   87SOL    HW1  260  -1.947   0.359   2.023
   87SOL    HW2  261  -1.897   0.368   2.178
   88SOL     OW  262  -0.018   1.550   0.580
   88SOL    HW1  263  -0.046   1.471   0.634
   88SOL    HW2  264   0.081   1.550   0.570
   89SOL     OW  265   0.593   2.082   1.253
   89SOL    HW1  266   0.568   2.045   1.342
   89SOL    HW2  267   0.544   2.167   1.237
   90SOL     OW  268  -1.368   0.462   0.940
   90SOL    HW1  269  -1.338   0.420   1.026
   90SOL    HW2  270  -1.324   0.416   0.863
   91SOL     OW  271   0.067   0.582   2.773
   91SOL    HW1  272   0.022   0.626   2.695
   91SOL    HW2  273   0.010   0.506   2.805
   92SOL     OW  274   0.596  -1.796   0.550
   92SOL    HW1  275   0.608  -1.801   0.649
   92SOL    HW2  276   0.507  -1.756   0.528
   93SOL     OW  277   0.589   1.071   0.572
   93SOL    HW1  278   0.683   1.102   0.583
   93SOL    HW2  279   0.547   1.057   0.661
   94SOL     OW  280   2.004  -1.190   1.673
   94SOL    HW1  281   1.939  -1.265   1.685
   94SOL    HW2  282   2.033  -1.158   1.764
   95SOL     OW  283   1.569  -0.181   2.004
   95SOL    HW1  284   1.616  -0.212   2.087
   95SOL    HW2  285   1.509  -0.254   1.970
   96SOL     OW  286  -0.583   0.430   0.352
   96SOL    HW1  287  -0.580   0.386   0.441
   96SOL    HW2  288  -0.643   0.511   0.356
   97SOL     OW  289   1.257   0.729  -0.323
   97SOL    HW1  290   1.347   0.772  -0.337
   97SOL    HW2  291   1.215   0.709  -0.411
   98SOL     OW  292   1.278   0.973   2.198
   98SOL    HW1  293   1.216   1.048   2.174
   98SOL    HW2  294   1.284   0.965   2.297
   99SOL     OW  295   0.871  -1.698   0.235
   99SOL    HW1  296   0.838  -1.645   0.313
   99SOL    HW2  297   0.919  -1.779   0.268
  100SOL     OW  298   0.319   0.486  -0.043
  100SOL    HW1  299   0.363   0.564  -0.086
  100SOL    HW2  300   0.233   0.466  -0.088
  101SOL     OW  301  -1.171   0.806   1.241
  101SOL    HW1  302  -1.100   0.855   1.191
  101SOL    HW2  303  -1.239   0.770   1.177
  102SOL     OW  304   0.004  -1.979   2.337
  102SOL    HW1  305  -0.010  -1.881   2.328
  102SOL    HW2  306   0.007  -2.003   2.434
  103SOL     OW  307   1.280  -0.374  -0.533
  103SOL    HW1  308   1.233  -0.462  -0.542
  103SOL    HW2  309   1.370  -0.389  -0.491
  104SOL     OW  310   0.514   1.967   1.531
  104SOL    HW1  311   0.505   1.885   1.474
  104SOL    HW2  312   0.535   1.940   1.625
  105SOL     OW  313   2.197  -0.672   2.644
  105SOL    HW1  314   2.136  -0.707   2.573
  105SOL    HW2  315   2.160  -0.694   2.734
  106SOL     OW  316   2.263   1.607   1.274
  106SOL    HW1  317   2.288   1.570   1.363
  106SOL    HW2  318   2.207   1.689   1.287
  107SOL     OW  319   0.605   1.297   2.211
  107SOL    HW1  320   0.693   1.346   2.213
  107SOL    HW2  321   0.601   1.233   2.287
  108SOL     OW  322  -1.565   0.361  -0.299
  108SOL    HW1  323  -1.542   0.468  -0.305
  108SOL    HW2  324  -1.633   0.333  -0.381
  109SOL     OW  325  -1.641   0.235   1.909
  109SOL    HW1  326  -1.618   0.292   1.988
  109SOL    HW2  327  -1.712   0.280   1.855
  110SOL     OW  328   1.633  -1.585   0.492
  110SOL    HW1  329   1.663  -1.513   0.555
  110SOL    HW2  330   1.600  -1.664   0.543
  111SOL     OW  331   0.849  -1.958   1.565
  111SOL    HW1  332   0.785  -2.017   1.614
  111SOL    HW2  333   0.798  -1.887   1.515
  112SOL     OW  334  -1.726   1.308   1.714
  112SOL    HW1  335  -1.690   1.342   1.627
  112SOL    HW2  336  -1.678   1.353   1.789
  113SOL     OW  337  -0.916  -0.867   2.321
  113SOL    HW1  338  -0.993  -0.915   2.278
  113SOL    HW2  339  -0.858  -0.934   2.367
  114SOL     OW  340   0.791   2.101   0.473
  114SOL    HW1  341   0.776   2.186   0.525
  114SOL    HW2  342   0.860   2.118   0.402
  115SOL     OW  343   1.378   0.851   1.981
  115SOL    HW1  344   1.329   0.882   1.899
  115SOL    HW2  345   1.340   0.896   2.062
  116SOL     OW  346   0.322  -1.475   0.397
  116SOL    HW1  347   0.372  -1.419   0.462
  116SOL    HW2  348   0.264  -1.540   0.447
  117SOL     OW  349   0.904   0.221   2.345
  117SOL    HW1  350   0.896   0.123   2.327
  117SOL    HW2  351   0.883   0.272   2.262
  118SOL     OW  352  -0.073   1.503   2.001
  118SOL    HW1  353   0.027   1.506   1.991
  118SOL    HW2  354  -0.097   1.441   2.076
  119SOL     OW  355  -1.055  -0.512   0.069
  119SOL    HW1  356  -1.110  -0.440   0.112
  119SOL    HW2  357  -1.012  -0.568   0.140
  120SOL     OW  358   0.181  -0.633  -0.178
  120SOL    HW1  359   0.222  -0.662  -0.092
  120SOL    HW2  360   0.081  -0.629  -0.168
  121SOL     OW  361   1.111   0.882   2.391
  121SOL    HW1  362   1.074   0.843   2.306
  121SOL    HW2  363   1.069   0.838   2.470
  122SOL     OW  364   1.446   2.403   0.203
  122SOL    HW1  365   1.438   2.427   0.106
  122SOL    HW2  366   1.531   2.441   0.239
  123SOL     OW  367  -0.384  -1.088   3.334
  123SOL    HW1  368  -0.304  -1.062   3.280
  123SOL    HW2  369  -0.362  -1.080   3.431
  124SOL     OW  370  -0.144  -1.340   0.906
  124SOL    HW1  371  -0.135  -1.242   0.890
  124SOL    HW2  372  -0.056  -1.385   0.891
  125SOL     OW  373   1.669  -1.503   2.915
  125SOL    HW1  374   1.575  -1.537   2.914
  125SOL    HW2  375   1.700  -1.492   3.010
  126SOL     OW  376   0.606   0.784   2.393
  126SOL    HW1  377   0.705   0.781   2.412
  126SOL    HW2  378   0.585   0.725   2.315
  127SOL     OW  379   1.727  -1.250   0.129
  127SOL    HW1  380   1.633  -1.278   0.150
  127SOL    HW2  381   1.777  -1.236   0.215
  128SOL     OW  382  -1.006  -0.971   2.092
  128SOL    HW1  383  -1.103  -0.984   2.115
  128SOL    HW2  384  -0.996  -0.970   1.992
  129SOL     OW  385   1.191   0.362  -0.411
  129SOL    HW1  386   1.178   0.323  -0.320
  129SOL    HW2  387   1.223   0.456  -0.402
  130SOL     OW  388  -0.086   0.377   2.859
  130SOL    HW1  389  -0.058   0.308   2.927
  130SOL    HW2  390  -0.179   0.357   2.828
  131SOL     OW  391   2.350   1.479   1.579
  131SOL    HW1  392   2.294   1.433   1.510
  131SOL    HW2  393   2.304   1.562   1.610
  132SOL     OW  394   0.923   1.828   1.974
  132SOL    HW1  395   0.847   1.824   2.038
  132SOL    HW2  396   0.900   1.889   1.898
  133SOL     OW  397   0.457  -0.103   2.648
  133SOL    HW1  398   0.386  -0.160   2.691
  133SOL    HW2  399   0.419  -0.059   2.567
  134SOL     OW  400   2.046   0.552   0.999
  134SOL    HW1  401   1.968   0.493   0.977
  134SOL    HW2  402   2.013   0.637   1.040
  135SOL     OW  403   0.579   1.955   1.831
  135SOL    HW1  404   0.529   1.902   1.899
  135SOL    HW2  405   0.654   2.005   1.876
  136SOL     OW  406   1.996   2.552   1.330
  136SOL    HW1  407   1.921   2.487   1.341
  136SOL    HW2  408   2.029   2.580   1.420
  137SOL     OW  409   0.138  -1.455   2.842
  137SOL    HW1  410   0.228  -1.498   2.839
  137SOL    HW2  411   0.146  -1.363   2.882
  138SOL     OW  412   0.652   1.839   0.522
  138SOL    HW1  413   0.702   1.780   0.585
  138SOL    HW2  414   0.702   1.925   0.509
  139SOL     OW  415  -0.319   0.228   2.260
  139SOL    HW1  416  -0.356   0.146   2.217
  139SOL    HW2  417  -0.336   0.307   2.202
  140SOL     OW  418  -0.950   0.780   0.673
  140SOL    HW1  419  -1.028   0.795   0.735
  140SOL    HW2  420  -0.869   0.824   0.710
  141SOL     OW  421  -1.466   0.083   2.362
  141SOL    HW1  422  -1.480   0.167   2.309
  141SOL    HW2  423  -1.377   0.086   2.405
  142SOL     OW  424  -0.957  -0.574   2.058
  142SOL    HW1  425  -0.928  -0.479   2.058
  142SOL    HW2  426  -0.937  -0.614   2.148
  143SOL     OW  427  -0.310   0.535   2.173
  143SOL    HW1  428  -0.388   0.557   2.232
  143SOL    HW2  429  -0.239   0.604   2.185
  144SOL     OW  430   0.211   0.727   2.484
  144SOL    HW1  431   0.115   0.718   2.511
  144SOL    HW2  432   0.248   0.812   2.522
  145SOL     OW  433   2.348   1.078   1.550
  145SOL    HW1  434   2.257   1.115   1.528
  145SOL    HW2  435   2.404   1.151   1.589
  146SOL     OW  436   0.315   1.522   0.562
  146SOL    HW1  437   0.293   1.538   0.658
  146SOL    HW2  438   0.396   1.463   0.556
  147SOL     OW  439   2.080   0.087   0.349
  147SOL    HW1  440   2.018   0.148   0.299
  147SOL    HW2  441   2.112   0.132   0.432
  148SOL     OW  442   1.703  -0.269   2.240
  148SOL    HW1  443   1.632  -0.340   2.243
  148SOL    HW2  444   1.728  -0.244   2.334
  149SOL     OW  445   2.103  -0.020   1.069
  149SOL    HW1  446   2.054   0.062   1.040
  149SOL    HW2  447   2.105  -0.024   1.169
  150SOL     OW  448  -1.398   0.293   0.356
  150SOL    HW1  449  -1.429   0.315   0.264
  150SOL    HW2  450  -1.358   0.375   0.398
  151SOL     OW  451   1.750   1.297   0.090
  151SOL    HW1  452   1.796   1.218   0.129
  151SOL    HW2  453   1.716   1.355   0.165
  152SOL     OW  454   2.072   2.186   0.199
  152SOL    HW1  455   1.993   2.125   0.200
  152SOL    HW2  456   2.053   2.266   0.257
  153SOL     OW  457  -1.268   1.552   2.216
  153SOL    HW1  458  -1.292   1.608   2.295
  153SOL    HW2  459  -1.286   1.604   2.132
  154SOL     OW  460   0.512  -0.957   0.153
  154SOL    HW1  461   0.447  -0.884   0.132
  154SOL    HW2  462   0.520  -0.967   0.253
  155SOL     OW  463  -0.957  -0.930   0.721
  155SOL    HW1  464  -0.913  -0.865   0.782
  155SOL    HW2  465  -0.988  -1.010   0.772
  156SOL     OW  466  -0.712  -0.562   0.506
  156SOL    HW1  467  -0.803  -0.523   0.489
  156SOL    HW2  468  -0.721  -0.647   0.558
  157SOL     OW  469  -1.219   0.105   2.757
  157SOL    HW1  470  -1.247   0.163   2.681
  157SOL    HW2  471  -1.169   0.159   2.825
  158SOL     OW  472   0.215  -0.928   3.350
  158SOL    HW1  473   0.125  -0.953   3.384
  158SOL    HW2  474   0.275  -1.008   3.353
  159SOL     OW  475   0.230  -1.103   0.303
  159SOL    HW1  476   0.325  -1.117   0.329
  159SOL    HW2  477   0.173  -1.099   0.386
  160SOL     OW  478  -0.196  -1.165   1.324
  160SOL    HW1  479  -0.184  -1.158   1.423
  160SOL    HW2  480  -0.207  -1.073   1.286
  161SOL     OW  481  -0.752   0.623   0.273
  161SOL    HW1  482  -0.741   0.690   0.346
  161SOL    HW2  483  -0.745   0.669   0.184
  162SOL     OW  484  -1.640  -0.482   1.624
  162SOL    HW1  485  -1.544  -0.503   1.639
  162SOL    HW2  486  -1.688  -0.564   1.592
  163SOL     OW  487  -1.636   0.593   1.252
  163SOL    HW1  488  -1.705   0.532   1.290
  163SOL    HW2  489  -1.673   0.686   1.247
  164SOL     OW  490   1.996   1.794   0.179
  164SOL    HW1  491   1.946   1.880   0.188
  164SOL    HW2  492   2.091   1.808   0.207
  165SOL     OW  493   1.716   0.620   1.334
  165SOL    HW1  494   1.717   0.588   1.240
  165SOL    HW2  495   1.788   0.689   1.347
  166SOL     OW  496   1.409  -0.694   1.799
  166SOL    HW1  497   1.478  -0.731   1.737
  166SOL    HW2  498   1.398  -0.755   1.877
  167SOL     OW  499  -0.334   0.136   0.178
  167SOL    HW1  500  -0.254   0.153   0.235
  167SOL    HW2  501  -0.308   0.141   0.081
  168SOL     OW  502  -0.962   0.637   0.431
  168SOL    HW1  503  -0.966   0.597   0.523
  168SOL    HW2  504  -0.951   0.736   0.438
  169SOL     OW  505   2.251   2.468   1.287
  169SOL    HW1  506   2.157   2.499   1.303
  169SOL    HW2  507   2.297   2.453   1.375
  170SOL     OW  508   2.139  -0.728   1.958
  170SOL    HW1  509   2.061  -0.791   1.959
  170SOL    HW2  510   2.165  -0.707   2.052
  171SOL     OW  511  -1.848   0.883   1.653
  171SOL    HW1  512  -1.810   0.794   1.628
  171SOL    HW2  513  -1.852   0.891   1.753
  172SOL     OW  514   0.358  -1.662   1.328
  172SOL    HW1  515   0.283  -1.673   1.263
  172SOL    HW2  516   0.323  -1.667   1.421
  173SOL     OW  517  -1.513   0.366   2.185
  173SOL    HW1  518  -1.439   0.343   2.248
  173SOL    HW2  519  -1.594   0.391   2.237
  174SOL     OW  520  -0.518  -1.802   2.433
  174SOL    HW1  521  -0.605  -1.841   2.401
  174SOL    HW2  522  -0.445  -1.833   2.372
  175SOL     OW  523   1.908   0.802   1.368
  175SOL    HW1  524   1.974   0.749   1.422
  175SOL    HW2  525   1.847   0.852   1.429
  176SOL     OW  526   1.159   0.386   1.917
  176SOL    HW1  527   1.241   0.336   1.945
  176SOL    HW2  528   1.111   0.420   1.998
  177SOL     OW  529   1.215  -0.339  -0.824
  177SOL    HW1  530   1.237  -0.351  -0.727
  177SOL    HW2  531   1.127  -0.291  -0.833
  178SOL     OW  532   0.741   1.569   0.324
  178SOL    HW1  533   0.841   1.573   0.328
  178SOL    HW2  534   0.704   1.567   0.417
  179SOL     OW  535  -0.591  -0.012   2.831
  179SOL    HW1  536  -0.529   0.061   2.804
  179SOL    HW2  537  -0.595  -0.017   2.931
  180SOL     OW  538   0.285  -0.690   3.266
  180SOL    HW1  539   0.258  -0.781   3.298
  180SOL    HW2  540   0.302  -0.630   3.345
  181SOL     OW  541  -0.757  -0.597   3.046
  181SOL    HW1  542  -0.662  -0.624   3.061
  181SOL    HW2  543  -0.802  -0.584   3.135
  182SOL     OW  544  -0.067  -0.253   0.199
  182SOL    HW1  545  -0.106  -0.307   0.274
  182SOL    HW2  546  -0.012  -0.179   0.237
  183SOL     OW  547  -1.474   1.442   1.946
  183SOL    HW1  548  -1.491   1.447   2.045
  183SOL    HW2  549  -1.557   1.464   1.896
  184SOL     OW  550   2.018   0.108  -0.002
  184SOL    HW1  551   1.975   0.165   0.068
  184SOL    HW2  552   2.108   0.079   0.030
  185SOL     OW  553   0.612  -2.032   2.251
  185SOL    HW1  554   0.595  -1.995   2.160
  185SOL    HW2  555   0.582  -1.966   2.320
  186SOL     OW  556   1.955   0.789   1.112
  186SOL    HW1  557   1.937   0.794   1.210
  186SOL    HW2  558   1.994   0.875   1.080
  187SOL     OW  559  -0.569  -1.152   1.765
  187SOL    HW1  560  -0.542  -1.056   1.758
  187SOL    HW2  561  -0.576  -1.178   1.861
  188SOL     OW  562   2.094   0.651   1.521
  188SOL    HW1  563   2.167   0.693   1.592
  188SOL    HW2  564   2.104   0.541   1.520
  189SOL     OW  565  -1.746   0.870   1.238
  189SOL    HW1  566  -1.841   0.895   1.256
  189SOL    HW2  567  -1.693   0.952   1.213
  190SOL     OW  568   1.912   2.350   0.375
  190SOL    HW1  569   1.845   2.278   0.356
  190SOL    HW2  570   1.922   2.361   0.474
  191SOL     OW  571  -1.159   0.477   2.805
  191SOL    HW1  572  -1.194   0.420   2.731
  191SOL    HW2  573  -1.184   0.436   2.893
  192SOL     OW  574   2.001   1.220   1.132
  192SOL    HW1  575   2.022   1.240   1.228
  192SOL    HW2  576   1.947   1.296   1.094
  193SOL     OW  577   1.853  -0.099   1.691
  193SOL    HW1  578   1.785  -0.122   1.621
  193SOL    HW2  579   1.920  -0.173   1.696
  194SOL     OW  580   1.170  -1.181   3.119
  194SOL    HW1  581   1.148  -1.181   3.021
  194SOL    HW2  582   1.085  -1.179   3.172
  195SOL     OW  583   1.843   0.352   1.637
  195SOL    HW1  584   1.851   0.312   1.546
  195SOL    HW2  585   1.889   0.295   1.704
  196SOL     OW  586  -0.074   1.105   0.524
  196SOL    HW1  587  -0.157   1.138   0.478
  196SOL    HW2  588  -0.060   1.159   0.608
  197SOL     OW  589   0.859   1.438   2.217
  197SOL    HW1  590   0.878   1.521   2.270
  197SOL    HW2  591   0.941   1.411   2.166
  198SOL     OW  592  -0.568   0.085   0.265
  198SOL    HW1  593  -0.476   0.105   0.231
  198SOL    HW2  594  -0.567   0.086   0.365
  199SOL     OW  595  -0.270   1.657   1.832
  199SOL    HW1  596  -0.205   1.606   1.888
  199SOL    HW2  597  -0.334   1.706   1.891
  200SOL     OW  598   2.171   1.665   0.525
  200SOL    HW1  599   2.174   1.764   0.536
  200SOL    HW2  600   2.264   1.627   0.533
  201SOL     OW  601  -0.296   1.193   0.400
  201SOL    HW1  602  -0.335   1.295   0.405
  201SOL    HW2  603  -0.361   1.131   0.336
  202SOL     OW  604   1.021  -0.659  -1.825
  202SOL    HW1  605   0.927  -0.634  -1.800
  202SOL    HW2  606   1.075  -0.674  -1.742
  203SOL     OW  607   1.477   0.879  -0.376
  203SOL    HW1  608   1.532   0.940  -0.303
  203SOL    HW2  609   1.524   0.890  -0.475
  204SOL     OW  610  -0.488  -1.642   2.645
  204SOL    HW1  611  -0.473  -1.548   2.614
  204SOL    HW2  612  -0.499  -1.702   2.566
  205SOL     OW  613   1.352   1.990   2.297
  205SOL    HW1  614   1.362   1.934   2.379
  205SOL    HW2  615   1.255   1.994   2.271
  206SOL     OW  616   0.273   1.265   0.609
  206SOL    HW1  617   0.278   1.237   0.705
  206SOL    HW2  618   0.201   1.333   0.598
  207SOL     OW  619   1.448  -1.859   2.518
  207SOL    HW1  620   1.459  -1.809   2.603
  207SOL    HW2  621   1.426  -1.955   2.537
  208SOL     OW  622   0.383  -0.706   3.017
  208SOL    HW1  623   0.330  -0.776   2.968
  208SOL    HW2  624   0.349  -0.698   3.110
  209SOL     OW  625   2.065   1.029   1.017
  209SOL    HW1  626   2.096   1.035   1.112
  209SOL    HW2  627   2.143   1.044   0.955
  210SOL     OW  628   1.379  -0.369   1.869
  210SOL    HW1  629   1.304  -0.355   1.933
  210SOL    HW2  630   1.354  -0.334   1.779
  211SOL     OW  631   1.873  -1.333   2.139
  211SOL    HW1  632   1.814  -1.397   2.091
  211SOL    HW2  633   1.863  -1.345   2.237
  212SOL     OW  634  -0.254   0.341   0.364
  212SOL    HW1  635  -0.219   0.431   0.338
  212SOL    HW2  636  -0.256   0.333   0.463
  213SOL     OW  637   1.280   1.282  -0.017
  213SOL    HW1  638   1.235   1.261   0.069
  213SOL    HW2  639   1.369   1.324   0.000
  214SOL     OW  640   1.324  -1.996   1.894
  214SOL    HW1  641   1.309  -1.930   1.820
  214SOL    HW2  642   1.248  -1.990   1.959
  215SOL     OW  643   0.243  -1.934   1.444
  215SOL    HW1  644   0.280  -1.930   1.536
  215SOL    HW2  645   0.272  -1.853   1.393
  216SOL     OW  646   0.376  -0.394  -2.222
  216SOL    HW1  647   0.466  -0.380  -2.179
  216SOL    HW2  648   0.307  -0.405  -2.151
  217SOL     OW  649  -0.367  -1.224   1.916
  217SOL    HW1  650  -0.269  -1.240   1.930
  217SOL    HW2  651  -0.413  -1.312   1.902
  218SOL     OW  652   2.090   1.423   0.435
  218SOL    HW1  653   2.138   1.401   0.351
  218SOL    HW2  654   2.120   1.513   0.468
  219SOL     OW  655   2.051   2.524   1.632
  219SOL    HW1  656   2.071   2.433   1.593
  219SOL    HW2  657   2.052   2.519   1.731
  220SOL     OW  658   0.103  -1.608   0.699
  220SOL    HW1  659   0.115  -1.523   0.750
  220SOL    HW2  660   0.092  -1.684   0.763
  221SOL     OW  661   0.427   1.176   0.419
  221SOL    HW1  662   0.368   1.210   0.492
  221SOL    HW2  663   0.507   1.130   0.459
  222SOL     OW  664  -1.077  -0.062   2.615
  222SOL    HW1  665  -0.999  -0.037   2.558
  222SOL    HW2  666  -1.114   0.020   2.659
  223SOL     OW  667   0.398  -0.976  -0.445
  223SOL    HW1  668   0.460  -0.912  -0.400
  223SOL    HW2  669   0.347  -1.027  -0.376
  224SOL     OW  670  -0.213   0.653   0.352
  224SOL    HW1  671  -0.209   0.713   0.432
  224SOL    HW2  672  -0.202   0.707   0.269
  225SOL     OW  673  -0.571  -1.448   1.868
  225SOL    HW1  674  -0.493  -1.507   1.889
  225SOL    HW2  675  -0.581  -1.441   1.768
  226SOL     OW  676   0.695   1.284   0.431
  226SOL    HW1  677   0.710   1.377   0.396
  226SOL    HW2  678   0.748   1.271   0.514
  227SOL     OW  679   1.012  -0.010  -0.738
  227SOL    HW1  680   0.950   0.053  -0.690
  227SOL    HW2  681   0.962  -0.091  -0.767
  228SOL     OW  682  -1.304  -0.557   0.356
  228SOL    HW1  683  -1.284  -0.470   0.312
  228SOL    HW2  684  -1.301  -0.545   0.456
  229SOL     OW  685   0.003   0.439  -0.237
  229SOL    HW1  686  -0.079   0.451  -0.182
  229SOL    HW2  687  -0.021   0.443  -0.334
  230SOL     OW  688   2.190  -0.134   0.243
  230SOL    HW1  689   2.149  -0.051   0.283
  230SOL    HW2  690   2.266  -0.164   0.300
  231SOL     OW  691  -1.689  -0.770   1.534
  231SOL    HW1  692  -1.615  -0.738   1.475
  231SOL    HW2  693  -1.661  -0.758   1.630
  232SOL     OW  694  -1.661   0.424   0.344
  232SOL    HW1  695  -1.615   0.397   0.259
  232SOL    HW2  696  -1.606   0.392   0.422
  233SOL     OW  697   1.556   2.111   2.163
  233SOL    HW1  698   1.481   2.067   2.212
  233SOL    HW2  699   1.621   2.149   2.229
  234SOL     OW  700   0.057  -0.430   0.033
  234SOL    HW1  701   0.012  -0.365   0.094
  234SOL    HW2  702   0.106  -0.499   0.087
  235SOL     OW  703  -1.082   0.251   2.940
  235SOL    HW1  704  -1.093   0.244   3.039
  235SOL    HW2  705  -1.013   0.320   2.918
  236SOL     OW  706   1.344  -0.033   2.588
  236SOL    HW1  707   1.282  -0.091   2.641
  236SOL    HW2  708   1.401   0.021   2.651
  237SOL     OW  709  -0.262   1.389   2.147
  237SOL    HW1  710  -0.217   1.314   2.196
  237SOL    HW2  711  -0.300   1.454   2.212
  238SOL     OW  712   2.097  -1.279   0.981
  238SOL    HW1  713   2.016  -1.306   1.032
  238SOL    HW2  714   2.072  -1.256   0.887
  239SOL     OW  715   2.084  -0.370   0.318
  239SOL    HW1  716   2.010  -0.362   0.385
  239SOL    HW2  717   2.163  -0.319   0.351
  240SOL     OW  718   1.942  -1.605   2.265
  240SOL    HW1  719   1.848  -1.618   2.234
  240SOL    HW2  720   1.952  -1.513   2.305
  241SOL     OW  721   0.077   0.265  -0.010
  241SOL    HW1  722   0.084   0.301  -0.103
  241SOL    HW2  723   0.003   0.311   0.038
  242SOL     OW  724  -0.235  -1.960   1.376
  242SOL    HW1  725  -0.210  -1.933   1.469
  242SOL    HW2  726  -0.303  -2.033   1.380
  243SOL     OW  727   1.124   0.127   2.479
  243SOL    HW1  728   1.053   0.056   2.479
  243SOL    HW2  729   1.209   0.089   2.514
  244SOL     OW  730   1.900  -0.486  -0.433
  244SOL    HW1  731   1.826  -0.532  -0.482
  244SOL    HW2  732   1.864  -0.444  -0.350
  245SOL     OW  733   0.286   1.700   2.536
  245SOL    HW1  734   0.297   1.601   2.528
  245SOL    HW2  735   0.283   1.726   2.633
  246SOL     OW  736  -0.200  -1.432   1.146
  246SOL    HW1  737  -0.179  -1.397   1.054
  246SOL    HW2  738  -0.202  -1.356   1.211
  247SOL     OW  739   0.033  -1.740   2.746
  247SOL    HW1  740   0.066  -1.650   2.776
  247SOL    HW2  741   0.012  -1.796   2.825
  248SOL     OW  742   2.220  -0.570   1.752
  248SOL    HW1  743   2.190  -0.628   1.828
  248SOL    HW2  744   2.262  -0.487   1.788
  249SOL     OW  745  -0.411  -0.698   3.099
  249SOL    HW1  746  -0.336  -0.734   3.153
  249SOL    HW2  747  -0.483  -0.664   3.160
  250SOL     OW  748  -0.414   1.522   2.433
  250SOL    HW1  749  -0.321   1.494   2.459
  250SOL    HW2  750  -0.469   1.538   2.514
  251SOL     OW  751   0.048  -0.822  -0.014
  251SOL    HW1  752  -0.008  -0.793  -0.091
  251SOL    HW2  753   0.087  -0.741   0.031
  252SOL     OW  754   0.164  -1.691   1.161
  252SOL    HW1  755   0.074  -1.649   1.169
  252SOL    HW2  756   0.168  -1.747   1.078
  253SOL     OW  757   2.487   1.322   0.958
  253SOL    HW1  758   2.551   1.255   0.995
  253SOL    HW2  759   2.418   1.276   0.902
  254SOL     OW  760  -0.099  -0.547   3.242
  254SOL    HW1  761  -0.126  -0.643   3.252
  254SOL    HW2  762  -0.088  -0.506   3.332
  255SOL     OW  763  -1.861   0.375   1.742
  255SOL    HW1  764  -1.917   0.363   1.824
  255SOL    HW2  765  -1.918   0.363   1.661
  256SOL     OW  766  -1.141   1.467   1.988
  256SOL    HW1  767  -1.240   1.460   1.976
  256SOL    HW2  768  -1.122   1.523   2.069
  257SOL     OW  769  -0.611   0.137  -0.194
  257SOL    HW1  770  -0.660   0.122  -0.108
  257SOL    HW2  771  -0.517   0.165  -0.175
  258SOL     OW  772  -0.102  -0.744  -0.221
  258SOL    HW1  773  -0.179  -0.735  -0.157
  258SOL    HW2  774  -0.133  -0.795  -0.302
  259SOL     OW  775   0.322  -0.298  -1.008
  259SOL    HW1  776   0.375  -0.289  -1.092
  259SOL    HW2  777   0.383  -0.321  -0.932
  260SOL     OW  778  -1.114  -1.204   0.618
  260SOL    HW1  779  -1.057  -1.203   0.700
  260SOL    HW2  780  -1.211  -1.205   0.645
  261SOL     OW  781  -2.108   0.670   0.357
  261SOL    HW1  782  -2.031   0.707   0.410
  261SOL    HW2  783  -2.179   0.637   0.420
  262SOL     OW  784   1.220  -0.037   2.007
  262SOL    HW1  785   1.206  -0.063   1.912
  262SOL    HW2  786   1.182  -0.108   2.067
  263SOL     OW  787   2.074  -0.114  -0.136
  263SOL    HW1  788   2.013  -0.193  -0.129
  263SOL    HW2  789   2.025  -0.031  -0.108
  264SOL     OW  790   1.694   1.098  -0.081
  264SOL    HW1  791   1.730   1.068  -0.170
  264SOL    HW2  792   1.744   1.179  -0.050
  265SOL     OW  793   0.320   0.310   2.866
  265SOL    HW1  794   0.314   0.384   2.798
  265SOL    HW2  795   0.317   0.350   2.958
  266SOL     OW  796  -0.137   0.398   0.130
  266SOL    HW1  797  -0.196   0.319   0.145
  266SOL    HW2  798  -0.186   0.482   0.156
  267SOL     OW  799   2.090   1.270   0.649
  267SOL    HW1  800   2.115   1.176   0.623
  267SOL    HW2  801   2.090   1.328   0.568
  268SOL     OW  802   2.479   1.670   0.566
  268SOL    HW1  803   2.430   1.701   0.647
  268SOL    HW2  804   2.559   1.617   0.593
  269SOL     OW  805  -0.774   1.281   2.703
  269SOL    HW1  806  -0.724   1.195   2.697
  269SOL    HW2  807  -0.788   1.306   2.799
  270SOL     OW  808   0.868   1.973   1.795
  270SOL    HW1  809   0.832   2.066   1.805
  270SOL    HW2  810   0.876   1.950   1.698
  271SOL     OW  811   2.376   0.068   0.821
  271SOL    HW1  812   2.318   0.134   0.772
  271SOL    HW2  813   2.365   0.080   0.919
  272SOL     OW  814   0.130  -1.077   0.026
  272SOL    HW1  815   0.164  -1.087   0.120
  272SOL    HW2  816   0.100  -0.982   0.011
  273SOL     OW  817  -0.376   0.604  -0.031
  273SOL    HW1  818  -0.297   0.665  -0.041
  273SOL    HW2  819  -0.348   0.521   0.017
  274SOL     OW  820  -1.928   0.609   1.089
  274SOL    HW1  821  -1.841   0.605   1.138
  274SOL    HW2  822  -2.003   0.613   1.155
  275SOL     OW  823  -1.156  -0.720   2.868
  275SOL    HW1  824  -1.092  -0.656   2.931
  275SOL    HW2  825  -1.219  -0.783   2.932
  276SOL     OW  826  -2.017   0.268   1.494
  276SOL    HW1  827  -1.929   0.276   1.447
  276SOL    HW2  828  -2.006   0.214   1.577
  277SOL     OW  829  -1.483   0.180   2.648
  277SOL    HW1  830  -1.478   0.148   2.554
  277SOL    HW2  831  -1.470   0.103   2.711
  278SOL     OW  832   0.816   0.562  -0.425
  278SOL    HW1  833   0.826   0.464  -0.445
  278SOL    HW2  834   0.782   0.574  -0.332
  279SOL     OW  835   0.302   0.528   2.664
  279SOL    HW1  836   0.257   0.606   2.621
  279SOL    HW2  837   0.359   0.481   2.596
  280SOL     OW  838   1.962   0.752  -0.255
  280SOL    HW1  839   2.026   0.816  -0.192
  280SOL    HW2  840   1.899   0.689  -0.192
  281SOL     OW  841  -0.134   1.877   0.923
  281SOL    HW1  842  -0.042   1.916   0.934
  281SOL    HW2  843  -0.174   1.861   1.013
  282SOL     OW  844   1.351   0.046  -0.793
  282SOL    HW1  845   1.305   0.001  -0.716
  282SOL    HW2  846   1.418   0.111  -0.758
  283SOL     OW  847   1.471  -0.501   2.248
  283SOL    HW1  848   1.546  -0.526   2.310
  283SOL    HW2  849   1.386  -0.496   2.299
  284SOL     OW  850   2.107  -1.015   2.389
  284SOL    HW1  851   2.079  -0.922   2.413
  284SOL    HW2  852   2.122  -1.068   2.472
  285SOL     OW  853  -1.782   1.254   1.312
  285SOL    HW1  854  -1.734   1.173   1.347
  285SOL    HW2  855  -1.732   1.336   1.337
  286SOL     OW  856   0.453   0.406   2.486
  286SOL    HW1  857   0.477   0.471   2.415
  286SOL    HW2  858   0.516   0.328   2.483
  287SOL     OW  859  -1.673  -1.030   1.449
  287SOL    HW1  860  -1.678  -0.935   1.480
  287SOL    HW2  861  -1.669  -1.091   1.529
  288SOL     OW  862   2.223   1.731   1.681
  288SOL    HW1  863   2.124   1.742   1.668
  288SOL    HW2  864   2.272   1.784   1.612
  289SOL     OW  865   0.338  -0.394  -1.607
  289SOL    HW1  866   0.321  -0.304  -1.545
  289SOL    HW2  867   0.244  -0.425  -1.655
  290SOL     OW  868   1.955  -1.210   0.667
  290SOL    HW1  869   2.006  -1.184   0.585
  290SOL    HW2  870   1.857  -1.214   0.646
  291SOL     OW  871   0.573  -0.798  -0.319
  291SOL    HW1  872   0.608  -0.807  -0.226
  291SOL    HW2  873   0.611  -0.715  -0.360
  292SOL     OW  874   2.498   1.296   1.660
  292SOL    HW1  875   2.438   1.370   1.628
  292SOL    HW2  876   2.498   1.296   1.760
  293SOL     OW  877  -1.033  -0.645   0.368
  293SOL    HW1  878  -0.972  -0.565   0.374
  293SOL    HW2  879  -1.128  -0.614   0.364
  294SOL     OW  880   2.196   0.661   0.774
  294SOL    HW1  881   2.203   0.745   0.720
  294SOL    HW2  882   2.126   0.673   0.845
  295SOL     OW  883   1.610  -0.971   2.545
  295SOL    HW1  884   1.606  -0.967   2.645
  295SOL    HW2  885   1.672  -1.044   2.517
  296SOL     OW  886   0.503  -0.493  -0.033
  296SOL    HW1  887   0.443  -0.564   0.004
  296SOL    HW2  888   0.545  -0.443   0.043
  297SOL     OW  889   1.702  -1.418   0.640
  297SOL    HW1  890   1.797  -1.398   0.664
  297SOL    HW2  891   1.641  -1.356   0.689
  298SOL     OW  892   1.933   1.609   0.356
  298SOL    HW1  893   1.957   1.679   0.289
  298SOL    HW2  894   1.945   1.645   0.448
  299SOL     OW  895  -0.026  -1.637   0.935
  299SOL    HW1  896  -0.077  -1.577   0.996
  299SOL    HW2  897   0.071  -1.614   0.939
  300SOL     OW  898  -0.206  -1.176   0.465
  300SOL    HW1  899  -0.242  -1.213   0.379
  300SOL    HW2  900  -0.282  -1.159   0.528
  301SOL     OW  901   0.689  -0.345  -2.073
  301SOL    HW1  902   0.726  -0.257  -2.043
  301SOL    HW2  903   0.756  -0.417  -2.055
  302SOL     OW  904   2.110  -0.842   0.427
  302SOL    HW1  905   2.118  -0.761   0.486
  302SOL    HW2  906   2.102  -0.923   0.484
  303SOL     OW  907  -1.848   1.473   1.516
  303SOL    HW1  908  -1.940   1.511   1.521
  303SOL    HW2  909  -1.805   1.502   1.430
  304SOL     OW  910   2.072  -0.519   0.071
  304SOL    HW1  911   2.076  -0.467   0.157
  304SOL    HW2  912   2.064  -0.617   0.092
  305SOL     OW  913   2.499   1.646   1.014
  305SOL    HW1  914   2.440   1.689   0.945
  305SOL    HW2  915   2.467   1.669   1.105
  306SOL     OW  916   2.529   1.721   1.264
  306SOL    HW1  917   2.603   1.779   1.299
  306SOL    HW2  918   2.468   1.696   1.340
    4.4313    4.4313    4.4313
