; ITP file created by ByteFF-joint-25, 2026-02-17 09:43:55.144986

[ atomtypes ]
;name           bonded.type        at.num        mass        charge   ptype           sigma         epsilon
 c0bf                                   6      0.0000       0.00000       A     3.39770e-01     4.51055e-01    ;  uncertainty sigma = 0.000009, epsilon = 0.000913
 c1bf                                   6      0.0000       0.00000       A     3.39799e-01     4.52072e-01    ;  uncertainty sigma = 0.000016, epsilon = 0.001810
 o2bf                                   8      0.0000       0.00000       A     3.24236e-01     3.88425e-01    ;  uncertainty sigma = 0.000010, epsilon = 0.000920
 c3bf                                   6      0.0000       0.00000       A     3.39766e-01     4.50518e-01    ;  uncertainty sigma = 0.000009, epsilon = 0.000772
 c4bf                                   6      0.0000       0.00000       A     3.39780e-01     4.50691e-01    ;  uncertainty sigma = 0.000011, epsilon = 0.000382
 n5bf                                   7      0.0000       0.00000       A     3.18957e-01     8.98596e-01    ;  uncertainty sigma = 0.000018, epsilon = 0.001765
 c6bf                                   6      0.0000       0.00000       A     3.39780e-01     4.50691e-01    ;  uncertainty sigma = 0.000011, epsilon = 0.000382
 c7bf                                   6      0.0000       0.00000       A     3.39766e-01     4.50518e-01    ;  uncertainty sigma = 0.000009, epsilon = 0.000772
 c8bf                                   6      0.0000       0.00000       A     3.31517e-01     4.12999e-01    ;  uncertainty sigma = 0.000017, epsilon = 0.000793
 c9bf                                   6      0.0000       0.00000       A     3.31529e-01     4.13240e-01    ;  uncertainty sigma = 0.000003, epsilon = 0.000377
 c10bf                                  6      0.0000       0.00000       A     3.31520e-01     4.13355e-01    ;  uncertainty sigma = 0.000010, epsilon = 0.000739
 c11bf                                  6      0.0000       0.00000       A     3.31527e-01     4.13416e-01    ;  uncertainty sigma = 0.000004, epsilon = 0.001003
 n12bf                                  7      0.0000       0.00000       A     3.27838e-01     6.46213e-01    ;  uncertainty sigma = 0.000040, epsilon = 0.003240
 c13bf                                  6      0.0000       0.00000       A     3.31526e-01     4.13887e-01    ;  uncertainty sigma = 0.000017, epsilon = 0.001682
 n14bf                                  7      0.0000       0.00000       A     3.38464e-01     3.93282e-01    ;  uncertainty sigma = 0.000032, epsilon = 0.000680
 c15bf                                  6      0.0000       0.00000       A     3.31551e-01     4.13482e-01    ;  uncertainty sigma = 0.000026, epsilon = 0.000675
 c16bf                                  6      0.0000       0.00000       A     3.31561e-01     4.13642e-01    ;  uncertainty sigma = 0.000012, epsilon = 0.001524
 n17bf                                  7      0.0000       0.00000       A     3.20547e-01     8.53303e-01    ;  uncertainty sigma = 0.000017, epsilon = 0.000844
 c18bf                                  6      0.0000       0.00000       A     3.31503e-01     4.12978e-01    ;  uncertainty sigma = 0.000012, epsilon = 0.001136
 c19bf                                  6      0.0000       0.00000       A     3.31531e-01     4.13187e-01    ;  uncertainty sigma = 0.000008, epsilon = 0.000699
 n20bf                                  7      0.0000       0.00000       A     3.38427e-01     3.92895e-01    ;  uncertainty sigma = 0.000039, epsilon = 0.000415
 c21bf                                  6      0.0000       0.00000       A     3.31554e-01     4.12537e-01    ;  uncertainty sigma = 0.000015, epsilon = 0.000432
 c22bf                                  6      0.0000       0.00000       A     3.31495e-01     4.12862e-01    ;  uncertainty sigma = 0.000015, epsilon = 0.000655
 c23bf                                  6      0.0000       0.00000       A     3.31522e-01     4.13340e-01    ;  uncertainty sigma = 0.000008, epsilon = 0.000498
 c24bf                                  6      0.0000       0.00000       A     3.31514e-01     4.13292e-01    ;  uncertainty sigma = 0.000012, epsilon = 0.000796
 c25bf                                  6      0.0000       0.00000       A     3.31509e-01     4.13757e-01    ;  uncertainty sigma = 0.000011, epsilon = 0.000799
 c26bf                                  6      0.0000       0.00000       A     3.31513e-01     4.13361e-01    ;  uncertainty sigma = 0.000005, epsilon = 0.000518
 n27bf                                  7      0.0000       0.00000       A     3.38391e-01     3.93277e-01    ;  uncertainty sigma = 0.000010, epsilon = 0.000960
 n28bf                                  7      0.0000       0.00000       A     3.20633e-01     8.53349e-01    ;  uncertainty sigma = 0.000014, epsilon = 0.001516
 c29bf                                  6      0.0000       0.00000       A     3.31512e-01     4.13040e-01    ;  uncertainty sigma = 0.000009, epsilon = 0.000957
 c30bf                                  6      0.0000       0.00000       A     3.31510e-01     4.13220e-01    ;  uncertainty sigma = 0.000011, epsilon = 0.001090
 c31bf                                  6      0.0000       0.00000       A     3.31520e-01     4.13355e-01    ;  uncertainty sigma = 0.000010, epsilon = 0.000739
 c32bf                                  6      0.0000       0.00000       A     3.31529e-01     4.13240e-01    ;  uncertainty sigma = 0.000003, epsilon = 0.000377
 h33bf                                  1      0.0000       0.00000       A     2.60017e-01     8.66680e-02    ;  uncertainty sigma = 0.000014, epsilon = 0.000439
 h34bf                                  1      0.0000       0.00000       A     2.60017e-01     8.66680e-02    ;  uncertainty sigma = 0.000014, epsilon = 0.000439
 h35bf                                  1      0.0000       0.00000       A     2.60017e-01     8.66680e-02    ;  uncertainty sigma = 0.000014, epsilon = 0.000439
 h36bf                                  1      0.0000       0.00000       A     5.37393e-02     1.94731e-02    ;  uncertainty sigma = 0.000129, epsilon = 0.001563
 h37bf                                  1      0.0000       0.00000       A     2.60033e-01     8.68223e-02    ;  uncertainty sigma = 0.000018, epsilon = 0.000398
 h38bf                                  1      0.0000       0.00000       A     2.60033e-01     8.68223e-02    ;  uncertainty sigma = 0.000018, epsilon = 0.000398
 h39bf                                  1      0.0000       0.00000       A     2.42213e-01     8.66486e-02    ;  uncertainty sigma = 0.000010, epsilon = 0.000757
 h40bf                                  1      0.0000       0.00000       A     2.42213e-01     8.66486e-02    ;  uncertainty sigma = 0.000010, epsilon = 0.000757
 h41bf                                  1      0.0000       0.00000       A     2.42213e-01     8.66486e-02    ;  uncertainty sigma = 0.000010, epsilon = 0.000757
 h42bf                                  1      0.0000       0.00000       A     2.42213e-01     8.66486e-02    ;  uncertainty sigma = 0.000010, epsilon = 0.000757
 h43bf                                  1      0.0000       0.00000       A     2.60033e-01     8.68223e-02    ;  uncertainty sigma = 0.000018, epsilon = 0.000398
 h44bf                                  1      0.0000       0.00000       A     2.60033e-01     8.68224e-02    ;  uncertainty sigma = 0.000018, epsilon = 0.000398
 h45bf                                  1      0.0000       0.00000       A     2.62564e-01     6.71920e-02    ;  uncertainty sigma = 0.000015, epsilon = 0.000441
 h46bf                                  1      0.0000       0.00000       A     2.62567e-01     6.70446e-02    ;  uncertainty sigma = 0.000013, epsilon = 0.000408
 h47bf                                  1      0.0000       0.00000       A     1.10708e-01     4.06502e-02    ;  uncertainty sigma = 0.000118, epsilon = 0.000465
 h48bf                                  1      0.0000       0.00000       A     2.53612e-01     6.73648e-02    ;  uncertainty sigma = 0.000081, epsilon = 0.000889
 h49bf                                  1      0.0000       0.00000       A     2.53649e-01     6.68496e-02    ;  uncertainty sigma = 0.000023, epsilon = 0.000657
 h50bf                                  1      0.0000       0.00000       A     2.53645e-01     6.69492e-02    ;  uncertainty sigma = 0.000020, epsilon = 0.000834
 h51bf                                  1      0.0000       0.00000       A     2.62566e-01     6.71205e-02    ;  uncertainty sigma = 0.000011, epsilon = 0.000550
 h52bf                                  1      0.0000       0.00000       A     2.62563e-01     6.68746e-02    ;  uncertainty sigma = 0.000013, epsilon = 0.000544
 h53bf                                  1      0.0000       0.00000       A     2.53655e-01     6.72548e-02    ;  uncertainty sigma = 0.000027, epsilon = 0.000407
 h54bf                                  1      0.0000       0.00000       A     1.10649e-01     4.13996e-02    ;  uncertainty sigma = 0.000067, epsilon = 0.000803
 h55bf                                  1      0.0000       0.00000       A     2.62569e-01     6.71238e-02    ;  uncertainty sigma = 0.000008, epsilon = 0.000504
 h56bf                                  1      0.0000       0.00000       A     2.62567e-01     6.70444e-02    ;  uncertainty sigma = 0.000013, epsilon = 0.000408
 h57bf                                  1      0.0000       0.00000       A     2.62564e-01     6.71921e-02    ;  uncertainty sigma = 0.000015, epsilon = 0.000441

[ moleculetype ]
;name             nrexcl
 MOL                   3

[ atoms ]
;       nr            type      resi   res      atom      cgnr      charge          mass ; qtot
         1            c0bf         1   UNL        c0         1    -0.10786       12.0110 ; qtot   -0.108
         2            c1bf         1   UNL        c1         2     0.15353       12.0110 ; qtot    0.046
         3            o2bf         1   UNL        o2         3    -0.60517       15.9990 ; qtot   -0.559
         4            c3bf         1   UNL        c3         4    -0.10392       12.0110 ; qtot   -0.663
         5            c4bf         1   UNL        c4         5     0.21081       12.0110 ; qtot   -0.453
         6            n5bf         1   UNL        n5         6    -0.68239       14.0070 ; qtot   -1.135
         7            c6bf         1   UNL        c6         7     0.21081       12.0110 ; qtot   -0.924
         8            c7bf         1   UNL        c7         8    -0.10392       12.0110 ; qtot   -1.028
         9            c8bf         1   UNL        c8         9     0.14801       12.0110 ; qtot   -0.880
        10            c9bf         1   UNL        c9        10    -0.17321       12.0110 ; qtot   -1.053
        11           c10bf         1   UNL       c10        11    -0.12966       12.0110 ; qtot   -1.183
        12           c11bf         1   UNL       c11        12     0.14860       12.0110 ; qtot   -1.034
        13           n12bf         1   UNL       n12        13    -0.74012       14.0070 ; qtot   -1.774
        14           c13bf         1   UNL       c13        14     0.75024       12.0110 ; qtot   -1.024
        15           n14bf         1   UNL       n14        15    -0.76973       14.0070 ; qtot   -1.794
        16           c15bf         1   UNL       c15        16     0.47542       12.0110 ; qtot   -1.319
        17           c16bf         1   UNL       c16        17    -0.22208       12.0110 ; qtot   -1.541
        18           n17bf         1   UNL       n17        18     0.05408       14.0070 ; qtot   -1.487
        19           c18bf         1   UNL       c18        19    -0.21243       12.0110 ; qtot   -1.699
        20           c19bf         1   UNL       c19        20     0.01175       12.0110 ; qtot   -1.687
        21           n20bf         1   UNL       n20        21    -0.27543       14.0070 ; qtot   -1.963
        22           c21bf         1   UNL       c21        22    -0.18460       12.0110 ; qtot   -2.147
        23           c22bf         1   UNL       c22        23    -0.09010       12.0110 ; qtot   -2.237
        24           c23bf         1   UNL       c23        24    -0.14752       12.0110 ; qtot   -2.385
        25           c24bf         1   UNL       c24        25    -0.05609       12.0110 ; qtot   -2.441
        26           c25bf         1   UNL       c25        26    -0.22020       12.0110 ; qtot   -2.661
        27           c26bf         1   UNL       c26        27     0.35625       12.0110 ; qtot   -2.305
        28           n27bf         1   UNL       n27        28    -0.50685       14.0070 ; qtot   -2.812
        29           n28bf         1   UNL       n28        29    -0.03477       14.0070 ; qtot   -2.847
        30           c29bf         1   UNL       c29        30    -0.03315       12.0110 ; qtot   -2.880
        31           c30bf         1   UNL       c30        31    -0.12410       12.0110 ; qtot   -3.004
        32           c31bf         1   UNL       c31        32    -0.12966       12.0110 ; qtot   -3.133
        33           c32bf         1   UNL       c32        33    -0.17321       12.0110 ; qtot   -3.307
        34           h33bf         1   UNL       h33        34     0.04330        1.0080 ; qtot   -3.263
        35           h34bf         1   UNL       h34        35     0.04330        1.0080 ; qtot   -3.220
        36           h35bf         1   UNL       h35        36     0.04330        1.0080 ; qtot   -3.177
        37           h36bf         1   UNL       h36        37     0.40399        1.0080 ; qtot   -2.773
        38           h37bf         1   UNL       h37        38     0.05630        1.0080 ; qtot   -2.716
        39           h38bf         1   UNL       h38        39     0.05630        1.0080 ; qtot   -2.660
        40           h39bf         1   UNL       h39        40     0.04608        1.0080 ; qtot   -2.614
        41           h40bf         1   UNL       h40        41     0.04608        1.0080 ; qtot   -2.568
        42           h41bf         1   UNL       h41        42     0.04608        1.0080 ; qtot   -2.522
        43           h42bf         1   UNL       h42        43     0.04608        1.0080 ; qtot   -2.476
        44           h43bf         1   UNL       h43        44     0.05630        1.0080 ; qtot   -2.420
        45           h44bf         1   UNL       h44        45     0.05630        1.0080 ; qtot   -2.363
        46           h45bf         1   UNL       h45        46     0.13067        1.0080 ; qtot   -2.233
        47           h46bf         1   UNL       h46        47     0.14804        1.0080 ; qtot   -2.085
        48           h47bf         1   UNL       h47        48     0.46054        1.0080 ; qtot   -1.624
        49           h48bf         1   UNL       h48        49     0.17402        1.0080 ; qtot   -1.450
        50           h49bf         1   UNL       h49        50     0.18619        1.0080 ; qtot   -1.264
        51           h50bf         1   UNL       h50        51     0.17120        1.0080 ; qtot   -1.093
        52           h51bf         1   UNL       h51        52     0.14353        1.0080 ; qtot   -0.949
        53           h52bf         1   UNL       h52        53     0.14235        1.0080 ; qtot   -0.807
        54           h53bf         1   UNL       h53        54     0.05012        1.0080 ; qtot   -0.757
        55           h54bf         1   UNL       h54        55     0.32822        1.0080 ; qtot   -0.428
        56           h55bf         1   UNL       h55        56     0.14965        1.0080 ; qtot   -0.279
        57           h56bf         1   UNL       h56        57     0.14804        1.0080 ; qtot   -0.131
        58           h57bf         1   UNL       h57        58     0.13069        1.0080 ; qtot   -0.000

[ bonds ]
;       ai        aj funct               r               k
         1         2     1        0.153111   205443.874268    ;  uncertainty r = 0.000061, k = 7.012847
         1        34     1        0.109633   309885.518652    ;  uncertainty r = 0.000027, k = 2.085504
         1        35     1        0.109633   309885.518652    ;  uncertainty r = 0.000027, k = 2.085504
         1        36     1        0.109633   309885.518652    ;  uncertainty r = 0.000027, k = 2.085504
         2         3     1        0.144756   262373.343604    ;  uncertainty r = 0.000084, k = 6.911477
         2         4     1        0.153629   201387.891797    ;  uncertainty r = 0.000079, k = 6.441410
         2         8     1        0.153629   201387.891797    ;  uncertainty r = 0.000079, k = 6.441410
         3        37     1        0.097188   459588.446191    ;  uncertainty r = 0.000039, k = 6.885611
         4         5     1        0.153067   213078.027124    ;  uncertainty r = 0.000043, k = 4.257080
         4        38     1        0.109705   309395.819043    ;  uncertainty r = 0.000027, k = 1.119501
         4        39     1        0.109705   309395.819043    ;  uncertainty r = 0.000027, k = 1.119501
         5         6     1        0.145303   251309.135596    ;  uncertainty r = 0.000025, k = 9.040326
         5        40     1        0.109814   305963.529395    ;  uncertainty r = 0.000034, k = 1.913819
         5        41     1        0.109814   305963.529395    ;  uncertainty r = 0.000034, k = 1.913819
         6         7     1        0.145303   251309.135596    ;  uncertainty r = 0.000025, k = 9.040326
         6         9     1        0.140170   350380.223730    ;  uncertainty r = 0.000071, k = 3.806817
         7         8     1        0.153067   213078.027124    ;  uncertainty r = 0.000043, k = 4.257080
         7        42     1        0.109814   305963.529395    ;  uncertainty r = 0.000034, k = 1.913819
         7        43     1        0.109814   305963.529395    ;  uncertainty r = 0.000034, k = 1.913819
         8        44     1        0.109705   309395.819043    ;  uncertainty r = 0.000027, k = 1.119501
         8        45     1        0.109705   309395.819043    ;  uncertainty r = 0.000027, k = 1.119500
         9        10     1        0.140658   341152.133887    ;  uncertainty r = 0.000040, k = 4.540204
         9        33     1        0.140658   341152.159424    ;  uncertainty r = 0.000040, k = 4.540214
        10        11     1        0.138951   360786.289355    ;  uncertainty r = 0.000054, k = 6.220831
        10        46     1        0.108804   336867.083545    ;  uncertainty r = 0.000049, k = 2.350494
        11        12     1        0.140045   352500.237939    ;  uncertainty r = 0.000088, k = 6.015956
        11        47     1        0.108785   335836.380273    ;  uncertainty r = 0.000061, k = 1.629977
        12        13     1        0.141140   347428.900000    ;  uncertainty r = 0.000067, k = 12.529211
        12        32     1        0.140045   352500.289014    ;  uncertainty r = 0.000088, k = 6.015966
        13        14     1        0.137928   330364.033105    ;  uncertainty r = 0.000233, k = 32.504541
        13        48     1        0.102080   426606.656543    ;  uncertainty r = 0.000044, k = 5.060956
        14        15     1        0.132293   443196.890723    ;  uncertainty r = 0.000185, k = 13.473043
        14        22     1        0.143016   286566.945654    ;  uncertainty r = 0.000095, k = 10.976559
        15        16     1        0.137539   259289.814258    ;  uncertainty r = 0.000221, k = 27.333114
        16        17     1        0.136983   380120.690234    ;  uncertainty r = 0.000106, k = 13.129475
        16        23     1        0.147341   266299.265576    ;  uncertainty r = 0.000140, k = 10.421899
        17        18     1        0.137903   324759.863379    ;  uncertainty r = 0.000057, k = 6.440736
        17        49     1        0.108483   340864.892480    ;  uncertainty r = 0.000069, k = 2.329540
        18        19     1        0.137812   342777.392139    ;  uncertainty r = 0.000099, k = 5.087981
        18        22     1        0.139016   307421.187598    ;  uncertainty r = 0.000151, k = 23.940610
        19        20     1        0.138713   413349.296045    ;  uncertainty r = 0.000044, k = 11.515259
        19        50     1        0.108153   341281.147363    ;  uncertainty r = 0.000029, k = 4.725641
        20        21     1        0.136694   264650.947314    ;  uncertainty r = 0.000104, k = 21.676771
        20        51     1        0.108374   336399.652295    ;  uncertainty r = 0.000052, k = 2.763013
        21        22     1        0.133277   447135.836621    ;  uncertainty r = 0.000097, k = 11.841719
        23        24     1        0.142221   330382.215527    ;  uncertainty r = 0.000108, k = 4.226718
        23        31     1        0.138999   355014.238672    ;  uncertainty r = 0.000049, k = 4.165741
        24        25     1        0.138406   365370.174951    ;  uncertainty r = 0.000051, k = 6.484539
        24        52     1        0.108740   335079.690186    ;  uncertainty r = 0.000026, k = 2.762611
        25        26     1        0.140636   363954.065625    ;  uncertainty r = 0.000045, k = 4.520838
        25        53     1        0.108793   334157.723926    ;  uncertainty r = 0.000027, k = 0.888009
        26        27     1        0.143565   236002.166699    ;  uncertainty r = 0.000085, k = 10.251197
        26        30     1        0.141896   395442.598340    ;  uncertainty r = 0.000042, k = 7.271267
        27        28     1        0.132527   481307.910937    ;  uncertainty r = 0.000030, k = 4.804422
        27        54     1        0.108445   339950.331982    ;  uncertainty r = 0.000029, k = 2.772015
        28        29     1        0.136464   286651.243652    ;  uncertainty r = 0.000028, k = 6.362411
        29        30     1        0.137432   293777.118652    ;  uncertainty r = 0.000025, k = 8.625466
        29        55     1        0.101061   415482.921533    ;  uncertainty r = 0.000029, k = 2.943442
        30        31     1        0.139860   363187.467139    ;  uncertainty r = 0.000057, k = 4.398190
        31        56     1        0.108825   335126.984912    ;  uncertainty r = 0.000043, k = 1.321162
        32        33     1        0.138951   360786.289355    ;  uncertainty r = 0.000054, k = 6.220810
        32        57     1        0.108785   335836.431348    ;  uncertainty r = 0.000061, k = 1.629994
        33        58     1        0.108804   336867.109082    ;  uncertainty r = 0.000049, k = 2.350497

[ angles ]
;       ai        aj        ak funct           theta             cth
         1         2         3     1      109.822083      681.721179    ;  uncertainty theta = 0.002645, k = 0.116326
         1         2         4     1      110.365494      554.584425    ;  uncertainty theta = 0.001671, k = 0.043225
         1         2         8     1      110.365494      554.584425    ;  uncertainty theta = 0.001671, k = 0.043225
         2         1        34     1      107.570938      376.396339    ;  uncertainty theta = 0.000449, k = 0.049314
         2         1        35     1      107.570938      376.396339    ;  uncertainty theta = 0.000449, k = 0.049314
         2         1        36     1      107.570938      376.396339    ;  uncertainty theta = 0.000449, k = 0.049314
         2         3        37     1      107.259094      470.741115    ;  uncertainty theta = 0.001842, k = 0.057315
         2         4         5     1      110.478615      550.839791    ;  uncertainty theta = 0.002846, k = 0.133837
         2         4        38     1      107.549088      378.161241    ;  uncertainty theta = 0.001490, k = 0.047939
         2         4        39     1      107.549088      378.161241    ;  uncertainty theta = 0.001490, k = 0.047939
         2         8         7     1      110.478615      550.839791    ;  uncertainty theta = 0.002846, k = 0.133837
         2         8        44     1      107.549088      378.161241    ;  uncertainty theta = 0.001490, k = 0.047939
         2         8        45     1      107.549088      378.161241    ;  uncertainty theta = 0.001490, k = 0.047939
         3         2         4     1      109.793198      666.744175    ;  uncertainty theta = 0.002878, k = 0.071273
         3         2         8     1      109.793198      666.744175    ;  uncertainty theta = 0.002878, k = 0.071273
         4         2         8     1      108.951660      555.236642    ;  uncertainty theta = 0.002506, k = 0.153702
         4         5         6     1      109.622879      710.623888    ;  uncertainty theta = 0.001977, k = 0.045424
         4         5        40     1      108.713486      410.280891    ;  uncertainty theta = 0.000788, k = 0.050313
         4         5        41     1      108.713486      410.280891    ;  uncertainty theta = 0.000788, k = 0.050313
         5         4        38     1      108.113991      398.821273    ;  uncertainty theta = 0.000968, k = 0.015262
         5         4        39     1      108.113991      398.821273    ;  uncertainty theta = 0.000968, k = 0.015262
         5         6         7     1      107.851669      401.995631    ;  uncertainty theta = 0.009200, k = 0.136422
         5         6         9     1      111.670471      414.488672    ;  uncertainty theta = 0.002873, k = 0.125711
         6         5        40     1      107.713882      463.851139    ;  uncertainty theta = 0.001219, k = 0.039081
         6         5        41     1      107.713882      463.851139    ;  uncertainty theta = 0.001219, k = 0.039081
         6         7         8     1      109.622879      710.623888    ;  uncertainty theta = 0.001977, k = 0.045424
         6         7        42     1      107.713882      463.851139    ;  uncertainty theta = 0.001219, k = 0.039081
         6         7        43     1      107.713882      463.851139    ;  uncertainty theta = 0.001219, k = 0.039081
         6         9        10     1      121.800034      454.526742    ;  uncertainty theta = 0.003114, k = 0.139427
         6         9        33     1      121.800034      454.526742    ;  uncertainty theta = 0.003114, k = 0.139427
         7         6         9     1      111.670471      414.488672    ;  uncertainty theta = 0.002873, k = 0.125711
         7         8        44     1      108.113991      398.821273    ;  uncertainty theta = 0.000968, k = 0.015262
         7         8        45     1      108.113991      398.821273    ;  uncertainty theta = 0.000968, k = 0.015262
         8         7        42     1      108.713486      410.280891    ;  uncertainty theta = 0.000788, k = 0.050313
         8         7        43     1      108.713486      410.280891    ;  uncertainty theta = 0.000788, k = 0.050313
         9        10        11     1      121.325546      516.035615    ;  uncertainty theta = 0.003472, k = 0.067051
         9        10        46     1      119.331993      272.540937    ;  uncertainty theta = 0.002004, k = 0.055254
         9        33        32     1      121.325546      516.035615    ;  uncertainty theta = 0.003472, k = 0.067051
         9        33        58     1      119.331993      272.540937    ;  uncertainty theta = 0.002004, k = 0.055254
        10         9        33     1      119.159462      346.909022    ;  uncertainty theta = 0.005798, k = 0.226405
        10        11        12     1      120.736816      491.162183    ;  uncertainty theta = 0.003169, k = 0.166644
        10        11        47     1      120.711098      296.002071    ;  uncertainty theta = 0.002714, k = 0.104629
        11        10        46     1      119.762123      289.187685    ;  uncertainty theta = 0.001648, k = 0.068108
        11        12        13     1      120.230019      520.665589    ;  uncertainty theta = 0.002886, k = 0.190467
        11        12        32     1      118.783348      374.117439    ;  uncertainty theta = 0.006318, k = 0.143222
        12        11        47     1      119.414368      272.963864    ;  uncertainty theta = 0.002583, k = 0.072111
        12        13        14     1      116.276146      383.471268    ;  uncertainty theta = 0.003274, k = 0.167592
        12        13        48     1      114.244217      352.473462    ;  uncertainty theta = 0.005063, k = 0.253760
        12        32        33     1      120.736816      491.162183    ;  uncertainty theta = 0.003169, k = 0.166644
        12        32        57     1      119.414368      272.963864    ;  uncertainty theta = 0.002583, k = 0.072111
        13        12        32     1      120.230019      520.665653    ;  uncertainty theta = 0.002886, k = 0.190467
        13        14        15     1      122.101028      744.137513    ;  uncertainty theta = 0.006060, k = 0.183514
        13        14        22     1      118.389694      493.671492    ;  uncertainty theta = 0.006677, k = 0.107017
        14        13        48     1      116.994568      430.564506    ;  uncertainty theta = 0.006061, k = 0.204563
        14        15        16     1      121.081543      436.533806    ;  uncertainty theta = 0.009425, k = 0.261818
        14        22        18     1      111.142784      333.997874    ;  uncertainty theta = 0.012736, k = 0.456017
        14        22        21     1      125.515465      293.447945    ;  uncertainty theta = 0.008643, k = 0.324339
        15        14        22     1      122.405640      559.409789    ;  uncertainty theta = 0.006101, k = 0.247559
        15        16        17     1      124.529945      546.825995    ;  uncertainty theta = 0.003188, k = 0.249818
        15        16        23     1      117.266068      449.509754    ;  uncertainty theta = 0.001673, k = 0.093555
        16        17        18     1      117.545448      533.201245    ;  uncertainty theta = 0.004801, k = 0.198048
        16        17        49     1      124.661926      232.745215    ;  uncertainty theta = 0.008830, k = 0.220531
        16        23        24     1      119.027603      411.436892    ;  uncertainty theta = 0.003206, k = 0.096656
        16        23        31     1      119.097130      398.595621    ;  uncertainty theta = 0.002830, k = 0.193564
        17        16        23     1      121.495850      379.274084    ;  uncertainty theta = 0.004582, k = 0.073177
        17        18        19     1      129.660461      429.070873    ;  uncertainty theta = 0.002332, k = 0.325292
        17        18        22     1      117.456383      429.436979    ;  uncertainty theta = 0.007676, k = 0.177572
        18        17        49     1      117.405563      315.690512    ;  uncertainty theta = 0.003645, k = 0.141950
        18        19        20     1      105.324829      767.668044    ;  uncertainty theta = 0.004981, k = 0.189091
        18        19        50     1      119.539230      282.399762    ;  uncertainty theta = 0.002926, k = 0.163945
        18        22        21     1      114.523727      791.406958    ;  uncertainty theta = 0.003446, k = 0.159720
        19        18        22     1      106.195152      846.636320    ;  uncertainty theta = 0.003800, k = 0.266753
        19        20        21     1      111.223167      865.900238    ;  uncertainty theta = 0.003390, k = 0.157111
        19        20        51     1      125.339600      238.965624    ;  uncertainty theta = 0.004247, k = 0.092338
        20        19        50     1      130.781433      240.351858    ;  uncertainty theta = 0.003259, k = 0.025087
        20        21        22     1      106.065872      820.721453    ;  uncertainty theta = 0.001716, k = 0.145916
        21        20        51     1      119.156937      297.238833    ;  uncertainty theta = 0.004129, k = 0.152925
        23        24        25     1      123.016739      525.733939    ;  uncertainty theta = 0.003070, k = 0.077649
        23        24        52     1      117.874733      272.056881    ;  uncertainty theta = 0.003138, k = 0.063286
        23        31        30     1      116.866013      520.760651    ;  uncertainty theta = 0.004532, k = 0.170114
        23        31        56     1      119.930405      268.313652    ;  uncertainty theta = 0.002430, k = 0.106947
        24        23        31     1      123.809654      434.126710    ;  uncertainty theta = 0.003394, k = 0.121259
        24        25        26     1      118.929970      553.342236    ;  uncertainty theta = 0.002680, k = 0.060560
        24        25        53     1      120.653542      279.974630    ;  uncertainty theta = 0.001067, k = 0.066865
        25        24        52     1      119.509888      297.701821    ;  uncertainty theta = 0.002978, k = 0.036486
        25        26        27     1      132.278717      354.679422    ;  uncertainty theta = 0.004732, k = 0.185731
        25        26        30     1      116.909569      406.929816    ;  uncertainty theta = 0.004133, k = 0.092171
        26        25        53     1      121.803482      294.188936    ;  uncertainty theta = 0.000418, k = 0.134142
        26        27        28     1      112.801369      922.849971    ;  uncertainty theta = 0.002508, k = 0.102828
        26        27        54     1      126.617455      244.294835    ;  uncertainty theta = 0.003682, k = 0.151304
        26        30        29     1      105.521873      689.300082    ;  uncertainty theta = 0.003740, k = 0.125051
        26        30        31     1      121.842789      372.926740    ;  uncertainty theta = 0.004893, k = 0.200657
        27        26        30     1      103.430092      742.155004    ;  uncertainty theta = 0.005190, k = 0.108760
        27        28        29     1      108.574783      922.564020    ;  uncertainty theta = 0.002937, k = 0.116121
        28        27        54     1      118.543495      289.957533    ;  uncertainty theta = 0.002336, k = 0.058293
        28        29        30     1      109.065674      992.744529    ;  uncertainty theta = 0.003990, k = 0.161433
        28        29        55     1      108.465378      343.985566    ;  uncertainty theta = 0.006748, k = 0.092752
        29        30        31     1      129.650360      395.528709    ;  uncertainty theta = 0.003691, k = 0.176020
        30        29        55     1      116.092773      288.358048    ;  uncertainty theta = 0.006888, k = 0.111409
        30        31        56     1      122.512741      295.371464    ;  uncertainty theta = 0.001496, k = 0.111126
        32        33        58     1      119.762131      289.187653    ;  uncertainty theta = 0.001648, k = 0.068108
        33        32        57     1      120.711098      296.002039    ;  uncertainty theta = 0.002714, k = 0.104629
        34         1        35     1      105.816811      317.309788    ;  uncertainty theta = 0.000860, k = 0.032024
        34         1        36     1      105.816811      317.309788    ;  uncertainty theta = 0.000860, k = 0.032024
        35         1        36     1      105.816811      317.309788    ;  uncertainty theta = 0.000860, k = 0.032024
        38         4        39     1      106.015831      314.426234    ;  uncertainty theta = 0.002225, k = 0.012933
        40         5        41     1      105.259323      322.435310    ;  uncertainty theta = 0.002389, k = 0.042223
        42         7        43     1      105.259323      322.435310    ;  uncertainty theta = 0.002389, k = 0.042223
        44         8        45     1      106.015831      314.426234    ;  uncertainty theta = 0.002225, k = 0.012933

[ dihedrals ] ; propers for gromacs 4.5 or higher, use funct 9
;       ai        aj        ak        al funct           phase               k        pn
         1         2         3        37     9        0.000000       14.305399         1    ;  uncertainty k = 0.303603
         1         2         3        37     9      180.000000       -2.891219         2    ;  uncertainty k = 0.378564
         1         2         3        37     9        0.000000        1.022087         3    ;  uncertainty k = 0.197725
         1         2         3        37     9      180.000000        0.421703         4    ;  uncertainty k = 0.160771
         1         2         4         5     9        0.000000       -3.922846         1    ;  uncertainty k = 0.608797
         1         2         4         5     9      180.000000        0.993060         2    ;  uncertainty k = 0.221633
         1         2         4         5     9        0.000000        0.341204         3    ;  uncertainty k = 0.140189
         1         2         4         5     9      180.000000       -0.150995         4    ;  uncertainty k = 0.209237
         1         2         4        38     9        0.000000       -0.381967         1    ;  uncertainty k = 0.238516
         1         2         4        38     9      180.000000       -0.005153         2    ;  uncertainty k = 0.234422
         1         2         4        38     9        0.000000        0.293182         3    ;  uncertainty k = 0.167413
         1         2         4        38     9      180.000000       -0.078397         4    ;  uncertainty k = 0.054941
         1         2         4        39     9        0.000000       -0.381967         1    ;  uncertainty k = 0.238516
         1         2         4        39     9      180.000000       -0.005153         2    ;  uncertainty k = 0.234422
         1         2         4        39     9        0.000000        0.293182         3    ;  uncertainty k = 0.167413
         1         2         4        39     9      180.000000       -0.078397         4    ;  uncertainty k = 0.054941
         1         2         8         7     9        0.000000       -3.922846         1    ;  uncertainty k = 0.608797
         1         2         8         7     9      180.000000        0.993060         2    ;  uncertainty k = 0.221633
         1         2         8         7     9        0.000000        0.341204         3    ;  uncertainty k = 0.140189
         1         2         8         7     9      180.000000       -0.150995         4    ;  uncertainty k = 0.209237
         1         2         8        44     9        0.000000       -0.381967         1    ;  uncertainty k = 0.238516
         1         2         8        44     9      180.000000       -0.005153         2    ;  uncertainty k = 0.234422
         1         2         8        44     9        0.000000        0.293182         3    ;  uncertainty k = 0.167413
         1         2         8        44     9      180.000000       -0.078397         4    ;  uncertainty k = 0.054941
         1         2         8        45     9        0.000000       -0.381966         1    ;  uncertainty k = 0.238517
         1         2         8        45     9      180.000000       -0.005152         2    ;  uncertainty k = 0.234421
         1         2         8        45     9        0.000000        0.293181         3    ;  uncertainty k = 0.167412
         1         2         8        45     9      180.000000       -0.078397         4    ;  uncertainty k = 0.054941
         2         4         5         6     9        0.000000        0.976141         1    ;  uncertainty k = 1.085935
         2         4         5         6     9      180.000000       -4.275530         2    ;  uncertainty k = 0.236894
         2         4         5         6     9        0.000000        1.941148         3    ;  uncertainty k = 0.374093
         2         4         5         6     9      180.000000       -0.412816         4    ;  uncertainty k = 0.175735
         2         4         5        40     9        0.000000        3.919693         1    ;  uncertainty k = 1.027990
         2         4         5        40     9      180.000000       -2.633859         2    ;  uncertainty k = 0.340147
         2         4         5        40     9        0.000000       -0.201631         3    ;  uncertainty k = 0.200719
         2         4         5        40     9      180.000000        0.397567         4    ;  uncertainty k = 0.162682
         2         4         5        41     9        0.000000        3.919693         1    ;  uncertainty k = 1.027990
         2         4         5        41     9      180.000000       -2.633859         2    ;  uncertainty k = 0.340147
         2         4         5        41     9        0.000000       -0.201631         3    ;  uncertainty k = 0.200719
         2         4         5        41     9      180.000000        0.397567         4    ;  uncertainty k = 0.162682
         2         8         7         6     9        0.000000        0.976141         1    ;  uncertainty k = 1.085935
         2         8         7         6     9      180.000000       -4.275530         2    ;  uncertainty k = 0.236894
         2         8         7         6     9        0.000000        1.941148         3    ;  uncertainty k = 0.374093
         2         8         7         6     9      180.000000       -0.412816         4    ;  uncertainty k = 0.175735
         2         8         7        42     9        0.000000        3.919693         1    ;  uncertainty k = 1.027990
         2         8         7        42     9      180.000000       -2.633859         2    ;  uncertainty k = 0.340147
         2         8         7        42     9        0.000000       -0.201631         3    ;  uncertainty k = 0.200719
         2         8         7        42     9      180.000000        0.397567         4    ;  uncertainty k = 0.162682
         2         8         7        43     9        0.000000        3.919693         1    ;  uncertainty k = 1.027990
         2         8         7        43     9      180.000000       -2.633859         2    ;  uncertainty k = 0.340147
         2         8         7        43     9        0.000000       -0.201631         3    ;  uncertainty k = 0.200719
         2         8         7        43     9      180.000000        0.397567         4    ;  uncertainty k = 0.162682
         3         2         1        34     9        0.000000       -1.591689         1    ;  uncertainty k = 0.187682
         3         2         1        34     9      180.000000       -0.770050         2    ;  uncertainty k = 0.155568
         3         2         1        34     9        0.000000        0.829898         3    ;  uncertainty k = 0.166795
         3         2         1        34     9      180.000000       -0.197056         4    ;  uncertainty k = 0.153264
         3         2         1        35     9        0.000000       -1.591689         1    ;  uncertainty k = 0.187682
         3         2         1        35     9      180.000000       -0.770050         2    ;  uncertainty k = 0.155568
         3         2         1        35     9        0.000000        0.829898         3    ;  uncertainty k = 0.166795
         3         2         1        35     9      180.000000       -0.197056         4    ;  uncertainty k = 0.153264
         3         2         1        36     9        0.000000       -1.591689         1    ;  uncertainty k = 0.187682
         3         2         1        36     9      180.000000       -0.770050         2    ;  uncertainty k = 0.155568
         3         2         1        36     9        0.000000        0.829898         3    ;  uncertainty k = 0.166795
         3         2         1        36     9      180.000000       -0.197056         4    ;  uncertainty k = 0.153264
         3         2         4         5     9        0.000000       -5.878662         1    ;  uncertainty k = 1.487430
         3         2         4         5     9      180.000000        0.787009         2    ;  uncertainty k = 0.544232
         3         2         4         5     9        0.000000        0.371769         3    ;  uncertainty k = 0.228546
         3         2         4         5     9      180.000000        0.236027         4    ;  uncertainty k = 0.084973
         3         2         4        38     9        0.000000       -0.631036         1    ;  uncertainty k = 0.208352
         3         2         4        38     9      180.000000       -0.644282         2    ;  uncertainty k = 0.279610
         3         2         4        38     9        0.000000        0.534737         3    ;  uncertainty k = 0.169816
         3         2         4        38     9      180.000000       -0.165441         4    ;  uncertainty k = 0.041369
         3         2         4        39     9        0.000000       -0.631036         1    ;  uncertainty k = 0.208352
         3         2         4        39     9      180.000000       -0.644282         2    ;  uncertainty k = 0.279610
         3         2         4        39     9        0.000000        0.534737         3    ;  uncertainty k = 0.169816
         3         2         4        39     9      180.000000       -0.165441         4    ;  uncertainty k = 0.041369
         3         2         8         7     9        0.000000       -5.878662         1    ;  uncertainty k = 1.487430
         3         2         8         7     9      180.000000        0.787009         2    ;  uncertainty k = 0.544232
         3         2         8         7     9        0.000000        0.371769         3    ;  uncertainty k = 0.228546
         3         2         8         7     9      180.000000        0.236027         4    ;  uncertainty k = 0.084973
         3         2         8        44     9        0.000000       -0.631036         1    ;  uncertainty k = 0.208352
         3         2         8        44     9      180.000000       -0.644282         2    ;  uncertainty k = 0.279610
         3         2         8        44     9        0.000000        0.534737         3    ;  uncertainty k = 0.169816
         3         2         8        44     9      180.000000       -0.165441         4    ;  uncertainty k = 0.041369
         3         2         8        45     9        0.000000       -0.631036         1    ;  uncertainty k = 0.208352
         3         2         8        45     9      180.000000       -0.644284         2    ;  uncertainty k = 0.279610
         3         2         8        45     9        0.000000        0.534737         3    ;  uncertainty k = 0.169816
         3         2         8        45     9      180.000000       -0.165441         4    ;  uncertainty k = 0.041369
         4         2         1        34     9        0.000000       -0.870263         1    ;  uncertainty k = 0.320332
         4         2         1        34     9      180.000000       -0.532022         2    ;  uncertainty k = 0.222465
         4         2         1        34     9        0.000000        0.617425         3    ;  uncertainty k = 0.077150
         4         2         1        34     9      180.000000       -0.125272         4    ;  uncertainty k = 0.037679
         4         2         1        35     9        0.000000       -0.870263         1    ;  uncertainty k = 0.320332
         4         2         1        35     9      180.000000       -0.532022         2    ;  uncertainty k = 0.222465
         4         2         1        35     9        0.000000        0.617425         3    ;  uncertainty k = 0.077150
         4         2         1        35     9      180.000000       -0.125272         4    ;  uncertainty k = 0.037679
         4         2         1        36     9        0.000000       -0.870263         1    ;  uncertainty k = 0.320332
         4         2         1        36     9      180.000000       -0.532022         2    ;  uncertainty k = 0.222465
         4         2         1        36     9        0.000000        0.617425         3    ;  uncertainty k = 0.077150
         4         2         1        36     9      180.000000       -0.125272         4    ;  uncertainty k = 0.037679
         4         2         3        37     9        0.000000       15.699486         1    ;  uncertainty k = 0.206400
         4         2         3        37     9      180.000000       -2.262918         2    ;  uncertainty k = 0.168085
         4         2         3        37     9        0.000000        1.193028         3    ;  uncertainty k = 0.078529
         4         2         3        37     9      180.000000        0.489613         4    ;  uncertainty k = 0.195311
         4         2         8         7     9        0.000000       -3.237470         1    ;  uncertainty k = 1.446115
         4         2         8         7     9      180.000000        0.041927         2    ;  uncertainty k = 0.694470
         4         2         8         7     9        0.000000        0.493108         3    ;  uncertainty k = 0.260042
         4         2         8         7     9      180.000000       -1.200471         4    ;  uncertainty k = 0.261694
         4         2         8        44     9        0.000000       -1.500234         1    ;  uncertainty k = 0.425465
         4         2         8        44     9      180.000000       -0.202233         2    ;  uncertainty k = 0.200496
         4         2         8        44     9        0.000000       -0.057149         3    ;  uncertainty k = 0.066017
         4         2         8        44     9      180.000000       -0.130059         4    ;  uncertainty k = 0.048029
         4         2         8        45     9        0.000000       -1.500234         1    ;  uncertainty k = 0.425464
         4         2         8        45     9      180.000000       -0.202232         2    ;  uncertainty k = 0.200498
         4         2         8        45     9        0.000000       -0.057149         3    ;  uncertainty k = 0.066018
         4         2         8        45     9      180.000000       -0.130059         4    ;  uncertainty k = 0.048029
         4         5         6         7     9        0.000000       -5.933014         1    ;  uncertainty k = 2.234282
         4         5         6         7     9      180.000000        1.524652         2    ;  uncertainty k = 0.871304
         4         5         6         7     9        0.000000        0.925644         3    ;  uncertainty k = 0.302861
         4         5         6         7     9      180.000000       -0.558921         4    ;  uncertainty k = 0.283209
         4         5         6         9     9        0.000000       -1.589388         1    ;  uncertainty k = 0.752279
         4         5         6         9     9      180.000000        0.471510         2    ;  uncertainty k = 0.190290
         4         5         6         9     9        0.000000        0.266125         3    ;  uncertainty k = 0.129519
         4         5         6         9     9      180.000000        0.211373         4    ;  uncertainty k = 0.146916
         5         4         2         8     9        0.000000       -3.237470         1    ;  uncertainty k = 1.446115
         5         4         2         8     9      180.000000        0.041927         2    ;  uncertainty k = 0.694470
         5         4         2         8     9        0.000000        0.493108         3    ;  uncertainty k = 0.260042
         5         4         2         8     9      180.000000       -1.200471         4    ;  uncertainty k = 0.261694
         5         6         7         8     9        0.000000       -5.933014         1    ;  uncertainty k = 2.234282
         5         6         7         8     9      180.000000        1.524652         2    ;  uncertainty k = 0.871304
         5         6         7         8     9        0.000000        0.925644         3    ;  uncertainty k = 0.302861
         5         6         7         8     9      180.000000       -0.558921         4    ;  uncertainty k = 0.283209
         5         6         7        42     9        0.000000       -6.739867         1    ;  uncertainty k = 1.735395
         5         6         7        42     9      180.000000        0.454679         2    ;  uncertainty k = 0.339448
         5         6         7        42     9        0.000000        0.763469         3    ;  uncertainty k = 0.089745
         5         6         7        42     9      180.000000       -0.113629         4    ;  uncertainty k = 0.087820
         5         6         7        43     9        0.000000       -6.739867         1    ;  uncertainty k = 1.735395
         5         6         7        43     9      180.000000        0.454679         2    ;  uncertainty k = 0.339448
         5         6         7        43     9        0.000000        0.763469         3    ;  uncertainty k = 0.089745
         5         6         7        43     9      180.000000       -0.113629         4    ;  uncertainty k = 0.087820
         5         6         9        10     9        0.000000        1.824056         1    ;  uncertainty k = 1.024452
         5         6         9        10     9      180.000000        7.001952         2    ;  uncertainty k = 0.111213
         5         6         9        10     9        0.000000        0.595502         3    ;  uncertainty k = 0.224900
         5         6         9        10     9      180.000000        0.162635         4    ;  uncertainty k = 0.079146
         5         6         9        33     9        0.000000        1.824057         1    ;  uncertainty k = 1.024451
         5         6         9        33     9      180.000000        7.001952         2    ;  uncertainty k = 0.111212
         5         6         9        33     9        0.000000        0.595502         3    ;  uncertainty k = 0.224900
         5         6         9        33     9      180.000000        0.162635         4    ;  uncertainty k = 0.079146
         6         5         4        38     9        0.000000       -1.682984         1    ;  uncertainty k = 0.709156
         6         5         4        38     9      180.000000        0.097445         2    ;  uncertainty k = 0.418661
         6         5         4        38     9        0.000000        1.159386         3    ;  uncertainty k = 0.294492
         6         5         4        38     9      180.000000       -0.307334         4    ;  uncertainty k = 0.103257
         6         5         4        39     9        0.000000       -1.682984         1    ;  uncertainty k = 0.709156
         6         5         4        39     9      180.000000        0.097445         2    ;  uncertainty k = 0.418661
         6         5         4        39     9        0.000000        1.159386         3    ;  uncertainty k = 0.294492
         6         5         4        39     9      180.000000       -0.307334         4    ;  uncertainty k = 0.103257
         6         7         8        44     9        0.000000       -1.682984         1    ;  uncertainty k = 0.709156
         6         7         8        44     9      180.000000        0.097445         2    ;  uncertainty k = 0.418661
         6         7         8        44     9        0.000000        1.159386         3    ;  uncertainty k = 0.294492
         6         7         8        44     9      180.000000       -0.307334         4    ;  uncertainty k = 0.103257
         6         7         8        45     9        0.000000       -1.682983         1    ;  uncertainty k = 0.709156
         6         7         8        45     9      180.000000        0.097445         2    ;  uncertainty k = 0.418660
         6         7         8        45     9        0.000000        1.159386         3    ;  uncertainty k = 0.294493
         6         7         8        45     9      180.000000       -0.307335         4    ;  uncertainty k = 0.103257
         6         9        10        11     9        0.000000        0.274914         1    ;  uncertainty k = 0.387487
         6         9        10        11     9      180.000000        8.571995         2    ;  uncertainty k = 0.427316
         6         9        10        11     9        0.000000        1.047692         3    ;  uncertainty k = 0.318608
         6         9        10        11     9      180.000000        1.618281         4    ;  uncertainty k = 0.268616
         6         9        10        46     9        0.000000       -0.146478         1    ;  uncertainty k = 0.593049
         6         9        10        46     9      180.000000        7.272521         2    ;  uncertainty k = 0.442631
         6         9        10        46     9        0.000000        0.711102         3    ;  uncertainty k = 0.081488
         6         9        10        46     9      180.000000        1.167893         4    ;  uncertainty k = 0.153492
         6         9        33        32     9        0.000000        0.274914         1    ;  uncertainty k = 0.387486
         6         9        33        32     9      180.000000        8.571994         2    ;  uncertainty k = 0.427316
         6         9        33        32     9        0.000000        1.047692         3    ;  uncertainty k = 0.318608
         6         9        33        32     9      180.000000        1.618280         4    ;  uncertainty k = 0.268616
         6         9        33        58     9        0.000000       -0.146478         1    ;  uncertainty k = 0.593052
         6         9        33        58     9      180.000000        7.272520         2    ;  uncertainty k = 0.442632
         6         9        33        58     9        0.000000        0.711102         3    ;  uncertainty k = 0.081488
         6         9        33        58     9      180.000000        1.167893         4    ;  uncertainty k = 0.153492
         7         6         5        40     9        0.000000       -6.739867         1    ;  uncertainty k = 1.735395
         7         6         5        40     9      180.000000        0.454679         2    ;  uncertainty k = 0.339448
         7         6         5        40     9        0.000000        0.763469         3    ;  uncertainty k = 0.089745
         7         6         5        40     9      180.000000       -0.113629         4    ;  uncertainty k = 0.087820
         7         6         5        41     9        0.000000       -6.739867         1    ;  uncertainty k = 1.735395
         7         6         5        41     9      180.000000        0.454679         2    ;  uncertainty k = 0.339448
         7         6         5        41     9        0.000000        0.763469         3    ;  uncertainty k = 0.089745
         7         6         5        41     9      180.000000       -0.113629         4    ;  uncertainty k = 0.087820
         7         6         9        10     9        0.000000        1.824056         1    ;  uncertainty k = 1.024452
         7         6         9        10     9      180.000000        7.001952         2    ;  uncertainty k = 0.111213
         7         6         9        10     9        0.000000        0.595502         3    ;  uncertainty k = 0.224900
         7         6         9        10     9      180.000000        0.162635         4    ;  uncertainty k = 0.079146
         7         6         9        33     9        0.000000        1.824057         1    ;  uncertainty k = 1.024451
         7         6         9        33     9      180.000000        7.001952         2    ;  uncertainty k = 0.111212
         7         6         9        33     9        0.000000        0.595502         3    ;  uncertainty k = 0.224900
         7         6         9        33     9      180.000000        0.162635         4    ;  uncertainty k = 0.079146
         8         2         1        34     9        0.000000       -0.870263         1    ;  uncertainty k = 0.320332
         8         2         1        34     9      180.000000       -0.532022         2    ;  uncertainty k = 0.222465
         8         2         1        34     9        0.000000        0.617425         3    ;  uncertainty k = 0.077150
         8         2         1        34     9      180.000000       -0.125272         4    ;  uncertainty k = 0.037679
         8         2         1        35     9        0.000000       -0.870263         1    ;  uncertainty k = 0.320332
         8         2         1        35     9      180.000000       -0.532022         2    ;  uncertainty k = 0.222465
         8         2         1        35     9        0.000000        0.617425         3    ;  uncertainty k = 0.077150
         8         2         1        35     9      180.000000       -0.125272         4    ;  uncertainty k = 0.037679
         8         2         1        36     9        0.000000       -0.870263         1    ;  uncertainty k = 0.320332
         8         2         1        36     9      180.000000       -0.532022         2    ;  uncertainty k = 0.222465
         8         2         1        36     9        0.000000        0.617425         3    ;  uncertainty k = 0.077150
         8         2         1        36     9      180.000000       -0.125272         4    ;  uncertainty k = 0.037679
         8         2         3        37     9        0.000000       15.699486         1    ;  uncertainty k = 0.206400
         8         2         3        37     9      180.000000       -2.262918         2    ;  uncertainty k = 0.168085
         8         2         3        37     9        0.000000        1.193028         3    ;  uncertainty k = 0.078529
         8         2         3        37     9      180.000000        0.489613         4    ;  uncertainty k = 0.195311
         8         2         4        38     9        0.000000       -1.500234         1    ;  uncertainty k = 0.425465
         8         2         4        38     9      180.000000       -0.202233         2    ;  uncertainty k = 0.200496
         8         2         4        38     9        0.000000       -0.057149         3    ;  uncertainty k = 0.066017
         8         2         4        38     9      180.000000       -0.130059         4    ;  uncertainty k = 0.048029
         8         2         4        39     9        0.000000       -1.500234         1    ;  uncertainty k = 0.425465
         8         2         4        39     9      180.000000       -0.202233         2    ;  uncertainty k = 0.200496
         8         2         4        39     9        0.000000       -0.057149         3    ;  uncertainty k = 0.066017
         8         2         4        39     9      180.000000       -0.130059         4    ;  uncertainty k = 0.048029
         8         7         6         9     9        0.000000       -1.589388         1    ;  uncertainty k = 0.752279
         8         7         6         9     9      180.000000        0.471510         2    ;  uncertainty k = 0.190290
         8         7         6         9     9        0.000000        0.266125         3    ;  uncertainty k = 0.129519
         8         7         6         9     9      180.000000        0.211373         4    ;  uncertainty k = 0.146916
         9         6         5        40     9        0.000000        0.697476         1    ;  uncertainty k = 0.531266
         9         6         5        40     9      180.000000       -1.326705         2    ;  uncertainty k = 0.181702
         9         6         5        40     9        0.000000        0.495587         3    ;  uncertainty k = 0.090560
         9         6         5        40     9      180.000000        0.180426         4    ;  uncertainty k = 0.107253
         9         6         5        41     9        0.000000        0.697476         1    ;  uncertainty k = 0.531266
         9         6         5        41     9      180.000000       -1.326705         2    ;  uncertainty k = 0.181702
         9         6         5        41     9        0.000000        0.495587         3    ;  uncertainty k = 0.090560
         9         6         5        41     9      180.000000        0.180426         4    ;  uncertainty k = 0.107253
         9         6         7        42     9        0.000000        0.697476         1    ;  uncertainty k = 0.531266
         9         6         7        42     9      180.000000       -1.326705         2    ;  uncertainty k = 0.181702
         9         6         7        42     9        0.000000        0.495587         3    ;  uncertainty k = 0.090560
         9         6         7        42     9      180.000000        0.180426         4    ;  uncertainty k = 0.107253
         9         6         7        43     9        0.000000        0.697476         1    ;  uncertainty k = 0.531266
         9         6         7        43     9      180.000000       -1.326705         2    ;  uncertainty k = 0.181702
         9         6         7        43     9        0.000000        0.495587         3    ;  uncertainty k = 0.090560
         9         6         7        43     9      180.000000        0.180426         4    ;  uncertainty k = 0.107253
         9        10        11        12     9        0.000000       -0.107514         1    ;  uncertainty k = 0.252039
         9        10        11        12     9      180.000000       13.835118         2    ;  uncertainty k = 0.426499
         9        10        11        12     9        0.000000       -0.856561         3    ;  uncertainty k = 0.483020
         9        10        11        12     9      180.000000        0.747173         4    ;  uncertainty k = 0.326930
         9        10        11        47     9        0.000000        0.003406         1    ;  uncertainty k = 0.344204
         9        10        11        47     9      180.000000        8.765467         2    ;  uncertainty k = 0.281117
         9        10        11        47     9        0.000000        1.138465         3    ;  uncertainty k = 0.414808
         9        10        11        47     9      180.000000        1.740903         4    ;  uncertainty k = 0.154109
         9        33        32        12     9        0.000000       -0.107516         1    ;  uncertainty k = 0.252036
         9        33        32        12     9      180.000000       13.835120         2    ;  uncertainty k = 0.426499
         9        33        32        12     9        0.000000       -0.856561         3    ;  uncertainty k = 0.483021
         9        33        32        12     9      180.000000        0.747173         4    ;  uncertainty k = 0.326930
         9        33        32        57     9        0.000000        0.003406         1    ;  uncertainty k = 0.344205
         9        33        32        57     9      180.000000        8.765466         2    ;  uncertainty k = 0.281117
         9        33        32        57     9        0.000000        1.138465         3    ;  uncertainty k = 0.414809
         9        33        32        57     9      180.000000        1.740903         4    ;  uncertainty k = 0.154110
        10         9        33        32     9        0.000000        0.058604         1    ;  uncertainty k = 0.295230
        10         9        33        32     9      180.000000        8.183575         2    ;  uncertainty k = 0.569634
        10         9        33        32     9        0.000000        0.093528         3    ;  uncertainty k = 0.341308
        10         9        33        32     9      180.000000        1.354769         4    ;  uncertainty k = 0.283570
        10         9        33        58     9        0.000000        0.127169         1    ;  uncertainty k = 0.335738
        10         9        33        58     9      180.000000        5.942525         2    ;  uncertainty k = 0.671138
        10         9        33        58     9        0.000000        1.350586         3    ;  uncertainty k = 0.236451
        10         9        33        58     9      180.000000        1.526542         4    ;  uncertainty k = 0.125281
        10        11        12        13     9        0.000000        0.017099         1    ;  uncertainty k = 0.527339
        10        11        12        13     9      180.000000        9.348870         2    ;  uncertainty k = 0.242918
        10        11        12        13     9        0.000000        0.889096         3    ;  uncertainty k = 0.293617
        10        11        12        13     9      180.000000        1.533610         4    ;  uncertainty k = 0.164757
        10        11        12        32     9        0.000000        0.047148         1    ;  uncertainty k = 0.212409
        10        11        12        32     9      180.000000        9.040343         2    ;  uncertainty k = 0.293470
        10        11        12        32     9        0.000000       -0.068001         3    ;  uncertainty k = 0.183409
        10        11        12        32     9      180.000000        1.187446         4    ;  uncertainty k = 0.264202
        11        10         9        33     9        0.000000        0.058605         1    ;  uncertainty k = 0.295230
        11        10         9        33     9      180.000000        8.183574         2    ;  uncertainty k = 0.569635
        11        10         9        33     9        0.000000        0.093527         3    ;  uncertainty k = 0.341308
        11        10         9        33     9      180.000000        1.354769         4    ;  uncertainty k = 0.283569
        11        12        13        14     9        0.000000        1.762887         1    ;  uncertainty k = 0.727898
        11        12        13        14     9      180.000000        5.669042         2    ;  uncertainty k = 0.132780
        11        12        13        14     9        0.000000        0.941087         3    ;  uncertainty k = 0.205851
        11        12        13        14     9      180.000000        0.176432         4    ;  uncertainty k = 0.110020
        11        12        13        48     9        0.000000        2.597791         1    ;  uncertainty k = 0.388175
        11        12        13        48     9      180.000000        4.354503         2    ;  uncertainty k = 0.269021
        11        12        13        48     9        0.000000        0.668938         3    ;  uncertainty k = 0.165670
        11        12        13        48     9      180.000000        0.424981         4    ;  uncertainty k = 0.063204
        11        12        32        33     9        0.000000        0.047148         1    ;  uncertainty k = 0.212408
        11        12        32        33     9      180.000000        9.040342         2    ;  uncertainty k = 0.293470
        11        12        32        33     9        0.000000       -0.068001         3    ;  uncertainty k = 0.183409
        11        12        32        33     9      180.000000        1.187447         4    ;  uncertainty k = 0.264203
        11        12        32        57     9        0.000000        0.025169         1    ;  uncertainty k = 0.206550
        11        12        32        57     9      180.000000        6.326001         2    ;  uncertainty k = 0.744310
        11        12        32        57     9        0.000000        1.221454         3    ;  uncertainty k = 0.286691
        11        12        32        57     9      180.000000        1.446916         4    ;  uncertainty k = 0.179934
        12        11        10        46     9        0.000000       -0.115032         1    ;  uncertainty k = 0.213903
        12        11        10        46     9      180.000000        8.677754         2    ;  uncertainty k = 0.342401
        12        11        10        46     9        0.000000        1.262117         3    ;  uncertainty k = 0.290506
        12        11        10        46     9      180.000000        1.625814         4    ;  uncertainty k = 0.124384
        12        13        14        15     9        0.000000        4.150973         1    ;  uncertainty k = 1.231968
        12        13        14        15     9      180.000000       10.578377         2    ;  uncertainty k = 0.237301
        12        13        14        15     9        0.000000        0.691470         3    ;  uncertainty k = 0.297800
        12        13        14        15     9      180.000000       -0.481680         4    ;  uncertainty k = 0.051060
        12        13        14        22     9        0.000000        6.977052         1    ;  uncertainty k = 0.530158
        12        13        14        22     9      180.000000        8.516576         2    ;  uncertainty k = 0.116630
        12        13        14        22     9        0.000000        0.930574         3    ;  uncertainty k = 0.399994
        12        13        14        22     9      180.000000       -0.130894         4    ;  uncertainty k = 0.198979
        12        32        33        58     9        0.000000       -0.115033         1    ;  uncertainty k = 0.213904
        12        32        33        58     9      180.000000        8.677754         2    ;  uncertainty k = 0.342400
        12        32        33        58     9        0.000000        1.262117         3    ;  uncertainty k = 0.290507
        12        32        33        58     9      180.000000        1.625814         4    ;  uncertainty k = 0.124384
        13        12        11        47     9        0.000000       -0.295135         1    ;  uncertainty k = 0.251138
        13        12        11        47     9      180.000000        7.870887         2    ;  uncertainty k = 0.259819
        13        12        11        47     9        0.000000        0.866605         3    ;  uncertainty k = 0.209667
        13        12        11        47     9      180.000000        1.066669         4    ;  uncertainty k = 0.168322
        13        12        32        33     9        0.000000        0.017099         1    ;  uncertainty k = 0.527339
        13        12        32        33     9      180.000000        9.348869         2    ;  uncertainty k = 0.242919
        13        12        32        33     9        0.000000        0.889096         3    ;  uncertainty k = 0.293617
        13        12        32        33     9      180.000000        1.533610         4    ;  uncertainty k = 0.164757
        13        12        32        57     9        0.000000       -0.295134         1    ;  uncertainty k = 0.251135
        13        12        32        57     9      180.000000        7.870887         2    ;  uncertainty k = 0.259819
        13        12        32        57     9        0.000000        0.866605         3    ;  uncertainty k = 0.209667
        13        12        32        57     9      180.000000        1.066668         4    ;  uncertainty k = 0.168322
        13        14        15        16     9        0.000000        1.094677         1    ;  uncertainty k = 1.061918
        13        14        15        16     9      180.000000       18.029313         2    ;  uncertainty k = 0.463163
        13        14        15        16     9        0.000000        2.921584         3    ;  uncertainty k = 0.300070
        13        14        15        16     9      180.000000        1.660946         4    ;  uncertainty k = 0.300808
        13        14        22        18     9        0.000000       -0.935144         1    ;  uncertainty k = 0.961490
        13        14        22        18     9      180.000000        5.420647         2    ;  uncertainty k = 0.735007
        13        14        22        18     9        0.000000        0.466482         3    ;  uncertainty k = 0.276418
        13        14        22        18     9      180.000000        0.426563         4    ;  uncertainty k = 0.145930
        13        14        22        21     9        0.000000       -0.723521         1    ;  uncertainty k = 0.720899
        13        14        22        21     9      180.000000        4.573870         2    ;  uncertainty k = 1.073141
        13        14        22        21     9        0.000000        0.567897         3    ;  uncertainty k = 0.420061
        13        14        22        21     9      180.000000        0.320348         4    ;  uncertainty k = 0.222145
        14        13        12        32     9        0.000000        1.762886         1    ;  uncertainty k = 0.727897
        14        13        12        32     9      180.000000        5.669043         2    ;  uncertainty k = 0.132780
        14        13        12        32     9        0.000000        0.941087         3    ;  uncertainty k = 0.205851
        14        13        12        32     9      180.000000        0.176432         4    ;  uncertainty k = 0.110020
        14        15        16        17     9        0.000000        1.017504         1    ;  uncertainty k = 1.516360
        14        15        16        17     9      180.000000        5.410036         2    ;  uncertainty k = 1.406424
        14        15        16        17     9        0.000000        1.183504         3    ;  uncertainty k = 0.850444
        14        15        16        17     9      180.000000        0.501686         4    ;  uncertainty k = 0.531969
        14        15        16        23     9        0.000000        1.001242         1    ;  uncertainty k = 1.290635
        14        15        16        23     9      180.000000        8.728254         2    ;  uncertainty k = 0.911473
        14        15        16        23     9        0.000000        1.568762         3    ;  uncertainty k = 0.631592
        14        15        16        23     9      180.000000        0.401595         4    ;  uncertainty k = 0.332617
        14        22        18        17     9        0.000000       -0.065679         1    ;  uncertainty k = 0.930309
        14        22        18        17     9      180.000000        5.131901         2    ;  uncertainty k = 1.526753
        14        22        18        17     9        0.000000        1.363593         3    ;  uncertainty k = 0.467515
        14        22        18        17     9      180.000000        0.395973         4    ;  uncertainty k = 0.312049
        14        22        18        19     9        0.000000        0.340421         1    ;  uncertainty k = 0.792595
        14        22        18        19     9      180.000000        6.024515         2    ;  uncertainty k = 0.492566
        14        22        18        19     9        0.000000        0.209998         3    ;  uncertainty k = 0.527723
        14        22        18        19     9      180.000000        0.585310         4    ;  uncertainty k = 0.374830
        14        22        21        20     9        0.000000       -0.258736         1    ;  uncertainty k = 0.813751
        14        22        21        20     9      180.000000       16.417004         2    ;  uncertainty k = 0.455553
        14        22        21        20     9        0.000000        0.694004         3    ;  uncertainty k = 0.637623
        14        22        21        20     9      180.000000        1.345365         4    ;  uncertainty k = 0.597909
        15        14        13        48     9        0.000000        8.943455         1    ;  uncertainty k = 0.591279
        15        14        13        48     9      180.000000        9.687470         2    ;  uncertainty k = 0.280063
        15        14        13        48     9        0.000000        1.090516         3    ;  uncertainty k = 0.309512
        15        14        13        48     9      180.000000       -0.065768         4    ;  uncertainty k = 0.148564
        15        14        22        18     9        0.000000       -0.508120         1    ;  uncertainty k = 0.649583
        15        14        22        18     9      180.000000        6.006908         2    ;  uncertainty k = 0.721136
        15        14        22        18     9        0.000000       -0.359701         3    ;  uncertainty k = 0.319120
        15        14        22        18     9      180.000000        0.564109         4    ;  uncertainty k = 0.160688
        15        14        22        21     9        0.000000       -1.431194         1    ;  uncertainty k = 2.218090
        15        14        22        21     9      180.000000        4.468096         2    ;  uncertainty k = 0.589322
        15        14        22        21     9        0.000000        0.454907         3    ;  uncertainty k = 0.408290
        15        14        22        21     9      180.000000        0.386347         4    ;  uncertainty k = 0.295938
        15        16        17        18     9        0.000000        0.021628         1    ;  uncertainty k = 0.553837
        15        16        17        18     9      180.000000       21.308096         2    ;  uncertainty k = 0.618902
        15        16        17        18     9        0.000000        0.542129         3    ;  uncertainty k = 0.330363
        15        16        17        18     9      180.000000        0.532400         4    ;  uncertainty k = 0.522570
        15        16        17        49     9        0.000000        0.413530         1    ;  uncertainty k = 1.053393
        15        16        17        49     9      180.000000       12.778725         2    ;  uncertainty k = 0.373644
        15        16        17        49     9        0.000000        1.633797         3    ;  uncertainty k = 0.611850
        15        16        17        49     9      180.000000        1.088488         4    ;  uncertainty k = 0.439227
        15        16        23        24     9        0.000000       -0.628626         1    ;  uncertainty k = 1.518760
        15        16        23        24     9      180.000000        5.052242         2    ;  uncertainty k = 0.325806
        15        16        23        24     9        0.000000        0.583181         3    ;  uncertainty k = 0.127910
        15        16        23        24     9      180.000000        0.120920         4    ;  uncertainty k = 0.102121
        15        16        23        31     9        0.000000       -0.766604         1    ;  uncertainty k = 0.919108
        15        16        23        31     9      180.000000        4.899228         2    ;  uncertainty k = 0.217939
        15        16        23        31     9        0.000000        0.251595         3    ;  uncertainty k = 0.135564
        15        16        23        31     9      180.000000        0.082027         4    ;  uncertainty k = 0.123430
        16        15        14        22     9        0.000000       -0.097990         1    ;  uncertainty k = 2.188335
        16        15        14        22     9      180.000000       13.736996         2    ;  uncertainty k = 0.596844
        16        15        14        22     9        0.000000        2.511290         3    ;  uncertainty k = 0.854062
        16        15        14        22     9      180.000000        1.344029         4    ;  uncertainty k = 0.393277
        16        17        18        19     9        0.000000        0.387181         1    ;  uncertainty k = 1.514247
        16        17        18        19     9      180.000000        4.670308         2    ;  uncertainty k = 0.661014
        16        17        18        19     9        0.000000        0.721864         3    ;  uncertainty k = 0.341868
        16        17        18        19     9      180.000000        0.327281         4    ;  uncertainty k = 0.086812
        16        17        18        22     9        0.000000       -0.099694         1    ;  uncertainty k = 1.661026
        16        17        18        22     9      180.000000        6.351588         2    ;  uncertainty k = 0.533147
        16        17        18        22     9        0.000000       -0.869395         3    ;  uncertainty k = 0.839908
        16        17        18        22     9      180.000000        0.595359         4    ;  uncertainty k = 0.141779
        16        23        24        25     9        0.000000        0.068897         1    ;  uncertainty k = 0.215292
        16        23        24        25     9      180.000000        7.691152         2    ;  uncertainty k = 0.666200
        16        23        24        25     9        0.000000        1.290426         3    ;  uncertainty k = 0.312196
        16        23        24        25     9      180.000000        1.752418         4    ;  uncertainty k = 0.200484
        16        23        24        52     9        0.000000       -0.141044         1    ;  uncertainty k = 0.221408
        16        23        24        52     9      180.000000        6.709611         2    ;  uncertainty k = 0.380861
        16        23        24        52     9        0.000000        0.642981         3    ;  uncertainty k = 0.210089
        16        23        24        52     9      180.000000        1.030651         4    ;  uncertainty k = 0.217591
        16        23        31        30     9        0.000000        0.000208         1    ;  uncertainty k = 0.464891
        16        23        31        30     9      180.000000       11.593240         2    ;  uncertainty k = 0.463795
        16        23        31        30     9        0.000000        1.506096         3    ;  uncertainty k = 0.271513
        16        23        31        30     9      180.000000        1.554865         4    ;  uncertainty k = 0.288141
        16        23        31        56     9        0.000000       -0.122720         1    ;  uncertainty k = 0.281943
        16        23        31        56     9      180.000000        7.836517         2    ;  uncertainty k = 0.236328
        16        23        31        56     9        0.000000        0.688202         3    ;  uncertainty k = 0.200003
        16        23        31        56     9      180.000000        1.091534         4    ;  uncertainty k = 0.143245
        17        16        23        24     9        0.000000       -0.057218         1    ;  uncertainty k = 0.349503
        17        16        23        24     9      180.000000        3.916624         2    ;  uncertainty k = 0.545493
        17        16        23        24     9        0.000000        0.619050         3    ;  uncertainty k = 0.176087
        17        16        23        24     9      180.000000       -0.314910         4    ;  uncertainty k = 0.160497
        17        16        23        31     9        0.000000        0.027964         1    ;  uncertainty k = 0.248734
        17        16        23        31     9      180.000000        3.790324         2    ;  uncertainty k = 0.442273
        17        16        23        31     9        0.000000        0.910899         3    ;  uncertainty k = 0.183968
        17        16        23        31     9      180.000000       -0.341866         4    ;  uncertainty k = 0.189715
        17        18        19        20     9        0.000000        0.238879         1    ;  uncertainty k = 1.268059
        17        18        19        20     9      180.000000        9.618342         2    ;  uncertainty k = 0.775422
        17        18        19        20     9        0.000000        0.407411         3    ;  uncertainty k = 0.759266
        17        18        19        20     9      180.000000        0.559103         4    ;  uncertainty k = 0.314044
        17        18        19        50     9        0.000000        0.591128         1    ;  uncertainty k = 1.266310
        17        18        19        50     9      180.000000        2.793743         2    ;  uncertainty k = 1.401654
        17        18        19        50     9        0.000000        1.235888         3    ;  uncertainty k = 0.395832
        17        18        19        50     9      180.000000        0.135474         4    ;  uncertainty k = 0.120547
        17        18        22        21     9        0.000000        0.318033         1    ;  uncertainty k = 0.549936
        17        18        22        21     9      180.000000        8.739854         2    ;  uncertainty k = 0.549403
        17        18        22        21     9        0.000000        0.448820         3    ;  uncertainty k = 0.411752
        17        18        22        21     9      180.000000        0.878822         4    ;  uncertainty k = 0.217911
        18        17        16        23     9        0.000000        0.576730         1    ;  uncertainty k = 0.305749
        18        17        16        23     9      180.000000       17.337469         2    ;  uncertainty k = 0.521845
        18        17        16        23     9        0.000000        1.919282         3    ;  uncertainty k = 0.425533
        18        17        16        23     9      180.000000        0.788516         4    ;  uncertainty k = 0.297652
        18        19        20        21     9        0.000000       -0.424259         1    ;  uncertainty k = 0.720471
        18        19        20        21     9      180.000000       21.948844         2    ;  uncertainty k = 0.272817
        18        19        20        21     9        0.000000       -9.453916         3    ;  uncertainty k = 0.408148
        18        19        20        21     9      180.000000        1.578950         4    ;  uncertainty k = 0.654473
        18        19        20        51     9        0.000000        0.427383         1    ;  uncertainty k = 0.828520
        18        19        20        51     9      180.000000       13.870596         2    ;  uncertainty k = 0.182398
        18        19        20        51     9        0.000000        1.815389         3    ;  uncertainty k = 0.320274
        18        19        20        51     9      180.000000        0.903574         4    ;  uncertainty k = 0.223947
        18        22        21        20     9        0.000000       -0.698106         1    ;  uncertainty k = 0.543243
        18        22        21        20     9      180.000000       23.970051         2    ;  uncertainty k = 0.495895
        18        22        21        20     9        0.000000      -11.206153         3    ;  uncertainty k = 1.161985
        18        22        21        20     9      180.000000        1.981051         4    ;  uncertainty k = 0.603215
        19        18        17        49     9        0.000000        1.230264         1    ;  uncertainty k = 1.227408
        19        18        17        49     9      180.000000        2.935755         2    ;  uncertainty k = 1.100422
        19        18        17        49     9        0.000000        1.028872         3    ;  uncertainty k = 0.513157
        19        18        17        49     9      180.000000        0.182735         4    ;  uncertainty k = 0.171564
        19        18        22        21     9        0.000000       -0.600194         1    ;  uncertainty k = 0.427509
        19        18        22        21     9      180.000000       12.032075         2    ;  uncertainty k = 0.540572
        19        18        22        21     9        0.000000       -4.884606         3    ;  uncertainty k = 1.243656
        19        18        22        21     9      180.000000        1.176890         4    ;  uncertainty k = 0.463084
        19        20        21        22     9        0.000000       -0.719371         1    ;  uncertainty k = 0.806440
        19        20        21        22     9      180.000000       16.306391         2    ;  uncertainty k = 0.372137
        19        20        21        22     9        0.000000       -5.546726         3    ;  uncertainty k = 0.784851
        19        20        21        22     9      180.000000        2.138755         4    ;  uncertainty k = 0.319469
        20        19        18        22     9        0.000000        0.425340         1    ;  uncertainty k = 0.911889
        20        19        18        22     9      180.000000       13.121731         2    ;  uncertainty k = 1.266973
        20        19        18        22     9        0.000000      -13.119121         3    ;  uncertainty k = 1.817832
        20        19        18        22     9      180.000000        1.693366         4    ;  uncertainty k = 0.377703
        21        20        19        50     9        0.000000       -0.210816         1    ;  uncertainty k = 0.409318
        21        20        19        50     9      180.000000       14.525460         2    ;  uncertainty k = 0.474526
        21        20        19        50     9        0.000000        1.399987         3    ;  uncertainty k = 0.472591
        21        20        19        50     9      180.000000        0.597840         4    ;  uncertainty k = 0.116226
        22        14        13        48     9        0.000000        5.300787         1    ;  uncertainty k = 1.095312
        22        14        13        48     9      180.000000        6.151860         2    ;  uncertainty k = 0.321337
        22        14        13        48     9        0.000000        1.372350         3    ;  uncertainty k = 0.427877
        22        14        13        48     9      180.000000       -0.022341         4    ;  uncertainty k = 0.217792
        22        18        17        49     9        0.000000        1.226557         1    ;  uncertainty k = 1.441980
        22        18        17        49     9      180.000000        4.293775         2    ;  uncertainty k = 0.542296
        22        18        17        49     9        0.000000        1.116225         3    ;  uncertainty k = 0.349206
        22        18        17        49     9      180.000000        0.197252         4    ;  uncertainty k = 0.128616
        22        18        19        50     9        0.000000        0.337817         1    ;  uncertainty k = 0.998519
        22        18        19        50     9      180.000000        7.392009         2    ;  uncertainty k = 0.385665
        22        18        19        50     9        0.000000        1.061986         3    ;  uncertainty k = 0.365240
        22        18        19        50     9      180.000000        0.171584         4    ;  uncertainty k = 0.281011
        22        21        20        51     9        0.000000       -0.095582         1    ;  uncertainty k = 0.393923
        22        21        20        51     9      180.000000       14.177386         2    ;  uncertainty k = 0.352374
        22        21        20        51     9        0.000000        1.588169         3    ;  uncertainty k = 0.688228
        22        21        20        51     9      180.000000        0.904862         4    ;  uncertainty k = 0.448977
        23        16        17        49     9        0.000000       -0.219214         1    ;  uncertainty k = 0.332985
        23        16        17        49     9      180.000000        9.215237         2    ;  uncertainty k = 0.441043
        23        16        17        49     9        0.000000        1.515665         3    ;  uncertainty k = 0.270368
        23        16        17        49     9      180.000000        0.995306         4    ;  uncertainty k = 0.143311
        23        24        25        26     9        0.000000        0.036572         1    ;  uncertainty k = 0.331158
        23        24        25        26     9      180.000000       16.840932         2    ;  uncertainty k = 0.256778
        23        24        25        26     9        0.000000       -0.285123         3    ;  uncertainty k = 0.467322
        23        24        25        26     9      180.000000        0.632981         4    ;  uncertainty k = 0.299892
        23        24        25        53     9        0.000000       -0.036442         1    ;  uncertainty k = 0.215492
        23        24        25        53     9      180.000000        8.973969         2    ;  uncertainty k = 0.439173
        23        24        25        53     9        0.000000        1.439949         3    ;  uncertainty k = 0.248957
        23        24        25        53     9      180.000000        1.896736         4    ;  uncertainty k = 0.257135
        23        31        30        26     9        0.000000       -0.198171         1    ;  uncertainty k = 0.398265
        23        31        30        26     9      180.000000       12.419192         2    ;  uncertainty k = 0.132303
        23        31        30        26     9        0.000000       -1.380874         3    ;  uncertainty k = 0.530178
        23        31        30        26     9      180.000000        0.756408         4    ;  uncertainty k = 0.234868
        23        31        30        29     9        0.000000        0.161252         1    ;  uncertainty k = 0.187507
        23        31        30        29     9      180.000000       10.407055         2    ;  uncertainty k = 0.716704
        23        31        30        29     9        0.000000        0.894493         3    ;  uncertainty k = 0.361046
        23        31        30        29     9      180.000000        1.248653         4    ;  uncertainty k = 0.351138
        24        23        31        30     9        0.000000        0.050055         1    ;  uncertainty k = 0.216231
        24        23        31        30     9      180.000000       13.680777         2    ;  uncertainty k = 0.248895
        24        23        31        30     9        0.000000        0.002234         3    ;  uncertainty k = 0.286612
        24        23        31        30     9      180.000000        0.895120         4    ;  uncertainty k = 0.337935
        24        23        31        56     9        0.000000        0.247218         1    ;  uncertainty k = 0.158863
        24        23        31        56     9      180.000000        7.919297         2    ;  uncertainty k = 0.573084
        24        23        31        56     9        0.000000        1.544085         3    ;  uncertainty k = 0.138737
        24        23        31        56     9      180.000000        1.705629         4    ;  uncertainty k = 0.254640
        24        25        26        27     9        0.000000        0.312960         1    ;  uncertainty k = 0.413870
        24        25        26        27     9      180.000000        8.161813         2    ;  uncertainty k = 0.408100
        24        25        26        27     9        0.000000        0.680187         3    ;  uncertainty k = 0.316207
        24        25        26        27     9      180.000000        1.318401         4    ;  uncertainty k = 0.118210
        24        25        26        30     9        0.000000        0.024027         1    ;  uncertainty k = 0.234712
        24        25        26        30     9      180.000000       13.393023         2    ;  uncertainty k = 0.123365
        24        25        26        30     9        0.000000       -1.965307         3    ;  uncertainty k = 0.693199
        24        25        26        30     9      180.000000        0.688655         4    ;  uncertainty k = 0.252291
        25        24        23        31     9        0.000000       -0.064850         1    ;  uncertainty k = 0.238097
        25        24        23        31     9      180.000000        8.627471         2    ;  uncertainty k = 0.426027
        25        24        23        31     9        0.000000       -0.116894         3    ;  uncertainty k = 0.347151
        25        24        23        31     9      180.000000        1.107068         4    ;  uncertainty k = 0.235544
        25        26        27        28     9        0.000000        0.545698         1    ;  uncertainty k = 0.710680
        25        26        27        28     9      180.000000        7.153060         2    ;  uncertainty k = 0.604346
        25        26        27        28     9        0.000000       -0.042578         3    ;  uncertainty k = 0.385672
        25        26        27        28     9      180.000000        1.038495         4    ;  uncertainty k = 0.212607
        25        26        27        54     9        0.000000        0.564420         1    ;  uncertainty k = 0.984440
        25        26        27        54     9      180.000000        3.627038         2    ;  uncertainty k = 0.844669
        25        26        27        54     9        0.000000        1.294258         3    ;  uncertainty k = 0.243708
        25        26        27        54     9      180.000000        0.092482         4    ;  uncertainty k = 0.127683
        25        26        30        29     9        0.000000       -0.063130         1    ;  uncertainty k = 0.386312
        25        26        30        29     9      180.000000        8.412511         2    ;  uncertainty k = 0.121049
        25        26        30        29     9        0.000000       -0.287402         3    ;  uncertainty k = 0.440323
        25        26        30        29     9      180.000000        1.255913         4    ;  uncertainty k = 0.401647
        25        26        30        31     9        0.000000       -0.562857         1    ;  uncertainty k = 0.745395
        25        26        30        31     9      180.000000        7.458515         2    ;  uncertainty k = 0.459216
        25        26        30        31     9        0.000000        0.136454         3    ;  uncertainty k = 0.199054
        25        26        30        31     9      180.000000        1.050165         4    ;  uncertainty k = 0.325664
        26        25        24        52     9        0.000000        0.020909         1    ;  uncertainty k = 0.300364
        26        25        24        52     9      180.000000       11.611134         2    ;  uncertainty k = 0.328467
        26        25        24        52     9        0.000000        1.514345         3    ;  uncertainty k = 0.287097
        26        25        24        52     9      180.000000        1.729218         4    ;  uncertainty k = 0.314044
        26        27        28        29     9        0.000000       -0.120151         1    ;  uncertainty k = 0.731968
        26        27        28        29     9      180.000000       26.305453         2    ;  uncertainty k = 0.190420
        26        27        28        29     9        0.000000       -5.118995         3    ;  uncertainty k = 1.092191
        26        27        28        29     9      180.000000        1.921340         4    ;  uncertainty k = 0.544336
        26        30        29        28     9        0.000000        0.445887         1    ;  uncertainty k = 0.538504
        26        30        29        28     9      180.000000       17.377662         2    ;  uncertainty k = 0.937306
        26        30        29        28     9        0.000000       -8.620328         3    ;  uncertainty k = 1.375362
        26        30        29        28     9      180.000000        0.798738         4    ;  uncertainty k = 0.449853
        26        30        29        55     9        0.000000        4.597756         1    ;  uncertainty k = 2.148014
        26        30        29        55     9      180.000000        5.842092         2    ;  uncertainty k = 1.205205
        26        30        29        55     9        0.000000        1.417090         3    ;  uncertainty k = 0.198828
        26        30        29        55     9      180.000000        0.079654         4    ;  uncertainty k = 0.179784
        26        30        31        56     9        0.000000        0.013417         1    ;  uncertainty k = 0.418707
        26        30        31        56     9      180.000000        6.790811         2    ;  uncertainty k = 1.175804
        26        30        31        56     9        0.000000        1.352570         3    ;  uncertainty k = 0.132010
        26        30        31        56     9      180.000000        1.195215         4    ;  uncertainty k = 0.438465
        27        26        25        53     9        0.000000        0.217395         1    ;  uncertainty k = 0.480879
        27        26        25        53     9      180.000000        5.634350         2    ;  uncertainty k = 0.518608
        27        26        25        53     9        0.000000        1.012531         3    ;  uncertainty k = 0.158569
        27        26        25        53     9      180.000000        0.531503         4    ;  uncertainty k = 0.245181
        27        26        30        29     9        0.000000       -0.643775         1    ;  uncertainty k = 0.381050
        27        26        30        29     9      180.000000       11.992309         2    ;  uncertainty k = 0.969250
        27        26        30        29     9        0.000000       -3.882658         3    ;  uncertainty k = 1.450464
        27        26        30        29     9      180.000000        1.660888         4    ;  uncertainty k = 0.668480
        27        26        30        31     9        0.000000        0.241074         1    ;  uncertainty k = 0.298479
        27        26        30        31     9      180.000000        6.850319         2    ;  uncertainty k = 0.103678
        27        26        30        31     9        0.000000        0.207085         3    ;  uncertainty k = 0.461047
        27        26        30        31     9      180.000000        1.308351         4    ;  uncertainty k = 0.339156
        27        28        29        30     9        0.000000        0.010605         1    ;  uncertainty k = 0.662710
        27        28        29        30     9      180.000000       18.143358         2    ;  uncertainty k = 0.626429
        27        28        29        30     9        0.000000       -5.124360         3    ;  uncertainty k = 1.731975
        27        28        29        30     9      180.000000        1.047797         4    ;  uncertainty k = 0.635562
        27        28        29        55     9        0.000000        4.250974         1    ;  uncertainty k = 1.972130
        27        28        29        55     9      180.000000       14.221018         2    ;  uncertainty k = 0.376681
        27        28        29        55     9        0.000000        1.503734         3    ;  uncertainty k = 1.418969
        27        28        29        55     9      180.000000       -0.516135         4    ;  uncertainty k = 0.508753
        28        27        26        30     9        0.000000        0.359306         1    ;  uncertainty k = 0.778421
        28        27        26        30     9      180.000000       13.632395         2    ;  uncertainty k = 1.052806
        28        27        26        30     9        0.000000      -12.345145         3    ;  uncertainty k = 2.648212
        28        27        26        30     9      180.000000        2.230090         4    ;  uncertainty k = 0.628090
        28        29        30        31     9        0.000000        1.000030         1    ;  uncertainty k = 0.963976
        28        29        30        31     9      180.000000        6.598529         2    ;  uncertainty k = 0.456534
        28        29        30        31     9        0.000000        0.523615         3    ;  uncertainty k = 0.549525
        28        29        30        31     9      180.000000        0.305440         4    ;  uncertainty k = 0.151087
        29        28        27        54     9        0.000000        0.518235         1    ;  uncertainty k = 0.650450
        29        28        27        54     9      180.000000       24.335930         2    ;  uncertainty k = 0.403779
        29        28        27        54     9        0.000000        1.548246         3    ;  uncertainty k = 0.953166
        29        28        27        54     9      180.000000        1.092166         4    ;  uncertainty k = 0.377301
        29        30        31        56     9        0.000000        0.314927         1    ;  uncertainty k = 0.315515
        29        30        31        56     9      180.000000        5.699468         2    ;  uncertainty k = 0.975196
        29        30        31        56     9        0.000000        1.146584         3    ;  uncertainty k = 0.270923
        29        30        31        56     9      180.000000        0.857597         4    ;  uncertainty k = 0.459903
        30        26        25        53     9        0.000000       -0.020112         1    ;  uncertainty k = 0.552060
        30        26        25        53     9      180.000000        7.540401         2    ;  uncertainty k = 0.762481
        30        26        25        53     9        0.000000        1.344635         3    ;  uncertainty k = 0.335085
        30        26        25        53     9      180.000000        1.075326         4    ;  uncertainty k = 0.499322
        30        26        27        54     9        0.000000        0.126420         1    ;  uncertainty k = 0.442511
        30        26        27        54     9      180.000000        8.054401         2    ;  uncertainty k = 0.926415
        30        26        27        54     9        0.000000        1.381882         3    ;  uncertainty k = 0.459935
        30        26        27        54     9      180.000000        0.310454         4    ;  uncertainty k = 0.234120
        31        23        24        52     9        0.000000       -0.091765         1    ;  uncertainty k = 0.174121
        31        23        24        52     9      180.000000        6.129199         2    ;  uncertainty k = 0.575207
        31        23        24        52     9        0.000000        1.243235         3    ;  uncertainty k = 0.113303
        31        23        24        52     9      180.000000        1.508541         4    ;  uncertainty k = 0.244145
        31        30        29        55     9        0.000000        1.977926         1    ;  uncertainty k = 0.648830
        31        30        29        55     9      180.000000        1.587495         2    ;  uncertainty k = 0.601509
        31        30        29        55     9        0.000000        1.310226         3    ;  uncertainty k = 0.630295
        31        30        29        55     9      180.000000        0.107901         4    ;  uncertainty k = 0.145848
        32        12        11        47     9        0.000000        0.025168         1    ;  uncertainty k = 0.206551
        32        12        11        47     9      180.000000        6.326000         2    ;  uncertainty k = 0.744311
        32        12        11        47     9        0.000000        1.221454         3    ;  uncertainty k = 0.286692
        32        12        11        47     9      180.000000        1.446916         4    ;  uncertainty k = 0.179934
        32        12        13        48     9        0.000000        2.597791         1    ;  uncertainty k = 0.388176
        32        12        13        48     9      180.000000        4.354502         2    ;  uncertainty k = 0.269021
        32        12        13        48     9        0.000000        0.668938         3    ;  uncertainty k = 0.165671
        32        12        13        48     9      180.000000        0.424981         4    ;  uncertainty k = 0.063204
        33         9        10        46     9        0.000000        0.127170         1    ;  uncertainty k = 0.335736
        33         9        10        46     9      180.000000        5.942528         2    ;  uncertainty k = 0.671138
        33         9        10        46     9        0.000000        1.350587         3    ;  uncertainty k = 0.236450
        33         9        10        46     9      180.000000        1.526542         4    ;  uncertainty k = 0.125281
        38         4         5        40     9        0.000000       -0.051493         1    ;  uncertainty k = 0.334475
        38         4         5        40     9      180.000000        0.519973         2    ;  uncertainty k = 0.320904
        38         4         5        40     9        0.000000        0.118756         3    ;  uncertainty k = 0.046817
        38         4         5        40     9      180.000000       -0.252285         4    ;  uncertainty k = 0.089227
        38         4         5        41     9        0.000000       -0.051493         1    ;  uncertainty k = 0.334475
        38         4         5        41     9      180.000000        0.519973         2    ;  uncertainty k = 0.320904
        38         4         5        41     9        0.000000        0.118756         3    ;  uncertainty k = 0.046817
        38         4         5        41     9      180.000000       -0.252285         4    ;  uncertainty k = 0.089227
        39         4         5        40     9        0.000000       -0.051493         1    ;  uncertainty k = 0.334475
        39         4         5        40     9      180.000000        0.519973         2    ;  uncertainty k = 0.320904
        39         4         5        40     9        0.000000        0.118756         3    ;  uncertainty k = 0.046817
        39         4         5        40     9      180.000000       -0.252285         4    ;  uncertainty k = 0.089227
        39         4         5        41     9        0.000000       -0.051493         1    ;  uncertainty k = 0.334475
        39         4         5        41     9      180.000000        0.519973         2    ;  uncertainty k = 0.320904
        39         4         5        41     9        0.000000        0.118756         3    ;  uncertainty k = 0.046817
        39         4         5        41     9      180.000000       -0.252285         4    ;  uncertainty k = 0.089227
        42         7         8        44     9        0.000000       -0.051493         1    ;  uncertainty k = 0.334475
        42         7         8        44     9      180.000000        0.519973         2    ;  uncertainty k = 0.320904
        42         7         8        44     9        0.000000        0.118756         3    ;  uncertainty k = 0.046817
        42         7         8        44     9      180.000000       -0.252285         4    ;  uncertainty k = 0.089227
        42         7         8        45     9        0.000000       -0.051493         1    ;  uncertainty k = 0.334477
        42         7         8        45     9      180.000000        0.519973         2    ;  uncertainty k = 0.320902
        42         7         8        45     9        0.000000        0.118756         3    ;  uncertainty k = 0.046817
        42         7         8        45     9      180.000000       -0.252285         4    ;  uncertainty k = 0.089226
        43         7         8        44     9        0.000000       -0.051493         1    ;  uncertainty k = 0.334475
        43         7         8        44     9      180.000000        0.519973         2    ;  uncertainty k = 0.320904
        43         7         8        44     9        0.000000        0.118756         3    ;  uncertainty k = 0.046817
        43         7         8        44     9      180.000000       -0.252285         4    ;  uncertainty k = 0.089227
        43         7         8        45     9        0.000000       -0.051493         1    ;  uncertainty k = 0.334477
        43         7         8        45     9      180.000000        0.519973         2    ;  uncertainty k = 0.320902
        43         7         8        45     9        0.000000        0.118756         3    ;  uncertainty k = 0.046817
        43         7         8        45     9      180.000000       -0.252285         4    ;  uncertainty k = 0.089226
        46        10        11        47     9        0.000000       -0.033493         1    ;  uncertainty k = 0.337431
        46        10        11        47     9      180.000000        7.906292         2    ;  uncertainty k = 0.597080
        46        10        11        47     9        0.000000       -0.382018         3    ;  uncertainty k = 0.398381
        46        10        11        47     9      180.000000        0.330781         4    ;  uncertainty k = 0.235621
        50        19        20        51     9        0.000000       -0.311075         1    ;  uncertainty k = 0.492453
        50        19        20        51     9      180.000000        5.384359         2    ;  uncertainty k = 0.598234
        50        19        20        51     9        0.000000        1.243313         3    ;  uncertainty k = 0.430720
        50        19        20        51     9      180.000000        0.271791         4    ;  uncertainty k = 0.092255
        52        24        25        53     9        0.000000       -0.250847         1    ;  uncertainty k = 0.196331
        52        24        25        53     9      180.000000        8.235113         2    ;  uncertainty k = 0.381562
        52        24        25        53     9        0.000000       -0.155117         3    ;  uncertainty k = 0.220769
        52        24        25        53     9      180.000000        0.305847         4    ;  uncertainty k = 0.262587
        57        32        33        58     9        0.000000       -0.033493         1    ;  uncertainty k = 0.337431
        57        32        33        58     9      180.000000        7.906290         2    ;  uncertainty k = 0.597080
        57        32        33        58     9        0.000000       -0.382018         3    ;  uncertainty k = 0.398381
        57        32        33        58     9      180.000000        0.330781         4    ;  uncertainty k = 0.235621

[ dihedrals ] ; impropers
;       ai        aj        ak        al funct           phase               k        pn
         9         6        10        33     4      180.000000       20.385788         2    ;  uncertainty k = 0.120902
         9        10        33         6     4      180.000000       20.385788         2    ;  uncertainty k = 0.120902
         9        33         6        10     4      180.000000       20.385788         2    ;  uncertainty k = 0.120902
        10         9        11        46     4      180.000000        2.174608         2    ;  uncertainty k = 0.486996
        10        11        46         9     4      180.000000        2.174608         2    ;  uncertainty k = 0.486996
        10        46         9        11     4      180.000000        2.174608         2    ;  uncertainty k = 0.486996
        11        10        12        47     4      180.000000        3.206660         2    ;  uncertainty k = 0.223269
        11        12        47        10     4      180.000000        3.206660         2    ;  uncertainty k = 0.223269
        11        47        10        12     4      180.000000        3.206660         2    ;  uncertainty k = 0.223269
        12        11        13        32     4      180.000000       17.191664         2    ;  uncertainty k = 0.066919
        12        13        32        11     4      180.000000       17.191664         2    ;  uncertainty k = 0.066919
        12        32        11        13     4      180.000000       17.191664         2    ;  uncertainty k = 0.066919
        13        12        14        48     4      180.000000        1.609866         2    ;  uncertainty k = 0.665250
        13        14        48        12     4      180.000000        1.609866         2    ;  uncertainty k = 0.665250
        13        48        12        14     4      180.000000        1.609866         2    ;  uncertainty k = 0.665250
        14        13        15        22     4      180.000000       28.346684         2    ;  uncertainty k = 0.062767
        14        15        22        13     4      180.000000       28.346684         2    ;  uncertainty k = 0.062767
        14        22        13        15     4      180.000000       28.346684         2    ;  uncertainty k = 0.062767
        16        15        17        23     4      180.000000       19.200791         2    ;  uncertainty k = 0.081082
        16        17        23        15     4      180.000000       19.200791         2    ;  uncertainty k = 0.081082
        16        23        15        17     4      180.000000       19.200791         2    ;  uncertainty k = 0.081082
        17        16        18        49     4      180.000000        1.291987         2    ;  uncertainty k = 1.146498
        17        18        49        16     4      180.000000        1.291987         2    ;  uncertainty k = 1.146498
        17        49        16        18     4      180.000000        1.291987         2    ;  uncertainty k = 1.146498
        18        17        19        22     4      180.000000        1.588086         2    ;  uncertainty k = 1.398469
        18        19        22        17     4      180.000000        1.588086         2    ;  uncertainty k = 1.398469
        18        22        17        19     4      180.000000        1.588086         2    ;  uncertainty k = 1.398469
        19        18        20        50     4      180.000000        0.105195         2    ;  uncertainty k = 0.235223
        19        20        50        18     4      180.000000        0.105195         2    ;  uncertainty k = 0.235223
        19        50        18        20     4      180.000000        0.105195         2    ;  uncertainty k = 0.235223
        20        19        21        51     4      180.000000        1.779599         2    ;  uncertainty k = 0.230150
        20        21        51        19     4      180.000000        1.779599         2    ;  uncertainty k = 0.230150
        20        51        19        21     4      180.000000        1.779599         2    ;  uncertainty k = 0.230150
        22        14        18        21     4      180.000000        2.165379         2    ;  uncertainty k = 0.627946
        22        18        21        14     4      180.000000        2.165379         2    ;  uncertainty k = 0.627946
        22        21        14        18     4      180.000000        2.165379         2    ;  uncertainty k = 0.627946
        23        16        24        31     4      180.000000       11.787880         2    ;  uncertainty k = 0.110513
        23        24        31        16     4      180.000000       11.787880         2    ;  uncertainty k = 0.110513
        23        31        16        24     4      180.000000       11.787880         2    ;  uncertainty k = 0.110513
        24        23        25        52     4      180.000000        2.954189         2    ;  uncertainty k = 0.225776
        24        25        52        23     4      180.000000        2.954189         2    ;  uncertainty k = 0.225776
        24        52        23        25     4      180.000000        2.954189         2    ;  uncertainty k = 0.225776
        25        24        26        53     4      180.000000        5.148360         2    ;  uncertainty k = 0.214210
        25        26        53        24     4      180.000000        5.148360         2    ;  uncertainty k = 0.214210
        25        53        24        26     4      180.000000        5.148360         2    ;  uncertainty k = 0.214210
        27        26        28        54     4      180.000000        1.421392         2    ;  uncertainty k = 0.357579
        27        28        54        26     4      180.000000        1.421392         2    ;  uncertainty k = 0.357579
        27        54        26        28     4      180.000000        1.421392         2    ;  uncertainty k = 0.357579
        30        26        29        31     4      180.000000        1.427404         2    ;  uncertainty k = 0.758144
        30        29        31        26     4      180.000000        1.427404         2    ;  uncertainty k = 0.758144
        30        31        26        29     4      180.000000        1.427404         2    ;  uncertainty k = 0.758144
        31        23        30        56     4      180.000000        2.575295         2    ;  uncertainty k = 0.237857
        31        30        56        23     4      180.000000        2.575295         2    ;  uncertainty k = 0.237857
        31        56        23        30     4      180.000000        2.575295         2    ;  uncertainty k = 0.237857
        32        12        33        57     4      180.000000        3.206660         2    ;  uncertainty k = 0.223268
        32        33        57        12     4      180.000000        3.206660         2    ;  uncertainty k = 0.223268
        32        57        12        33     4      180.000000        3.206660         2    ;  uncertainty k = 0.223268
        33         9        32        58     4      180.000000        2.174613         2    ;  uncertainty k = 0.486996
        33        32        58         9     4      180.000000        2.174613         2    ;  uncertainty k = 0.486996
        33        58         9        32     4      180.000000        2.174613         2    ;  uncertainty k = 0.486996

[ pairs ]
;       ai        aj funct
         1         5     1
         1         7     1
         1        37     1
         1        38     1
         1        39     1
         1        44     1
         1        45     1
         2         6     1
         2        40     1
         2        41     1
         2        42     1
         2        43     1
         3         5     1
         3         7     1
         3        34     1
         3        35     1
         3        36     1
         3        38     1
         3        39     1
         3        44     1
         3        45     1
         4         7     1
         4         9     1
         4        34     1
         4        35     1
         4        36     1
         4        37     1
         4        44     1
         4        45     1
         5         8     1
         5        10     1
         5        33     1
         5        42     1
         5        43     1
         6        11     1
         6        32     1
         6        38     1
         6        39     1
         6        44     1
         6        45     1
         6        46     1
         6        58     1
         7        10     1
         7        33     1
         7        40     1
         7        41     1
         8         9     1
         8        34     1
         8        35     1
         8        36     1
         8        37     1
         8        38     1
         8        39     1
         9        12     1
         9        40     1
         9        41     1
         9        42     1
         9        43     1
         9        47     1
         9        57     1
        10        13     1
        10        32     1
        10        58     1
        11        14     1
        11        33     1
        11        48     1
        11        57     1
        12        15     1
        12        22     1
        12        46     1
        12        58     1
        13        16     1
        13        18     1
        13        21     1
        13        33     1
        13        47     1
        13        57     1
        14        17     1
        14        19     1
        14        20     1
        14        23     1
        14        32     1
        15        18     1
        15        21     1
        15        24     1
        15        31     1
        15        48     1
        15        49     1
        16        19     1
        16        22     1
        16        25     1
        16        30     1
        16        52     1
        16        56     1
        17        20     1
        17        21     1
        17        24     1
        17        31     1
        17        50     1
        18        23     1
        18        51     1
        19        49     1
        21        50     1
        22        48     1
        22        49     1
        22        50     1
        22        51     1
        23        26     1
        23        29     1
        23        49     1
        23        53     1
        24        27     1
        24        30     1
        24        56     1
        25        28     1
        25        29     1
        25        31     1
        25        54     1
        26        52     1
        26        55     1
        26        56     1
        27        31     1
        27        53     1
        27        55     1
        28        31     1
        29        54     1
        29        56     1
        30        53     1
        30        54     1
        31        52     1
        31        55     1
        32        47     1
        32        48     1
        33        46     1
        38        40     1
        38        41     1
        39        40     1
        39        41     1
        42        44     1
        42        45     1
        43        44     1
        43        45     1
        46        47     1
        50        51     1
        52        53     1
        57        58     1
