; ITP file created by ByteFF-joint-25, 2026-02-17 09:37:16.849210

[ atomtypes ]
;name           bonded.type        at.num        mass        charge   ptype           sigma         epsilon
 c0bf                                   6      0.0000       0.00000       A     3.39774e-01     4.50890e-01    ;  uncertainty sigma = 0.000006, epsilon = 0.000514
 o1bf                                   8      0.0000       0.00000       A     3.15641e-01     3.03850e-01    ;  uncertainty sigma = 0.000015, epsilon = 0.000455
 c2bf                                   6      0.0000       0.00000       A     3.31526e-01     4.13474e-01    ;  uncertainty sigma = 0.000006, epsilon = 0.000721
 c3bf                                   6      0.0000       0.00000       A     3.31529e-01     4.13640e-01    ;  uncertainty sigma = 0.000005, epsilon = 0.000792
 c4bf                                   6      0.0000       0.00000       A     3.31525e-01     4.13354e-01    ;  uncertainty sigma = 0.000006, epsilon = 0.000662
 c5bf                                   6      0.0000       0.00000       A     3.31528e-01     4.13588e-01    ;  uncertainty sigma = 0.000010, epsilon = 0.000818
 n6bf                                   7      0.0000       0.00000       A     3.27852e-01     6.46169e-01    ;  uncertainty sigma = 0.000043, epsilon = 0.003219
 c7bf                                   6      0.0000       0.00000       A     3.31526e-01     4.13887e-01    ;  uncertainty sigma = 0.000017, epsilon = 0.001682
 n8bf                                   7      0.0000       0.00000       A     3.38480e-01     3.93264e-01    ;  uncertainty sigma = 0.000031, epsilon = 0.000757
 c9bf                                   6      0.0000       0.00000       A     3.31580e-01     4.13446e-01    ;  uncertainty sigma = 0.000029, epsilon = 0.000781
 c10bf                                  6      0.0000       0.00000       A     3.31553e-01     4.13597e-01    ;  uncertainty sigma = 0.000012, epsilon = 0.001693
 n11bf                                  7      0.0000       0.00000       A     3.20547e-01     8.53303e-01    ;  uncertainty sigma = 0.000017, epsilon = 0.000844
 c12bf                                  6      0.0000       0.00000       A     3.31503e-01     4.12978e-01    ;  uncertainty sigma = 0.000012, epsilon = 0.001136
 c13bf                                  6      0.0000       0.00000       A     3.31531e-01     4.13187e-01    ;  uncertainty sigma = 0.000008, epsilon = 0.000699
 n14bf                                  7      0.0000       0.00000       A     3.38427e-01     3.92895e-01    ;  uncertainty sigma = 0.000039, epsilon = 0.000415
 c15bf                                  6      0.0000       0.00000       A     3.31554e-01     4.12537e-01    ;  uncertainty sigma = 0.000015, epsilon = 0.000432
 c16bf                                  6      0.0000       0.00000       A     3.31510e-01     4.13266e-01    ;  uncertainty sigma = 0.000018, epsilon = 0.000719
 c17bf                                  6      0.0000       0.00000       A     3.31516e-01     4.12931e-01    ;  uncertainty sigma = 0.000016, epsilon = 0.000604
 c18bf                                  6      0.0000       0.00000       A     3.31531e-01     4.13207e-01    ;  uncertainty sigma = 0.000011, epsilon = 0.001255
 c19bf                                  6      0.0000       0.00000       A     3.31518e-01     4.13410e-01    ;  uncertainty sigma = 0.000004, epsilon = 0.000598
 c20bf                                  6      0.0000       0.00000       A     3.31516e-01     4.13086e-01    ;  uncertainty sigma = 0.000003, epsilon = 0.000583
 c21bf                                  6      0.0000       0.00000       A     3.31526e-01     4.12986e-01    ;  uncertainty sigma = 0.000004, epsilon = 0.000683
 c22bf                                  6      0.0000       0.00000       A     3.39781e-01     4.50895e-01    ;  uncertainty sigma = 0.000004, epsilon = 0.000531
 c23bf                                  6      0.0000       0.00000       A     3.31553e-01     4.13081e-01    ;  uncertainty sigma = 0.000021, epsilon = 0.001380
 o24bf                                  8      0.0000       0.00000       A     3.04792e-01     6.12516e-01    ;  uncertainty sigma = 0.000037, epsilon = 0.002295
 n25bf                                  7      0.0000       0.00000       A     3.35959e-01     3.54470e-01    ;  uncertainty sigma = 0.000065, epsilon = 0.002562
 c26bf                                  6      0.0000       0.00000       A     3.31516e-01     4.13129e-01    ;  uncertainty sigma = 0.000010, epsilon = 0.000957
 c27bf                                  6      0.0000       0.00000       A     3.31531e-01     4.13728e-01    ;  uncertainty sigma = 0.000008, epsilon = 0.001049
 o28bf                                  8      0.0000       0.00000       A     3.15636e-01     3.03949e-01    ;  uncertainty sigma = 0.000015, epsilon = 0.000670
 c29bf                                  6      0.0000       0.00000       A     3.39774e-01     4.50890e-01    ;  uncertainty sigma = 0.000006, epsilon = 0.000514
 h30bf                                  1      0.0000       0.00000       A     2.42205e-01     8.67538e-02    ;  uncertainty sigma = 0.000015, epsilon = 0.000624
 h31bf                                  1      0.0000       0.00000       A     2.42205e-01     8.67538e-02    ;  uncertainty sigma = 0.000015, epsilon = 0.000624
 h32bf                                  1      0.0000       0.00000       A     2.42205e-01     8.67538e-02    ;  uncertainty sigma = 0.000015, epsilon = 0.000624
 h33bf                                  1      0.0000       0.00000       A     2.62570e-01     6.70700e-02    ;  uncertainty sigma = 0.000012, epsilon = 0.000330
 h34bf                                  1      0.0000       0.00000       A     2.62564e-01     6.70248e-02    ;  uncertainty sigma = 0.000015, epsilon = 0.000426
 h35bf                                  1      0.0000       0.00000       A     1.10708e-01     4.06502e-02    ;  uncertainty sigma = 0.000118, epsilon = 0.000465
 h36bf                                  1      0.0000       0.00000       A     2.53612e-01     6.73649e-02    ;  uncertainty sigma = 0.000081, epsilon = 0.000889
 h37bf                                  1      0.0000       0.00000       A     2.53649e-01     6.68496e-02    ;  uncertainty sigma = 0.000023, epsilon = 0.000657
 h38bf                                  1      0.0000       0.00000       A     2.53645e-01     6.69492e-02    ;  uncertainty sigma = 0.000020, epsilon = 0.000834
 h39bf                                  1      0.0000       0.00000       A     2.62572e-01     6.74703e-02    ;  uncertainty sigma = 0.000014, epsilon = 0.000819
 h40bf                                  1      0.0000       0.00000       A     2.62555e-01     6.70547e-02    ;  uncertainty sigma = 0.000010, epsilon = 0.000692
 h41bf                                  1      0.0000       0.00000       A     2.62560e-01     6.70458e-02    ;  uncertainty sigma = 0.000010, epsilon = 0.000358
 h42bf                                  1      0.0000       0.00000       A     2.60029e-01     8.67218e-02    ;  uncertainty sigma = 0.000007, epsilon = 0.000441
 h43bf                                  1      0.0000       0.00000       A     2.60029e-01     8.67218e-02    ;  uncertainty sigma = 0.000007, epsilon = 0.000441
 h44bf                                  1      0.0000       0.00000       A     2.60029e-01     8.67218e-02    ;  uncertainty sigma = 0.000007, epsilon = 0.000441
 h45bf                                  1      0.0000       0.00000       A     1.10644e-01     4.14126e-02    ;  uncertainty sigma = 0.000051, epsilon = 0.000340
 h46bf                                  1      0.0000       0.00000       A     1.10644e-01     4.14126e-02    ;  uncertainty sigma = 0.000051, epsilon = 0.000340
 h47bf                                  1      0.0000       0.00000       A     2.62560e-01     6.71373e-02    ;  uncertainty sigma = 0.000017, epsilon = 0.000539
 h48bf                                  1      0.0000       0.00000       A     2.42205e-01     8.67538e-02    ;  uncertainty sigma = 0.000015, epsilon = 0.000624
 h49bf                                  1      0.0000       0.00000       A     2.42205e-01     8.67538e-02    ;  uncertainty sigma = 0.000015, epsilon = 0.000624
 h50bf                                  1      0.0000       0.00000       A     2.42205e-01     8.67538e-02    ;  uncertainty sigma = 0.000015, epsilon = 0.000624

[ moleculetype ]
;name             nrexcl
 MOL                   3

[ atoms ]
;       nr            type      resi   res      atom      cgnr      charge          mass ; qtot
         1            c0bf         1   UNL        c0         1     0.11960       12.0110 ; qtot    0.120
         2            o1bf         1   UNL        o1         2    -0.32010       15.9990 ; qtot   -0.201
         3            c2bf         1   UNL        c2         3     0.07584       12.0110 ; qtot   -0.125
         4            c3bf         1   UNL        c3         4    -0.15014       12.0110 ; qtot   -0.275
         5            c4bf         1   UNL        c4         5    -0.15106       12.0110 ; qtot   -0.426
         6            c5bf         1   UNL        c5         6     0.16694       12.0110 ; qtot   -0.259
         7            n6bf         1   UNL        n6         7    -0.73903       14.0070 ; qtot   -0.998
         8            c7bf         1   UNL        c7         8     0.75024       12.0110 ; qtot   -0.248
         9            n8bf         1   UNL        n8         9    -0.76368       14.0070 ; qtot   -1.011
        10            c9bf         1   UNL        c9        10     0.46508       12.0110 ; qtot   -0.546
        11           c10bf         1   UNL       c10        11    -0.21861       12.0110 ; qtot   -0.765
        12           n11bf         1   UNL       n11        12     0.05190       14.0070 ; qtot   -0.713
        13           c12bf         1   UNL       c12        13    -0.21243       12.0110 ; qtot   -0.925
        14           c13bf         1   UNL       c13        14     0.01175       12.0110 ; qtot   -0.914
        15           n14bf         1   UNL       n14        15    -0.27543       14.0070 ; qtot   -1.189
        16           c15bf         1   UNL       c15        16    -0.18460       12.0110 ; qtot   -1.374
        17           c16bf         1   UNL       c16        17    -0.12263       12.0110 ; qtot   -1.496
        18           c17bf         1   UNL       c17        18    -0.06466       12.0110 ; qtot   -1.561
        19           c18bf         1   UNL       c18        19    -0.16327       12.0110 ; qtot   -1.724
        20           c19bf         1   UNL       c19        20    -0.07477       12.0110 ; qtot   -1.799
        21           c20bf         1   UNL       c20        21    -0.14915       12.0110 ; qtot   -1.948
        22           c21bf         1   UNL       c21        22    -0.03118       12.0110 ; qtot   -1.979
        23           c22bf         1   UNL       c22        23    -0.05157       12.0110 ; qtot   -2.031
        24           c23bf         1   UNL       c23        24     0.66910       12.0110 ; qtot   -1.362
        25           o24bf         1   UNL       o24        25    -0.58864       15.9990 ; qtot   -1.950
        26           n25bf         1   UNL       n25        26    -0.65350       14.0070 ; qtot   -2.604
        27           c26bf         1   UNL       c26        27    -0.20840       12.0110 ; qtot   -2.812
        28           c27bf         1   UNL       c27        28     0.11790       12.0110 ; qtot   -2.695
        29           o28bf         1   UNL       o28        29    -0.31927       15.9990 ; qtot   -3.014
        30           c29bf         1   UNL       c29        30     0.11995       12.0110 ; qtot   -2.894
        31           h30bf         1   UNL       h30        31     0.04337        1.0080 ; qtot   -2.850
        32           h31bf         1   UNL       h31        32     0.04337        1.0080 ; qtot   -2.807
        33           h32bf         1   UNL       h32        33     0.04337        1.0080 ; qtot   -2.764
        34           h33bf         1   UNL       h33        34     0.14091        1.0080 ; qtot   -2.623
        35           h34bf         1   UNL       h34        35     0.15302        1.0080 ; qtot   -2.470
        36           h35bf         1   UNL       h35        36     0.46165        1.0080 ; qtot   -2.008
        37           h36bf         1   UNL       h36        37     0.17626        1.0080 ; qtot   -1.832
        38           h37bf         1   UNL       h37        38     0.18619        1.0080 ; qtot   -1.646
        39           h38bf         1   UNL       h38        39     0.17120        1.0080 ; qtot   -1.474
        40           h39bf         1   UNL       h39        40     0.15451        1.0080 ; qtot   -1.320
        41           h40bf         1   UNL       h40        41     0.14526        1.0080 ; qtot   -1.175
        42           h41bf         1   UNL       h41        42     0.13613        1.0080 ; qtot   -1.039
        43           h42bf         1   UNL       h42        43     0.04830        1.0080 ; qtot   -0.990
        44           h43bf         1   UNL       h43        44     0.04830        1.0080 ; qtot   -0.942
        45           h44bf         1   UNL       h44        45     0.04830        1.0080 ; qtot   -0.894
        46           h45bf         1   UNL       h45        46     0.30396        1.0080 ; qtot   -0.590
        47           h46bf         1   UNL       h46        47     0.30396        1.0080 ; qtot   -0.286
        48           h47bf         1   UNL       h47        48     0.15565        1.0080 ; qtot   -0.130
        49           h48bf         1   UNL       h48        49     0.04337        1.0080 ; qtot   -0.087
        50           h49bf         1   UNL       h49        50     0.04337        1.0080 ; qtot   -0.043
        51           h50bf         1   UNL       h50        51     0.04337        1.0080 ; qtot    0.000

[ bonds ]
;       ai        aj funct               r               k
         1         2     1        0.142504   247060.424561    ;  uncertainty r = 0.000030, k = 4.357279
         1        31     1        0.109559   311162.501807    ;  uncertainty r = 0.000020, k = 1.272505
         1        32     1        0.109559   311162.501807    ;  uncertainty r = 0.000020, k = 1.272505
         1        33     1        0.109559   311162.501807    ;  uncertainty r = 0.000020, k = 1.272505
         2         3     1        0.136892   321113.062012    ;  uncertainty r = 0.000059, k = 4.532937
         3         4     1        0.139488   349133.425439    ;  uncertainty r = 0.000031, k = 2.724656
         3        28     1        0.140227   349402.969629    ;  uncertainty r = 0.000054, k = 7.584627
         4         5     1        0.139369   369864.655127    ;  uncertainty r = 0.000071, k = 2.574425
         4        34     1        0.108705   336290.634375    ;  uncertainty r = 0.000024, k = 1.905467
         5         6     1        0.139713   352891.517529    ;  uncertainty r = 0.000095, k = 4.859039
         5        35     1        0.108700   336152.248779    ;  uncertainty r = 0.000031, k = 1.798265
         6         7     1        0.141333   346668.455957    ;  uncertainty r = 0.000119, k = 12.315044
         6        27     1        0.140236   355873.307031    ;  uncertainty r = 0.000083, k = 5.100092
         7         8     1        0.137988   330814.533252    ;  uncertainty r = 0.000224, k = 31.605630
         7        36     1        0.102091   426736.870264    ;  uncertainty r = 0.000039, k = 5.302920
         8         9     1        0.132272   442741.615137    ;  uncertainty r = 0.000187, k = 13.839728
         8        16     1        0.143016   286566.945654    ;  uncertainty r = 0.000095, k = 10.976562
         9        10     1        0.137633   257264.031982    ;  uncertainty r = 0.000379, k = 27.655492
        10        11     1        0.136943   383505.838379    ;  uncertainty r = 0.000093, k = 12.297312
        10        17     1        0.148204   277984.663770    ;  uncertainty r = 0.000084, k = 10.704307
        11        12     1        0.137819   325579.119385    ;  uncertainty r = 0.000090, k = 7.345064
        11        37     1        0.108466   340681.127441    ;  uncertainty r = 0.000070, k = 2.754586
        12        13     1        0.137812   342777.341064    ;  uncertainty r = 0.000099, k = 5.087994
        12        16     1        0.139016   307421.213135    ;  uncertainty r = 0.000151, k = 23.940608
        13        14     1        0.138713   413349.321582    ;  uncertainty r = 0.000044, k = 11.515297
        13        38     1        0.108153   341281.147363    ;  uncertainty r = 0.000029, k = 4.725641
        14        15     1        0.136694   264650.947314    ;  uncertainty r = 0.000104, k = 21.676776
        14        39     1        0.108374   336399.652295    ;  uncertainty r = 0.000052, k = 2.763004
        15        16     1        0.133277   447135.785547    ;  uncertainty r = 0.000097, k = 11.841721
        17        18     1        0.139952   339854.618896    ;  uncertainty r = 0.000044, k = 6.480331
        17        22     1        0.141056   329186.363770    ;  uncertainty r = 0.000065, k = 5.423478
        18        19     1        0.139364   345783.339746    ;  uncertainty r = 0.000124, k = 3.637883
        18        40     1        0.108676   332799.022021    ;  uncertainty r = 0.000026, k = 1.531202
        19        20     1        0.139784   353832.943066    ;  uncertainty r = 0.000042, k = 6.881421
        19        24     1        0.149055   240355.528809    ;  uncertainty r = 0.000176, k = 8.178686
        20        21     1        0.139310   368423.928027    ;  uncertainty r = 0.000050, k = 1.945428
        20        41     1        0.108696   332647.970020    ;  uncertainty r = 0.000021, k = 1.286948
        21        22     1        0.140094   350278.151904    ;  uncertainty r = 0.000065, k = 3.135070
        21        42     1        0.108827   333553.515918    ;  uncertainty r = 0.000018, k = 1.196071
        22        23     1        0.151209   233260.553711    ;  uncertainty r = 0.000026, k = 3.173935
        23        43     1        0.109450   309454.273486    ;  uncertainty r = 0.000012, k = 1.640834
        23        44     1        0.109450   309454.273486    ;  uncertainty r = 0.000012, k = 1.640839
        23        45     1        0.109450   309454.273486    ;  uncertainty r = 0.000012, k = 1.640839
        24        25     1        0.124087   861100.704687    ;  uncertainty r = 0.000053, k = 6.874804
        24        26     1        0.139408   476933.250879    ;  uncertainty r = 0.000066, k = 10.091169
        26        46     1        0.101643   428892.840723    ;  uncertainty r = 0.000049, k = 3.960396
        26        47     1        0.101643   428892.840723    ;  uncertainty r = 0.000049, k = 3.960396
        27        28     1        0.139270   345625.520410    ;  uncertainty r = 0.000054, k = 5.224456
        27        48     1        0.108746   339222.268994    ;  uncertainty r = 0.000057, k = 2.203703
        28        29     1        0.136641   322875.224707    ;  uncertainty r = 0.000095, k = 4.764590
        29        30     1        0.142472   247648.314355    ;  uncertainty r = 0.000036, k = 5.188422
        30        49     1        0.109559   311162.501807    ;  uncertainty r = 0.000020, k = 1.272500
        30        50     1        0.109559   311162.501807    ;  uncertainty r = 0.000020, k = 1.272491
        30        51     1        0.109559   311162.501807    ;  uncertainty r = 0.000020, k = 1.272497

[ angles ]
;       ai        aj        ak funct           theta             cth
         1         2         3     1      110.612503      514.276204    ;  uncertainty theta = 0.001142, k = 0.053109
         2         1        31     1      108.817703      445.633093    ;  uncertainty theta = 0.001397, k = 0.017155
         2         1        32     1      108.817703      445.633093    ;  uncertainty theta = 0.001397, k = 0.017155
         2         1        33     1      108.817703      445.633093    ;  uncertainty theta = 0.001397, k = 0.017155
         2         3         4     1      120.713829      429.663653    ;  uncertainty theta = 0.002887, k = 0.102450
         2         3        28     1      116.739212      371.002135    ;  uncertainty theta = 0.004292, k = 0.133275
         3         4         5     1      122.308617      511.833707    ;  uncertainty theta = 0.002874, k = 0.098838
         3         4        34     1      117.399475      269.501128    ;  uncertainty theta = 0.000644, k = 0.068639
         3        28        27     1      122.924828      372.294473    ;  uncertainty theta = 0.004880, k = 0.131595
         3        28        29     1      116.892052      375.388038    ;  uncertainty theta = 0.003912, k = 0.086739
         4         3        28     1      121.473427      368.904773    ;  uncertainty theta = 0.004194, k = 0.139265
         4         5         6     1      119.248634      497.970121    ;  uncertainty theta = 0.001680, k = 0.102369
         4         5        35     1      121.012962      296.103549    ;  uncertainty theta = 0.002653, k = 0.108838
         5         4        34     1      120.002708      276.762860    ;  uncertainty theta = 0.000635, k = 0.063553
         5         6         7     1      120.412048      523.951864    ;  uncertainty theta = 0.002787, k = 0.145671
         5         6        27     1      119.564781      370.288948    ;  uncertainty theta = 0.004616, k = 0.068311
         6         5        35     1      119.526833      271.877771    ;  uncertainty theta = 0.001413, k = 0.081499
         6         7         8     1      116.303787      381.015013    ;  uncertainty theta = 0.002927, k = 0.210540
         6         7        36     1      114.186111      355.760727    ;  uncertainty theta = 0.005751, k = 0.200139
         6        27        28     1      121.379723      503.759991    ;  uncertainty theta = 0.003678, k = 0.097545
         6        27        48     1      119.577965      269.429783    ;  uncertainty theta = 0.003301, k = 0.060634
         7         6        27     1      119.861717      533.495177    ;  uncertainty theta = 0.003869, k = 0.077420
         7         8         9     1      122.099693      743.097961    ;  uncertainty theta = 0.006031, k = 0.196167
         7         8        16     1      118.339066      493.433486    ;  uncertainty theta = 0.006804, k = 0.121645
         8         7        36     1      117.061234      430.294771    ;  uncertainty theta = 0.006370, k = 0.198641
         8         9        10     1      121.048180      438.616963    ;  uncertainty theta = 0.010039, k = 0.255898
         8        16        12     1      111.142784      333.997874    ;  uncertainty theta = 0.012736, k = 0.456017
         8        16        15     1      125.515465      293.447945    ;  uncertainty theta = 0.008643, k = 0.324339
         9         8        16     1      122.331985      560.355301    ;  uncertainty theta = 0.006213, k = 0.242181
         9        10        11     1      124.614929      544.785453    ;  uncertainty theta = 0.002747, k = 0.278527
         9        10        17     1      117.415085      455.106339    ;  uncertainty theta = 0.004476, k = 0.178068
        10        11        12     1      117.522217      541.777756    ;  uncertainty theta = 0.004385, k = 0.199038
        10        11        37     1      125.002846      231.880353    ;  uncertainty theta = 0.008259, k = 0.300205
        10        17        18     1      118.062973      411.411323    ;  uncertainty theta = 0.003815, k = 0.129384
        10        17        22     1      119.143539      376.730077    ;  uncertainty theta = 0.004404, k = 0.147290
        11        10        17     1      121.525772      365.577862    ;  uncertainty theta = 0.003636, k = 0.035708
        11        12        13     1      129.688843      428.450959    ;  uncertainty theta = 0.002097, k = 0.318665
        11        12        16     1      117.248863      427.257483    ;  uncertainty theta = 0.006973, k = 0.157117
        12        11        37     1      117.477928      315.190432    ;  uncertainty theta = 0.003271, k = 0.148594
        12        13        14     1      105.324829      767.668044    ;  uncertainty theta = 0.004981, k = 0.189091
        12        13        38     1      119.539230      282.399762    ;  uncertainty theta = 0.002926, k = 0.163945
        12        16        15     1      114.523727      791.406958    ;  uncertainty theta = 0.003446, k = 0.159720
        13        12        16     1      106.195152      846.636320    ;  uncertainty theta = 0.003800, k = 0.266753
        13        14        15     1      111.223167      865.900238    ;  uncertainty theta = 0.003390, k = 0.157111
        13        14        39     1      125.339584      238.965640    ;  uncertainty theta = 0.004247, k = 0.092338
        14        13        38     1      130.781433      240.351826    ;  uncertainty theta = 0.003258, k = 0.025086
        14        15        16     1      106.065872      820.721453    ;  uncertainty theta = 0.001716, k = 0.145916
        15        14        39     1      119.156937      297.238833    ;  uncertainty theta = 0.004129, k = 0.152925
        17        18        19     1      123.602234      511.091216    ;  uncertainty theta = 0.002817, k = 0.182576
        17        18        40     1      118.315590      266.636502    ;  uncertainty theta = 0.002288, k = 0.085744
        17        22        21     1      120.777611      470.453312    ;  uncertainty theta = 0.004217, k = 0.107175
        17        22        23     1      119.111366      415.415701    ;  uncertainty theta = 0.001926, k = 0.068797
        18        17        22     1      123.561050      448.802376    ;  uncertainty theta = 0.004659, k = 0.208292
        18        19        20     1      121.347702      455.100401    ;  uncertainty theta = 0.002604, k = 0.154292
        18        19        24     1      118.381203      359.409214    ;  uncertainty theta = 0.003031, k = 0.167639
        19        18        40     1      118.561401      267.457073    ;  uncertainty theta = 0.003143, k = 0.116281
        19        20        21     1      120.656578      519.560407    ;  uncertainty theta = 0.001387, k = 0.113092
        19        20        41     1      118.935989      264.661111    ;  uncertainty theta = 0.002177, k = 0.091318
        19        24        25     1      124.528160      523.525298    ;  uncertainty theta = 0.004421, k = 0.084753
        19        24        26     1      115.076981      451.079583    ;  uncertainty theta = 0.004063, k = 0.205847
        20        19        24     1      119.339966      349.165130    ;  uncertainty theta = 0.001314, k = 0.218762
        20        21        22     1      122.962387      523.652633    ;  uncertainty theta = 0.002101, k = 0.109190
        20        21        42     1      119.881981      283.852313    ;  uncertainty theta = 0.001494, k = 0.068517
        21        20        41     1      120.216454      284.736120    ;  uncertainty theta = 0.002065, k = 0.030871
        21        22        23     1      120.100624      420.850286    ;  uncertainty theta = 0.003378, k = 0.192357
        22        21        42     1      118.331909      272.442141    ;  uncertainty theta = 0.001864, k = 0.085371
        22        23        43     1      109.944191      396.683146    ;  uncertainty theta = 0.000678, k = 0.030971
        22        23        44     1      109.944191      396.683146    ;  uncertainty theta = 0.000678, k = 0.030971
        22        23        45     1      109.944191      396.683146    ;  uncertainty theta = 0.000678, k = 0.030971
        24        26        46     1      116.527687      309.747963    ;  uncertainty theta = 0.001797, k = 0.053592
        24        26        47     1      116.527687      309.747963    ;  uncertainty theta = 0.001797, k = 0.053592
        25        24        26     1      126.768311      877.799191    ;  uncertainty theta = 0.002621, k = 0.114987
        27        28        29     1      119.984230      446.391321    ;  uncertainty theta = 0.002825, k = 0.109279
        28        27        48     1      118.198837      267.442262    ;  uncertainty theta = 0.001362, k = 0.058522
        28        29        30     1      110.584335      514.931710    ;  uncertainty theta = 0.000760, k = 0.054259
        29        30        49     1      108.804810      446.467230    ;  uncertainty theta = 0.001256, k = 0.017592
        29        30        50     1      108.804810      446.467230    ;  uncertainty theta = 0.001256, k = 0.017592
        29        30        51     1      108.804810      446.467230    ;  uncertainty theta = 0.001256, k = 0.017592
        31         1        32     1      109.159256      331.008596    ;  uncertainty theta = 0.001734, k = 0.015289
        31         1        33     1      109.159256      331.008596    ;  uncertainty theta = 0.001734, k = 0.015289
        32         1        33     1      109.159256      331.008596    ;  uncertainty theta = 0.001734, k = 0.015289
        43        23        44     1      106.681236      317.133455    ;  uncertainty theta = 0.001091, k = 0.028619
        43        23        45     1      106.681236      317.133455    ;  uncertainty theta = 0.001091, k = 0.028619
        44        23        45     1      106.681236      317.133455    ;  uncertainty theta = 0.001091, k = 0.028619
        46        26        47     1      109.585854      270.131032    ;  uncertainty theta = 0.002313, k = 0.057511
        49        30        50     1      109.159256      331.008596    ;  uncertainty theta = 0.001734, k = 0.015290
        49        30        51     1      109.159256      331.008596    ;  uncertainty theta = 0.001734, k = 0.015290
        50        30        51     1      109.159256      331.008596    ;  uncertainty theta = 0.001734, k = 0.015290

[ dihedrals ] ; propers for gromacs 4.5 or higher, use funct 9
;       ai        aj        ak        al funct           phase               k        pn
         1         2         3         4     9        0.000000        1.161590         1    ;  uncertainty k = 0.424580
         1         2         3         4     9      180.000000        5.978609         2    ;  uncertainty k = 0.113714
         1         2         3         4     9        0.000000       -0.081692         3    ;  uncertainty k = 0.147719
         1         2         3         4     9      180.000000        0.002725         4    ;  uncertainty k = 0.132587
         1         2         3        28     9        0.000000        0.710048         1    ;  uncertainty k = 0.461814
         1         2         3        28     9      180.000000        5.168557         2    ;  uncertainty k = 0.168705
         1         2         3        28     9        0.000000        1.522737         3    ;  uncertainty k = 0.085019
         1         2         3        28     9      180.000000        0.086569         4    ;  uncertainty k = 0.079161
         2         3         4         5     9        0.000000        0.075453         1    ;  uncertainty k = 0.391184
         2         3         4         5     9      180.000000       11.200366         2    ;  uncertainty k = 0.281957
         2         3         4         5     9        0.000000        1.350673         3    ;  uncertainty k = 0.315697
         2         3         4         5     9      180.000000        1.737822         4    ;  uncertainty k = 0.262819
         2         3         4        34     9        0.000000       -0.165175         1    ;  uncertainty k = 0.217547
         2         3         4        34     9      180.000000        9.159951         2    ;  uncertainty k = 0.396817
         2         3         4        34     9        0.000000        0.851185         3    ;  uncertainty k = 0.126617
         2         3         4        34     9      180.000000        1.218800         4    ;  uncertainty k = 0.309716
         2         3        28        27     9        0.000000        0.515556         1    ;  uncertainty k = 0.299239
         2         3        28        27     9      180.000000        7.954903         2    ;  uncertainty k = 0.736958
         2         3        28        27     9        0.000000        1.164308         3    ;  uncertainty k = 0.363484
         2         3        28        27     9      180.000000        1.614907         4    ;  uncertainty k = 0.248125
         2         3        28        29     9        0.000000       -0.341456         1    ;  uncertainty k = 1.859913
         2         3        28        29     9      180.000000       13.064537         2    ;  uncertainty k = 0.569185
         2         3        28        29     9        0.000000        0.817588         3    ;  uncertainty k = 0.428631
         2         3        28        29     9      180.000000        1.204285         4    ;  uncertainty k = 0.526598
         3         2         1        31     9        0.000000        1.112847         1    ;  uncertainty k = 0.103175
         3         2         1        31     9      180.000000       -2.022644         2    ;  uncertainty k = 0.082864
         3         2         1        31     9        0.000000        1.040477         3    ;  uncertainty k = 0.039004
         3         2         1        31     9      180.000000        0.229250         4    ;  uncertainty k = 0.034227
         3         2         1        32     9        0.000000        1.112847         1    ;  uncertainty k = 0.103175
         3         2         1        32     9      180.000000       -2.022644         2    ;  uncertainty k = 0.082864
         3         2         1        32     9        0.000000        1.040477         3    ;  uncertainty k = 0.039004
         3         2         1        32     9      180.000000        0.229250         4    ;  uncertainty k = 0.034227
         3         2         1        33     9        0.000000        1.112847         1    ;  uncertainty k = 0.103175
         3         2         1        33     9      180.000000       -2.022644         2    ;  uncertainty k = 0.082864
         3         2         1        33     9        0.000000        1.040477         3    ;  uncertainty k = 0.039004
         3         2         1        33     9      180.000000        0.229250         4    ;  uncertainty k = 0.034227
         3         4         5         6     9        0.000000        0.022057         1    ;  uncertainty k = 0.194405
         3         4         5         6     9      180.000000       12.959076         2    ;  uncertainty k = 0.175269
         3         4         5         6     9        0.000000       -0.661284         3    ;  uncertainty k = 0.452963
         3         4         5         6     9      180.000000        0.977500         4    ;  uncertainty k = 0.267395
         3         4         5        35     9        0.000000        0.089133         1    ;  uncertainty k = 0.324049
         3         4         5        35     9      180.000000        7.832723         2    ;  uncertainty k = 0.398222
         3         4         5        35     9        0.000000        1.298747         3    ;  uncertainty k = 0.324375
         3         4         5        35     9      180.000000        1.779745         4    ;  uncertainty k = 0.055930
         3        28        27         6     9        0.000000        0.071802         1    ;  uncertainty k = 0.106893
         3        28        27         6     9      180.000000        8.578020         2    ;  uncertainty k = 0.448413
         3        28        27         6     9        0.000000        0.405195         3    ;  uncertainty k = 0.328173
         3        28        27         6     9      180.000000        1.390162         4    ;  uncertainty k = 0.291061
         3        28        27        48     9        0.000000        0.127329         1    ;  uncertainty k = 0.442115
         3        28        27        48     9      180.000000        6.705908         2    ;  uncertainty k = 0.374607
         3        28        27        48     9        0.000000        1.449705         3    ;  uncertainty k = 0.216502
         3        28        27        48     9      180.000000        1.651952         4    ;  uncertainty k = 0.099448
         3        28        29        30     9        0.000000        0.964833         1    ;  uncertainty k = 0.487894
         3        28        29        30     9      180.000000        5.588064         2    ;  uncertainty k = 0.185698
         3        28        29        30     9        0.000000        1.649424         3    ;  uncertainty k = 0.107622
         3        28        29        30     9      180.000000        0.043020         4    ;  uncertainty k = 0.050223
         4         3        28        27     9        0.000000       -0.246361         1    ;  uncertainty k = 0.323015
         4         3        28        27     9      180.000000        5.364289         2    ;  uncertainty k = 1.281071
         4         3        28        27     9        0.000000        0.277799         3    ;  uncertainty k = 0.286511
         4         3        28        27     9      180.000000        1.297118         4    ;  uncertainty k = 0.309451
         4         3        28        29     9        0.000000        0.651705         1    ;  uncertainty k = 0.176594
         4         3        28        29     9      180.000000        7.590394         2    ;  uncertainty k = 0.603024
         4         3        28        29     9        0.000000        1.174713         3    ;  uncertainty k = 0.330890
         4         3        28        29     9      180.000000        1.724084         4    ;  uncertainty k = 0.232454
         4         5         6         7     9        0.000000        0.058897         1    ;  uncertainty k = 0.517002
         4         5         6         7     9      180.000000        9.907040         2    ;  uncertainty k = 0.506714
         4         5         6         7     9        0.000000        0.979239         3    ;  uncertainty k = 0.327123
         4         5         6         7     9      180.000000        1.580944         4    ;  uncertainty k = 0.224706
         4         5         6        27     9        0.000000       -0.065841         1    ;  uncertainty k = 0.278588
         4         5         6        27     9      180.000000        9.979296         2    ;  uncertainty k = 0.397780
         4         5         6        27     9        0.000000       -0.194578         3    ;  uncertainty k = 0.190668
         4         5         6        27     9      180.000000        1.171069         4    ;  uncertainty k = 0.255361
         5         4         3        28     9        0.000000        0.085734         1    ;  uncertainty k = 0.237541
         5         4         3        28     9      180.000000        8.042168         2    ;  uncertainty k = 0.816838
         5         4         3        28     9        0.000000        0.289471         3    ;  uncertainty k = 0.178601
         5         4         3        28     9      180.000000        1.427392         4    ;  uncertainty k = 0.249188
         5         6         7         8     9        0.000000        1.717569         1    ;  uncertainty k = 0.660151
         5         6         7         8     9      180.000000        5.521741         2    ;  uncertainty k = 0.179949
         5         6         7         8     9        0.000000        0.912155         3    ;  uncertainty k = 0.268355
         5         6         7         8     9      180.000000        0.224590         4    ;  uncertainty k = 0.108908
         5         6         7        36     9        0.000000        2.355176         1    ;  uncertainty k = 0.449212
         5         6         7        36     9      180.000000        4.348203         2    ;  uncertainty k = 0.302695
         5         6         7        36     9        0.000000        0.613845         3    ;  uncertainty k = 0.145998
         5         6         7        36     9      180.000000        0.455801         4    ;  uncertainty k = 0.028343
         5         6        27        28     9        0.000000        0.019455         1    ;  uncertainty k = 0.133757
         5         6        27        28     9      180.000000        8.784468         2    ;  uncertainty k = 0.478984
         5         6        27        28     9        0.000000        0.119276         3    ;  uncertainty k = 0.283810
         5         6        27        28     9      180.000000        1.288078         4    ;  uncertainty k = 0.208847
         5         6        27        48     9        0.000000        0.155297         1    ;  uncertainty k = 0.281422
         5         6        27        48     9      180.000000        6.373831         2    ;  uncertainty k = 0.633801
         5         6        27        48     9        0.000000        1.253627         3    ;  uncertainty k = 0.220579
         5         6        27        48     9      180.000000        1.460767         4    ;  uncertainty k = 0.207379
         6         5         4        34     9        0.000000       -0.099823         1    ;  uncertainty k = 0.241524
         6         5         4        34     9      180.000000        7.800452         2    ;  uncertainty k = 0.321389
         6         5         4        34     9        0.000000        1.212039         3    ;  uncertainty k = 0.364603
         6         5         4        34     9      180.000000        1.643100         4    ;  uncertainty k = 0.155684
         6         7         8         9     9        0.000000        4.357258         1    ;  uncertainty k = 1.295350
         6         7         8         9     9      180.000000       10.761231         2    ;  uncertainty k = 0.242126
         6         7         8         9     9        0.000000        0.681483         3    ;  uncertainty k = 0.302060
         6         7         8         9     9      180.000000       -0.508283         4    ;  uncertainty k = 0.072804
         6         7         8        16     9        0.000000        7.039559         1    ;  uncertainty k = 0.599174
         6         7         8        16     9      180.000000        8.681781         2    ;  uncertainty k = 0.097887
         6         7         8        16     9        0.000000        0.920441         3    ;  uncertainty k = 0.381757
         6         7         8        16     9      180.000000       -0.164553         4    ;  uncertainty k = 0.221364
         6        27        28        29     9        0.000000        0.152072         1    ;  uncertainty k = 0.236865
         6        27        28        29     9      180.000000       11.350413         2    ;  uncertainty k = 0.544002
         6        27        28        29     9        0.000000        1.355669         3    ;  uncertainty k = 0.349766
         6        27        28        29     9      180.000000        1.696486         4    ;  uncertainty k = 0.237430
         7         6         5        35     9        0.000000       -0.291936         1    ;  uncertainty k = 0.233190
         7         6         5        35     9      180.000000        7.944711         2    ;  uncertainty k = 0.164350
         7         6         5        35     9        0.000000        0.918004         3    ;  uncertainty k = 0.228756
         7         6         5        35     9      180.000000        1.083856         4    ;  uncertainty k = 0.164907
         7         6        27        28     9        0.000000        0.148911         1    ;  uncertainty k = 0.574988
         7         6        27        28     9      180.000000        9.899588         2    ;  uncertainty k = 0.247388
         7         6        27        28     9        0.000000        1.000997         3    ;  uncertainty k = 0.351814
         7         6        27        28     9      180.000000        1.610986         4    ;  uncertainty k = 0.137508
         7         6        27        48     9        0.000000       -0.272934         1    ;  uncertainty k = 0.329125
         7         6        27        48     9      180.000000        7.865305         2    ;  uncertainty k = 0.242076
         7         6        27        48     9        0.000000        0.914516         3    ;  uncertainty k = 0.283703
         7         6        27        48     9      180.000000        1.068016         4    ;  uncertainty k = 0.243003
         7         8         9        10     9        0.000000        1.090820         1    ;  uncertainty k = 1.109889
         7         8         9        10     9      180.000000       17.866562         2    ;  uncertainty k = 0.513956
         7         8         9        10     9        0.000000        2.883542         3    ;  uncertainty k = 0.277645
         7         8         9        10     9      180.000000        1.669760         4    ;  uncertainty k = 0.336188
         7         8        16        12     9        0.000000       -0.953522         1    ;  uncertainty k = 0.960772
         7         8        16        12     9      180.000000        5.426483         2    ;  uncertainty k = 0.732995
         7         8        16        12     9        0.000000        0.463830         3    ;  uncertainty k = 0.276198
         7         8        16        12     9      180.000000        0.425035         4    ;  uncertainty k = 0.145521
         7         8        16        15     9        0.000000       -0.723785         1    ;  uncertainty k = 0.708754
         7         8        16        15     9      180.000000        4.584250         2    ;  uncertainty k = 1.077487
         7         8        16        15     9        0.000000        0.569780         3    ;  uncertainty k = 0.418447
         7         8        16        15     9      180.000000        0.322209         4    ;  uncertainty k = 0.225420
         8         7         6        27     9        0.000000        1.597949         1    ;  uncertainty k = 0.980885
         8         7         6        27     9      180.000000        5.574010         2    ;  uncertainty k = 0.231880
         8         7         6        27     9        0.000000        0.917733         3    ;  uncertainty k = 0.237919
         8         7         6        27     9      180.000000        0.218590         4    ;  uncertainty k = 0.147859
         8         9        10        11     9        0.000000        1.058656         1    ;  uncertainty k = 1.484811
         8         9        10        11     9      180.000000        5.503297         2    ;  uncertainty k = 1.315151
         8         9        10        11     9        0.000000        1.034194         3    ;  uncertainty k = 0.837694
         8         9        10        11     9      180.000000        0.527483         4    ;  uncertainty k = 0.543832
         8         9        10        17     9        0.000000        0.880301         1    ;  uncertainty k = 1.388670
         8         9        10        17     9      180.000000        9.199906         2    ;  uncertainty k = 0.846683
         8         9        10        17     9        0.000000        1.713723         3    ;  uncertainty k = 0.715366
         8         9        10        17     9      180.000000        0.417841         4    ;  uncertainty k = 0.353781
         8        16        12        11     9        0.000000       -0.095777         1    ;  uncertainty k = 0.916194
         8        16        12        11     9      180.000000        5.129758         2    ;  uncertainty k = 1.552681
         8        16        12        11     9        0.000000        1.363773         3    ;  uncertainty k = 0.458077
         8        16        12        11     9      180.000000        0.393698         4    ;  uncertainty k = 0.305262
         8        16        12        13     9        0.000000        0.340421         1    ;  uncertainty k = 0.792595
         8        16        12        13     9      180.000000        6.024515         2    ;  uncertainty k = 0.492566
         8        16        12        13     9        0.000000        0.209998         3    ;  uncertainty k = 0.527723
         8        16        12        13     9      180.000000        0.585310         4    ;  uncertainty k = 0.374830
         8        16        15        14     9        0.000000       -0.258736         1    ;  uncertainty k = 0.813751
         8        16        15        14     9      180.000000       16.417004         2    ;  uncertainty k = 0.455553
         8        16        15        14     9        0.000000        0.694004         3    ;  uncertainty k = 0.637623
         8        16        15        14     9      180.000000        1.345365         4    ;  uncertainty k = 0.597909
         9         8         7        36     9        0.000000        8.939438         1    ;  uncertainty k = 0.582137
         9         8         7        36     9      180.000000        9.639750         2    ;  uncertainty k = 0.277514
         9         8         7        36     9        0.000000        1.081612         3    ;  uncertainty k = 0.319111
         9         8         7        36     9      180.000000       -0.052306         4    ;  uncertainty k = 0.140935
         9         8        16        12     9        0.000000       -0.501638         1    ;  uncertainty k = 0.643154
         9         8        16        12     9      180.000000        6.043707         2    ;  uncertainty k = 0.713457
         9         8        16        12     9        0.000000       -0.376906         3    ;  uncertainty k = 0.307047
         9         8        16        12     9      180.000000        0.571777         4    ;  uncertainty k = 0.154244
         9         8        16        15     9        0.000000       -1.438257         1    ;  uncertainty k = 2.229034
         9         8        16        15     9      180.000000        4.486135         2    ;  uncertainty k = 0.582096
         9         8        16        15     9        0.000000        0.444404         3    ;  uncertainty k = 0.413755
         9         8        16        15     9      180.000000        0.392459         4    ;  uncertainty k = 0.300846
         9        10        11        12     9        0.000000       -0.077228         1    ;  uncertainty k = 0.618133
         9        10        11        12     9      180.000000       21.549222         2    ;  uncertainty k = 0.654447
         9        10        11        12     9        0.000000        0.483314         3    ;  uncertainty k = 0.296131
         9        10        11        12     9      180.000000        0.515144         4    ;  uncertainty k = 0.564046
         9        10        11        37     9        0.000000        0.403654         1    ;  uncertainty k = 0.987754
         9        10        11        37     9      180.000000       13.030050         2    ;  uncertainty k = 0.386717
         9        10        11        37     9        0.000000        1.634749         3    ;  uncertainty k = 0.587523
         9        10        11        37     9      180.000000        1.105123         4    ;  uncertainty k = 0.413472
         9        10        17        18     9        0.000000        0.295255         1    ;  uncertainty k = 1.642322
         9        10        17        18     9      180.000000        5.157753         2    ;  uncertainty k = 0.173329
         9        10        17        18     9        0.000000        0.125273         3    ;  uncertainty k = 0.167766
         9        10        17        18     9      180.000000        0.160319         4    ;  uncertainty k = 0.156892
         9        10        17        22     9        0.000000       -1.480220         1    ;  uncertainty k = 1.856627
         9        10        17        22     9      180.000000        5.158395         2    ;  uncertainty k = 0.135777
         9        10        17        22     9        0.000000        0.853577         3    ;  uncertainty k = 0.212707
         9        10        17        22     9      180.000000        0.188761         4    ;  uncertainty k = 0.069256
        10         9         8        16     9        0.000000       -0.104247         1    ;  uncertainty k = 2.343492
        10         9         8        16     9      180.000000       13.611664         2    ;  uncertainty k = 0.619643
        10         9         8        16     9        0.000000        2.494957         3    ;  uncertainty k = 0.912408
        10         9         8        16     9      180.000000        1.336598         4    ;  uncertainty k = 0.358476
        10        11        12        13     9        0.000000        0.601083         1    ;  uncertainty k = 1.670813
        10        11        12        13     9      180.000000        4.689726         2    ;  uncertainty k = 0.583251
        10        11        12        13     9        0.000000        0.672074         3    ;  uncertainty k = 0.316668
        10        11        12        13     9      180.000000        0.347153         4    ;  uncertainty k = 0.059996
        10        11        12        16     9        0.000000       -0.112522         1    ;  uncertainty k = 1.612389
        10        11        12        16     9      180.000000        6.220530         2    ;  uncertainty k = 0.548770
        10        11        12        16     9        0.000000       -0.829564         3    ;  uncertainty k = 0.674867
        10        11        12        16     9      180.000000        0.582353         4    ;  uncertainty k = 0.140198
        10        17        18        19     9        0.000000        0.010151         1    ;  uncertainty k = 0.309378
        10        17        18        19     9      180.000000        9.233161         2    ;  uncertainty k = 0.331603
        10        17        18        19     9        0.000000        1.290911         3    ;  uncertainty k = 0.152732
        10        17        18        19     9      180.000000        1.778820         4    ;  uncertainty k = 0.113614
        10        17        18        40     9        0.000000       -0.033245         1    ;  uncertainty k = 0.405838
        10        17        18        40     9      180.000000        7.675056         2    ;  uncertainty k = 0.158899
        10        17        18        40     9        0.000000        0.858139         3    ;  uncertainty k = 0.266054
        10        17        18        40     9      180.000000        1.381962         4    ;  uncertainty k = 0.150361
        10        17        22        21     9        0.000000        0.267885         1    ;  uncertainty k = 0.281420
        10        17        22        21     9      180.000000        8.199735         2    ;  uncertainty k = 0.615956
        10        17        22        21     9        0.000000        1.459917         3    ;  uncertainty k = 0.347826
        10        17        22        21     9      180.000000        1.634991         4    ;  uncertainty k = 0.290293
        10        17        22        23     9        0.000000       -0.219349         1    ;  uncertainty k = 0.461665
        10        17        22        23     9      180.000000        9.260109         2    ;  uncertainty k = 0.193681
        10        17        22        23     9        0.000000        0.998336         3    ;  uncertainty k = 0.175045
        10        17        22        23     9      180.000000        1.313876         4    ;  uncertainty k = 0.206260
        11        10        17        18     9        0.000000       -0.279650         1    ;  uncertainty k = 0.366100
        11        10        17        18     9      180.000000        4.148094         2    ;  uncertainty k = 0.322151
        11        10        17        18     9        0.000000        1.083557         3    ;  uncertainty k = 0.151790
        11        10        17        18     9      180.000000       -0.188816         4    ;  uncertainty k = 0.150191
        11        10        17        22     9        0.000000        0.424212         1    ;  uncertainty k = 0.394311
        11        10        17        22     9      180.000000        4.106872         2    ;  uncertainty k = 0.182627
        11        10        17        22     9        0.000000        0.091925         3    ;  uncertainty k = 0.347531
        11        10        17        22     9      180.000000        0.043358         4    ;  uncertainty k = 0.088733
        11        12        13        14     9        0.000000        0.222967         1    ;  uncertainty k = 1.277536
        11        12        13        14     9      180.000000        9.637151         2    ;  uncertainty k = 0.771210
        11        12        13        14     9        0.000000        0.398638         3    ;  uncertainty k = 0.762430
        11        12        13        14     9      180.000000        0.579752         4    ;  uncertainty k = 0.326079
        11        12        13        38     9        0.000000        0.509638         1    ;  uncertainty k = 1.282448
        11        12        13        38     9      180.000000        2.810065         2    ;  uncertainty k = 1.404853
        11        12        13        38     9        0.000000        1.223767         3    ;  uncertainty k = 0.382071
        11        12        13        38     9      180.000000        0.134768         4    ;  uncertainty k = 0.115587
        11        12        16        15     9        0.000000        0.325421         1    ;  uncertainty k = 0.593126
        11        12        16        15     9      180.000000        8.706942         2    ;  uncertainty k = 0.548733
        11        12        16        15     9        0.000000        0.450968         3    ;  uncertainty k = 0.414888
        11        12        16        15     9      180.000000        0.894924         4    ;  uncertainty k = 0.222730
        12        11        10        17     9        0.000000        0.511092         1    ;  uncertainty k = 0.334512
        12        11        10        17     9      180.000000       17.690164         2    ;  uncertainty k = 0.474128
        12        11        10        17     9        0.000000        1.840352         3    ;  uncertainty k = 0.441008
        12        11        10        17     9      180.000000        0.738406         4    ;  uncertainty k = 0.265619
        12        13        14        15     9        0.000000       -0.424259         1    ;  uncertainty k = 0.720471
        12        13        14        15     9      180.000000       21.948844         2    ;  uncertainty k = 0.272817
        12        13        14        15     9        0.000000       -9.453916         3    ;  uncertainty k = 0.408148
        12        13        14        15     9      180.000000        1.578950         4    ;  uncertainty k = 0.654473
        12        13        14        39     9        0.000000        0.427385         1    ;  uncertainty k = 0.828520
        12        13        14        39     9      180.000000       13.870598         2    ;  uncertainty k = 0.182398
        12        13        14        39     9        0.000000        1.815389         3    ;  uncertainty k = 0.320275
        12        13        14        39     9      180.000000        0.903574         4    ;  uncertainty k = 0.223948
        12        16        15        14     9        0.000000       -0.698106         1    ;  uncertainty k = 0.543243
        12        16        15        14     9      180.000000       23.970051         2    ;  uncertainty k = 0.495895
        12        16        15        14     9        0.000000      -11.206153         3    ;  uncertainty k = 1.161985
        12        16        15        14     9      180.000000        1.981051         4    ;  uncertainty k = 0.603215
        13        12        11        37     9        0.000000        1.182142         1    ;  uncertainty k = 1.298569
        13        12        11        37     9      180.000000        2.914007         2    ;  uncertainty k = 1.079269
        13        12        11        37     9        0.000000        1.027577         3    ;  uncertainty k = 0.508125
        13        12        11        37     9      180.000000        0.183043         4    ;  uncertainty k = 0.168357
        13        12        16        15     9        0.000000       -0.600194         1    ;  uncertainty k = 0.427509
        13        12        16        15     9      180.000000       12.032075         2    ;  uncertainty k = 0.540572
        13        12        16        15     9        0.000000       -4.884606         3    ;  uncertainty k = 1.243656
        13        12        16        15     9      180.000000        1.176890         4    ;  uncertainty k = 0.463084
        13        14        15        16     9        0.000000       -0.719371         1    ;  uncertainty k = 0.806440
        13        14        15        16     9      180.000000       16.306391         2    ;  uncertainty k = 0.372137
        13        14        15        16     9        0.000000       -5.546726         3    ;  uncertainty k = 0.784851
        13        14        15        16     9      180.000000        2.138755         4    ;  uncertainty k = 0.319469
        14        13        12        16     9        0.000000        0.425340         1    ;  uncertainty k = 0.911889
        14        13        12        16     9      180.000000       13.121731         2    ;  uncertainty k = 1.266973
        14        13        12        16     9        0.000000      -13.119121         3    ;  uncertainty k = 1.817832
        14        13        12        16     9      180.000000        1.693366         4    ;  uncertainty k = 0.377703
        15        14        13        38     9        0.000000       -0.210816         1    ;  uncertainty k = 0.409317
        15        14        13        38     9      180.000000       14.525462         2    ;  uncertainty k = 0.474526
        15        14        13        38     9        0.000000        1.399988         3    ;  uncertainty k = 0.472591
        15        14        13        38     9      180.000000        0.597840         4    ;  uncertainty k = 0.116226
        16         8         7        36     9        0.000000        5.299478         1    ;  uncertainty k = 1.071663
        16         8         7        36     9      180.000000        6.121003         2    ;  uncertainty k = 0.320629
        16         8         7        36     9        0.000000        1.371092         3    ;  uncertainty k = 0.426496
        16         8         7        36     9      180.000000       -0.017304         4    ;  uncertainty k = 0.216319
        16        12        11        37     9        0.000000        1.193659         1    ;  uncertainty k = 1.481057
        16        12        11        37     9      180.000000        4.290193         2    ;  uncertainty k = 0.571382
        16        12        11        37     9        0.000000        1.128229         3    ;  uncertainty k = 0.356627
        16        12        11        37     9      180.000000        0.204735         4    ;  uncertainty k = 0.121348
        16        12        13        38     9        0.000000        0.337817         1    ;  uncertainty k = 0.998522
        16        12        13        38     9      180.000000        7.392009         2    ;  uncertainty k = 0.385665
        16        12        13        38     9        0.000000        1.061986         3    ;  uncertainty k = 0.365239
        16        12        13        38     9      180.000000        0.171583         4    ;  uncertainty k = 0.281010
        16        15        14        39     9        0.000000       -0.095585         1    ;  uncertainty k = 0.393922
        16        15        14        39     9      180.000000       14.177386         2    ;  uncertainty k = 0.352374
        16        15        14        39     9        0.000000        1.588169         3    ;  uncertainty k = 0.688227
        16        15        14        39     9      180.000000        0.904862         4    ;  uncertainty k = 0.448977
        17        10        11        37     9        0.000000       -0.036084         1    ;  uncertainty k = 0.270201
        17        10        11        37     9      180.000000        9.659704         2    ;  uncertainty k = 0.517815
        17        10        11        37     9        0.000000        1.542490         3    ;  uncertainty k = 0.369941
        17        10        11        37     9      180.000000        0.950643         4    ;  uncertainty k = 0.184572
        17        18        19        20     9        0.000000        0.037524         1    ;  uncertainty k = 0.116076
        17        18        19        20     9      180.000000       10.373486         2    ;  uncertainty k = 0.239609
        17        18        19        20     9        0.000000       -0.389412         3    ;  uncertainty k = 0.400799
        17        18        19        20     9      180.000000        1.096155         4    ;  uncertainty k = 0.265315
        17        18        19        24     9        0.000000        0.471644         1    ;  uncertainty k = 0.235594
        17        18        19        24     9      180.000000        8.500101         2    ;  uncertainty k = 0.574761
        17        18        19        24     9        0.000000        1.525473         3    ;  uncertainty k = 0.202327
        17        18        19        24     9      180.000000        1.928245         4    ;  uncertainty k = 0.282273
        17        22        21        20     9        0.000000        0.084960         1    ;  uncertainty k = 0.179636
        17        22        21        20     9      180.000000       10.499661         2    ;  uncertainty k = 0.502346
        17        22        21        20     9        0.000000        0.078439         3    ;  uncertainty k = 0.205600
        17        22        21        20     9      180.000000        1.093249         4    ;  uncertainty k = 0.387409
        17        22        21        42     9        0.000000        0.118837         1    ;  uncertainty k = 0.286166
        17        22        21        42     9      180.000000        7.403462         2    ;  uncertainty k = 0.425882
        17        22        21        42     9        0.000000        1.529731         3    ;  uncertainty k = 0.186855
        17        22        21        42     9      180.000000        1.659823         4    ;  uncertainty k = 0.110581
        17        22        23        43     9        0.000000        0.110832         1    ;  uncertainty k = 0.276958
        17        22        23        43     9      180.000000        2.069242         2    ;  uncertainty k = 0.168627
        17        22        23        43     9        0.000000        0.481634         3    ;  uncertainty k = 0.121735
        17        22        23        43     9      180.000000        0.330745         4    ;  uncertainty k = 0.061178
        17        22        23        44     9        0.000000        0.110832         1    ;  uncertainty k = 0.276958
        17        22        23        44     9      180.000000        2.069242         2    ;  uncertainty k = 0.168627
        17        22        23        44     9        0.000000        0.481634         3    ;  uncertainty k = 0.121735
        17        22        23        44     9      180.000000        0.330745         4    ;  uncertainty k = 0.061178
        17        22        23        45     9        0.000000        0.110832         1    ;  uncertainty k = 0.276958
        17        22        23        45     9      180.000000        2.069242         2    ;  uncertainty k = 0.168627
        17        22        23        45     9        0.000000        0.481634         3    ;  uncertainty k = 0.121735
        17        22        23        45     9      180.000000        0.330745         4    ;  uncertainty k = 0.061178
        18        17        22        21     9        0.000000       -0.101990         1    ;  uncertainty k = 0.441424
        18        17        22        21     9      180.000000        7.647498         2    ;  uncertainty k = 0.339004
        18        17        22        21     9        0.000000        0.133891         3    ;  uncertainty k = 0.112476
        18        17        22        21     9      180.000000        1.211890         4    ;  uncertainty k = 0.273776
        18        17        22        23     9        0.000000        0.011099         1    ;  uncertainty k = 0.277367
        18        17        22        23     9      180.000000        7.237372         2    ;  uncertainty k = 0.602370
        18        17        22        23     9        0.000000        1.209936         3    ;  uncertainty k = 0.216928
        18        17        22        23     9      180.000000        1.786280         4    ;  uncertainty k = 0.292630
        18        19        20        21     9        0.000000       -0.040026         1    ;  uncertainty k = 0.115842
        18        19        20        21     9      180.000000       10.864823         2    ;  uncertainty k = 0.357915
        18        19        20        21     9        0.000000       -0.842319         3    ;  uncertainty k = 0.188668
        18        19        20        21     9      180.000000        0.940814         4    ;  uncertainty k = 0.241670
        18        19        20        41     9        0.000000        0.286685         1    ;  uncertainty k = 0.237370
        18        19        20        41     9      180.000000        7.046252         2    ;  uncertainty k = 0.487517
        18        19        20        41     9        0.000000        1.253100         3    ;  uncertainty k = 0.313798
        18        19        20        41     9      180.000000        1.687775         4    ;  uncertainty k = 0.256221
        18        19        24        25     9        0.000000       -0.989296         1    ;  uncertainty k = 0.563936
        18        19        24        25     9      180.000000        3.419718         2    ;  uncertainty k = 0.182919
        18        19        24        25     9        0.000000        0.286119         3    ;  uncertainty k = 0.163872
        18        19        24        25     9      180.000000       -0.063185         4    ;  uncertainty k = 0.038613
        18        19        24        26     9        0.000000        0.109275         1    ;  uncertainty k = 0.369592
        18        19        24        26     9      180.000000        3.705230         2    ;  uncertainty k = 0.150381
        18        19        24        26     9        0.000000        0.267280         3    ;  uncertainty k = 0.123295
        18        19        24        26     9      180.000000       -0.088954         4    ;  uncertainty k = 0.065035
        19        18        17        22     9        0.000000       -0.000499         1    ;  uncertainty k = 0.295426
        19        18        17        22     9      180.000000        9.163140         2    ;  uncertainty k = 0.539602
        19        18        17        22     9        0.000000        0.325653         3    ;  uncertainty k = 0.258699
        19        18        17        22     9      180.000000        1.221714         4    ;  uncertainty k = 0.342079
        19        20        21        22     9        0.000000       -0.107298         1    ;  uncertainty k = 0.316717
        19        20        21        22     9      180.000000       12.023152         2    ;  uncertainty k = 0.341519
        19        20        21        22     9        0.000000       -0.549266         3    ;  uncertainty k = 0.415931
        19        20        21        22     9      180.000000        1.002783         4    ;  uncertainty k = 0.286546
        19        20        21        42     9        0.000000       -0.054989         1    ;  uncertainty k = 0.180415
        19        20        21        42     9      180.000000        8.474944         2    ;  uncertainty k = 0.356181
        19        20        21        42     9        0.000000        1.322965         3    ;  uncertainty k = 0.165070
        19        20        21        42     9      180.000000        1.828674         4    ;  uncertainty k = 0.200018
        19        24        26        46     9        0.000000        0.921953         1    ;  uncertainty k = 1.407941
        19        24        26        46     9      180.000000        8.666446         2    ;  uncertainty k = 0.397245
        19        24        26        46     9        0.000000        3.368687         3    ;  uncertainty k = 0.248487
        19        24        26        46     9      180.000000       -0.329772         4    ;  uncertainty k = 0.397996
        19        24        26        47     9        0.000000        0.921953         1    ;  uncertainty k = 1.407941
        19        24        26        47     9      180.000000        8.666446         2    ;  uncertainty k = 0.397245
        19        24        26        47     9        0.000000        3.368687         3    ;  uncertainty k = 0.248487
        19        24        26        47     9      180.000000       -0.329772         4    ;  uncertainty k = 0.397996
        20        19        18        40     9        0.000000        0.244895         1    ;  uncertainty k = 0.254923
        20        19        18        40     9      180.000000        7.461449         2    ;  uncertainty k = 0.355567
        20        19        18        40     9        0.000000        1.222848         3    ;  uncertainty k = 0.259535
        20        19        18        40     9      180.000000        1.685088         4    ;  uncertainty k = 0.263350
        20        19        24        25     9        0.000000       -1.241647         1    ;  uncertainty k = 0.393154
        20        19        24        25     9      180.000000        3.598121         2    ;  uncertainty k = 0.188593
        20        19        24        25     9        0.000000        0.290850         3    ;  uncertainty k = 0.153749
        20        19        24        25     9      180.000000       -0.092151         4    ;  uncertainty k = 0.077584
        20        19        24        26     9        0.000000        0.324498         1    ;  uncertainty k = 0.248723
        20        19        24        26     9      180.000000        3.679303         2    ;  uncertainty k = 0.149241
        20        19        24        26     9        0.000000        0.305570         3    ;  uncertainty k = 0.080099
        20        19        24        26     9      180.000000       -0.054373         4    ;  uncertainty k = 0.061632
        20        21        22        23     9        0.000000        0.024913         1    ;  uncertainty k = 0.269999
        20        21        22        23     9      180.000000        9.663200         2    ;  uncertainty k = 0.464706
        20        21        22        23     9        0.000000        1.397921         3    ;  uncertainty k = 0.225007
        20        21        22        23     9      180.000000        1.811980         4    ;  uncertainty k = 0.221059
        21        20        19        24     9        0.000000        0.352321         1    ;  uncertainty k = 0.302794
        21        20        19        24     9      180.000000        8.828354         2    ;  uncertainty k = 0.806286
        21        20        19        24     9        0.000000        1.382008         3    ;  uncertainty k = 0.334484
        21        20        19        24     9      180.000000        1.865543         4    ;  uncertainty k = 0.301458
        21        22        23        43     9        0.000000       -0.196593         1    ;  uncertainty k = 0.202647
        21        22        23        43     9      180.000000        1.760741         2    ;  uncertainty k = 0.229676
        21        22        23        43     9        0.000000        0.412534         3    ;  uncertainty k = 0.092644
        21        22        23        43     9      180.000000        0.256493         4    ;  uncertainty k = 0.033164
        21        22        23        44     9        0.000000       -0.196593         1    ;  uncertainty k = 0.202647
        21        22        23        44     9      180.000000        1.760741         2    ;  uncertainty k = 0.229676
        21        22        23        44     9        0.000000        0.412534         3    ;  uncertainty k = 0.092644
        21        22        23        44     9      180.000000        0.256493         4    ;  uncertainty k = 0.033164
        21        22        23        45     9        0.000000       -0.196593         1    ;  uncertainty k = 0.202647
        21        22        23        45     9      180.000000        1.760741         2    ;  uncertainty k = 0.229676
        21        22        23        45     9        0.000000        0.412534         3    ;  uncertainty k = 0.092644
        21        22        23        45     9      180.000000        0.256493         4    ;  uncertainty k = 0.033164
        22        17        18        40     9        0.000000        0.112503         1    ;  uncertainty k = 0.199837
        22        17        18        40     9      180.000000        7.185503         2    ;  uncertainty k = 0.403332
        22        17        18        40     9        0.000000        1.339573         3    ;  uncertainty k = 0.188738
        22        17        18        40     9      180.000000        1.663666         4    ;  uncertainty k = 0.115688
        22        21        20        41     9        0.000000        0.053169         1    ;  uncertainty k = 0.233489
        22        21        20        41     9      180.000000        7.002379         2    ;  uncertainty k = 0.362024
        22        21        20        41     9        0.000000        1.404024         3    ;  uncertainty k = 0.229643
        22        21        20        41     9      180.000000        1.853092         4    ;  uncertainty k = 0.149340
        23        22        21        42     9        0.000000       -0.314380         1    ;  uncertainty k = 0.365807
        23        22        21        42     9      180.000000        8.559105         2    ;  uncertainty k = 0.283020
        23        22        21        42     9        0.000000        0.431622         3    ;  uncertainty k = 0.186692
        23        22        21        42     9      180.000000        1.050760         4    ;  uncertainty k = 0.137577
        24        19        18        40     9        0.000000        0.111056         1    ;  uncertainty k = 0.722081
        24        19        18        40     9      180.000000        8.052292         2    ;  uncertainty k = 0.557238
        24        19        18        40     9        0.000000        1.103534         3    ;  uncertainty k = 0.300218
        24        19        18        40     9      180.000000        1.243326         4    ;  uncertainty k = 0.305722
        24        19        20        41     9        0.000000        0.004819         1    ;  uncertainty k = 0.438886
        24        19        20        41     9      180.000000        7.953173         2    ;  uncertainty k = 0.582388
        24        19        20        41     9        0.000000        1.013013         3    ;  uncertainty k = 0.230580
        24        19        20        41     9      180.000000        1.112260         4    ;  uncertainty k = 0.246352
        25        24        26        46     9        0.000000        4.783230         1    ;  uncertainty k = 0.839720
        25        24        26        46     9      180.000000       11.488317         2    ;  uncertainty k = 0.256153
        25        24        26        46     9        0.000000        1.944351         3    ;  uncertainty k = 0.153790
        25        24        26        46     9      180.000000        0.205964         4    ;  uncertainty k = 0.379269
        25        24        26        47     9        0.000000        4.783230         1    ;  uncertainty k = 0.839720
        25        24        26        47     9      180.000000       11.488317         2    ;  uncertainty k = 0.256153
        25        24        26        47     9        0.000000        1.944351         3    ;  uncertainty k = 0.153790
        25        24        26        47     9      180.000000        0.205964         4    ;  uncertainty k = 0.379269
        27         6         5        35     9        0.000000        0.060116         1    ;  uncertainty k = 0.285327
        27         6         5        35     9      180.000000        6.705137         2    ;  uncertainty k = 0.811645
        27         6         5        35     9        0.000000        1.254749         3    ;  uncertainty k = 0.282861
        27         6         5        35     9      180.000000        1.489480         4    ;  uncertainty k = 0.123486
        27         6         7        36     9        0.000000        3.766903         1    ;  uncertainty k = 0.282406
        27         6         7        36     9      180.000000        4.224135         2    ;  uncertainty k = 0.219472
        27         6         7        36     9        0.000000        0.731781         3    ;  uncertainty k = 0.239894
        27         6         7        36     9      180.000000        0.435986         4    ;  uncertainty k = 0.107235
        27        28        29        30     9        0.000000        1.341409         1    ;  uncertainty k = 0.791973
        27        28        29        30     9      180.000000        6.361826         2    ;  uncertainty k = 0.220151
        27        28        29        30     9        0.000000       -0.225719         3    ;  uncertainty k = 0.095998
        27        28        29        30     9      180.000000        0.006631         4    ;  uncertainty k = 0.110606
        28         3         4        34     9        0.000000       -0.032441         1    ;  uncertainty k = 0.368382
        28         3         4        34     9      180.000000        5.959632         2    ;  uncertainty k = 0.432853
        28         3         4        34     9        0.000000        1.321132         3    ;  uncertainty k = 0.261791
        28         3         4        34     9      180.000000        1.598351         4    ;  uncertainty k = 0.068542
        28        29        30        49     9        0.000000        1.110243         1    ;  uncertainty k = 0.221947
        28        29        30        49     9      180.000000       -2.083404         2    ;  uncertainty k = 0.117430
        28        29        30        49     9        0.000000        1.033193         3    ;  uncertainty k = 0.049823
        28        29        30        49     9      180.000000        0.223294         4    ;  uncertainty k = 0.039928
        28        29        30        50     9        0.000000        1.110243         1    ;  uncertainty k = 0.221947
        28        29        30        50     9      180.000000       -2.083404         2    ;  uncertainty k = 0.117430
        28        29        30        50     9        0.000000        1.033193         3    ;  uncertainty k = 0.049823
        28        29        30        50     9      180.000000        0.223294         4    ;  uncertainty k = 0.039928
        28        29        30        51     9        0.000000        1.110243         1    ;  uncertainty k = 0.221947
        28        29        30        51     9      180.000000       -2.083404         2    ;  uncertainty k = 0.117430
        28        29        30        51     9        0.000000        1.033193         3    ;  uncertainty k = 0.049823
        28        29        30        51     9      180.000000        0.223294         4    ;  uncertainty k = 0.039928
        29        28        27        48     9        0.000000       -0.013362         1    ;  uncertainty k = 0.227812
        29        28        27        48     9      180.000000        9.629865         2    ;  uncertainty k = 0.341224
        29        28        27        48     9        0.000000        0.885574         3    ;  uncertainty k = 0.134168
        29        28        27        48     9      180.000000        1.294493         4    ;  uncertainty k = 0.314813
        34         4         5        35     9        0.000000       -0.108356         1    ;  uncertainty k = 0.187628
        34         4         5        35     9      180.000000        7.451232         2    ;  uncertainty k = 0.478631
        34         4         5        35     9        0.000000       -0.297348         3    ;  uncertainty k = 0.298879
        34         4         5        35     9      180.000000        0.257401         4    ;  uncertainty k = 0.173209
        38        13        14        39     9        0.000000       -0.311075         1    ;  uncertainty k = 0.492452
        38        13        14        39     9      180.000000        5.384358         2    ;  uncertainty k = 0.598235
        38        13        14        39     9        0.000000        1.243313         3    ;  uncertainty k = 0.430720
        38        13        14        39     9      180.000000        0.271791         4    ;  uncertainty k = 0.092256
        41        20        21        42     9        0.000000       -0.154943         1    ;  uncertainty k = 0.183488
        41        20        21        42     9      180.000000        7.976253         2    ;  uncertainty k = 0.360426
        41        20        21        42     9        0.000000       -0.380078         3    ;  uncertainty k = 0.197412
        41        20        21        42     9      180.000000        0.260271         4    ;  uncertainty k = 0.181090

[ dihedrals ] ; impropers
;       ai        aj        ak        al funct           phase               k        pn
         3         2         4        28     4      180.000000       15.206029         2    ;  uncertainty k = 0.074967
         3         4        28         2     4      180.000000       15.206029         2    ;  uncertainty k = 0.074967
         3        28         2         4     4      180.000000       15.206029         2    ;  uncertainty k = 0.074967
         4         3         5        34     4      180.000000        2.008335         2    ;  uncertainty k = 0.230964
         4         5        34         3     4      180.000000        2.008335         2    ;  uncertainty k = 0.230964
         4        34         3         5     4      180.000000        2.008335         2    ;  uncertainty k = 0.230964
         5         4         6        35     4      180.000000        2.607477         2    ;  uncertainty k = 0.379217
         5         6        35         4     4      180.000000        2.607477         2    ;  uncertainty k = 0.379217
         5        35         4         6     4      180.000000        2.607477         2    ;  uncertainty k = 0.379217
         6         5         7        27     4      180.000000       17.507517         2    ;  uncertainty k = 0.057196
         6         7        27         5     4      180.000000       17.507517         2    ;  uncertainty k = 0.057196
         6        27         5         7     4      180.000000       17.507517         2    ;  uncertainty k = 0.057196
         7         6         8        36     4      180.000000        1.622505         2    ;  uncertainty k = 0.666333
         7         8        36         6     4      180.000000        1.622505         2    ;  uncertainty k = 0.666333
         7        36         6         8     4      180.000000        1.622505         2    ;  uncertainty k = 0.666333
         8         7         9        16     4      180.000000       28.375862         2    ;  uncertainty k = 0.058214
         8         9        16         7     4      180.000000       28.375862         2    ;  uncertainty k = 0.058214
         8        16         7         9     4      180.000000       28.375862         2    ;  uncertainty k = 0.058214
        10         9        11        17     4      180.000000       20.122817         2    ;  uncertainty k = 0.071177
        10        11        17         9     4      180.000000       20.122817         2    ;  uncertainty k = 0.071177
        10        17         9        11     4      180.000000       20.122817         2    ;  uncertainty k = 0.071177
        11        10        12        37     4      180.000000        1.389508         2    ;  uncertainty k = 1.216760
        11        12        37        10     4      180.000000        1.389508         2    ;  uncertainty k = 1.216760
        11        37        10        12     4      180.000000        1.389508         2    ;  uncertainty k = 1.216760
        12        11        13        16     4      180.000000        1.614877         2    ;  uncertainty k = 1.312170
        12        13        16        11     4      180.000000        1.614877         2    ;  uncertainty k = 1.312170
        12        16        11        13     4      180.000000        1.614877         2    ;  uncertainty k = 1.312170
        13        12        14        38     4      180.000000        0.105195         2    ;  uncertainty k = 0.235223
        13        14        38        12     4      180.000000        0.105195         2    ;  uncertainty k = 0.235223
        13        38        12        14     4      180.000000        0.105195         2    ;  uncertainty k = 0.235223
        14        13        15        39     4      180.000000        1.779602         2    ;  uncertainty k = 0.230154
        14        15        39        13     4      180.000000        1.779602         2    ;  uncertainty k = 0.230154
        14        39        13        15     4      180.000000        1.779602         2    ;  uncertainty k = 0.230154
        16         8        12        15     4      180.000000        2.165381         2    ;  uncertainty k = 0.627947
        16        12        15         8     4      180.000000        2.165381         2    ;  uncertainty k = 0.627947
        16        15         8        12     4      180.000000        2.165381         2    ;  uncertainty k = 0.627947
        17        10        18        22     4      180.000000       11.630767         2    ;  uncertainty k = 0.160563
        17        18        22        10     4      180.000000       11.630767         2    ;  uncertainty k = 0.160563
        17        22        10        18     4      180.000000       11.630767         2    ;  uncertainty k = 0.160563
        18        17        19        40     4      180.000000        4.328393         2    ;  uncertainty k = 0.292643
        18        19        40        17     4      180.000000        4.328393         2    ;  uncertainty k = 0.292643
        18        40        17        19     4      180.000000        4.328393         2    ;  uncertainty k = 0.292643
        19        18        20        24     4      180.000000        6.560276         2    ;  uncertainty k = 0.196772
        19        20        24        18     4      180.000000        6.560276         2    ;  uncertainty k = 0.196772
        19        24        18        20     4      180.000000        6.560276         2    ;  uncertainty k = 0.196772
        20        19        21        41     4      180.000000        4.329601         2    ;  uncertainty k = 0.232863
        20        21        41        19     4      180.000000        4.329601         2    ;  uncertainty k = 0.232863
        20        41        19        21     4      180.000000        4.329601         2    ;  uncertainty k = 0.232863
        21        20        22        42     4      180.000000        2.544221         2    ;  uncertainty k = 0.281416
        21        22        42        20     4      180.000000        2.544221         2    ;  uncertainty k = 0.281416
        21        42        20        22     4      180.000000        2.544221         2    ;  uncertainty k = 0.281416
        22        17        21        23     4      180.000000       17.344815         2    ;  uncertainty k = 0.088017
        22        21        23        17     4      180.000000       17.344815         2    ;  uncertainty k = 0.088017
        22        23        17        21     4      180.000000       17.344815         2    ;  uncertainty k = 0.088017
        24        19        25        26     4      180.000000       53.604052         2    ;  uncertainty k = 0.046633
        24        25        26        19     4      180.000000       53.604052         2    ;  uncertainty k = 0.046633
        24        26        19        25     4      180.000000       53.604052         2    ;  uncertainty k = 0.046633
        27         6        28        48     4      180.000000        1.689049         2    ;  uncertainty k = 0.529654
        27        28        48         6     4      180.000000        1.689049         2    ;  uncertainty k = 0.529654
        27        48         6        28     4      180.000000        1.689049         2    ;  uncertainty k = 0.529654
        28         3        27        29     4      180.000000       16.672261         2    ;  uncertainty k = 0.075717
        28        27        29         3     4      180.000000       16.672261         2    ;  uncertainty k = 0.075717
        28        29         3        27     4      180.000000       16.672261         2    ;  uncertainty k = 0.075717

[ pairs ]
;       ai        aj funct
         1         4     1
         1        28     1
         2         5     1
         2        27     1
         2        29     1
         2        34     1
         3         6     1
         3        30     1
         3        31     1
         3        32     1
         3        33     1
         3        35     1
         3        48     1
         4         7     1
         4        27     1
         4        29     1
         5         8     1
         5        28     1
         5        36     1
         5        48     1
         6         9     1
         6        16     1
         6        29     1
         6        34     1
         7        10     1
         7        12     1
         7        15     1
         7        28     1
         7        35     1
         7        48     1
         8        11     1
         8        13     1
         8        14     1
         8        17     1
         8        27     1
         9        12     1
         9        15     1
         9        18     1
         9        22     1
         9        36     1
         9        37     1
        10        13     1
        10        16     1
        10        19     1
        10        21     1
        10        23     1
        10        40     1
        11        14     1
        11        15     1
        11        18     1
        11        22     1
        11        38     1
        12        17     1
        12        39     1
        13        37     1
        15        38     1
        16        36     1
        16        37     1
        16        38     1
        16        39     1
        17        20     1
        17        24     1
        17        37     1
        17        42     1
        17        43     1
        17        44     1
        17        45     1
        18        21     1
        18        23     1
        18        25     1
        18        26     1
        18        41     1
        19        22     1
        19        42     1
        19        46     1
        19        47     1
        20        23     1
        20        25     1
        20        26     1
        20        40     1
        21        24     1
        21        43     1
        21        44     1
        21        45     1
        22        40     1
        22        41     1
        23        42     1
        24        40     1
        24        41     1
        25        46     1
        25        47     1
        27        30     1
        27        35     1
        27        36     1
        28        34     1
        28        49     1
        28        50     1
        28        51     1
        29        48     1
        34        35     1
        38        39     1
        41        42     1
