; ITP file created by ByteFF-joint-25, 2026-02-17 09:42:33.757239

[ atomtypes ]
;name           bonded.type        at.num        mass        charge   ptype           sigma         epsilon
 c0bf                                   6      0.0000       0.00000       A     3.39778e-01     4.51148e-01    ;  uncertainty sigma = 0.000008, epsilon = 0.000607
 n1bf                                   7      0.0000       0.00000       A     3.27005e-01     4.90070e-01    ;  uncertainty sigma = 0.000020, epsilon = 0.001640
 c2bf                                   6      0.0000       0.00000       A     3.31537e-01     4.12966e-01    ;  uncertainty sigma = 0.000012, epsilon = 0.000657
 o3bf                                   8      0.0000       0.00000       A     3.04817e-01     6.12303e-01    ;  uncertainty sigma = 0.000016, epsilon = 0.001488
 c4bf                                   6      0.0000       0.00000       A     3.31501e-01     4.13360e-01    ;  uncertainty sigma = 0.000007, epsilon = 0.001010
 c5bf                                   6      0.0000       0.00000       A     3.31519e-01     4.13481e-01    ;  uncertainty sigma = 0.000003, epsilon = 0.000622
 c6bf                                   6      0.0000       0.00000       A     3.31516e-01     4.13332e-01    ;  uncertainty sigma = 0.000003, epsilon = 0.000561
 c7bf                                   6      0.0000       0.00000       A     3.31521e-01     4.13297e-01    ;  uncertainty sigma = 0.000006, epsilon = 0.000668
 c8bf                                   6      0.0000       0.00000       A     3.31506e-01     4.13271e-01    ;  uncertainty sigma = 0.000014, epsilon = 0.000878
 c9bf                                   6      0.0000       0.00000       A     3.31526e-01     4.13272e-01    ;  uncertainty sigma = 0.000015, epsilon = 0.000848
 c10bf                                  6      0.0000       0.00000       A     3.31556e-01     4.13456e-01    ;  uncertainty sigma = 0.000023, epsilon = 0.000743
 c11bf                                  6      0.0000       0.00000       A     3.31559e-01     4.13603e-01    ;  uncertainty sigma = 0.000013, epsilon = 0.001559
 n12bf                                  7      0.0000       0.00000       A     3.20547e-01     8.53303e-01    ;  uncertainty sigma = 0.000017, epsilon = 0.000844
 c13bf                                  6      0.0000       0.00000       A     3.31503e-01     4.12978e-01    ;  uncertainty sigma = 0.000012, epsilon = 0.001136
 c14bf                                  6      0.0000       0.00000       A     3.31531e-01     4.13187e-01    ;  uncertainty sigma = 0.000008, epsilon = 0.000700
 n15bf                                  7      0.0000       0.00000       A     3.38427e-01     3.92895e-01    ;  uncertainty sigma = 0.000039, epsilon = 0.000415
 c16bf                                  6      0.0000       0.00000       A     3.31554e-01     4.12537e-01    ;  uncertainty sigma = 0.000015, epsilon = 0.000432
 c17bf                                  6      0.0000       0.00000       A     3.31526e-01     4.13887e-01    ;  uncertainty sigma = 0.000017, epsilon = 0.001682
 n18bf                                  7      0.0000       0.00000       A     3.27852e-01     6.46168e-01    ;  uncertainty sigma = 0.000043, epsilon = 0.003219
 c19bf                                  6      0.0000       0.00000       A     3.31528e-01     4.13588e-01    ;  uncertainty sigma = 0.000010, epsilon = 0.000818
 c20bf                                  6      0.0000       0.00000       A     3.31525e-01     4.13354e-01    ;  uncertainty sigma = 0.000006, epsilon = 0.000662
 c21bf                                  6      0.0000       0.00000       A     3.31529e-01     4.13639e-01    ;  uncertainty sigma = 0.000005, epsilon = 0.000792
 c22bf                                  6      0.0000       0.00000       A     3.31526e-01     4.13474e-01    ;  uncertainty sigma = 0.000006, epsilon = 0.000721
 o23bf                                  8      0.0000       0.00000       A     3.15641e-01     3.03850e-01    ;  uncertainty sigma = 0.000015, epsilon = 0.000455
 c24bf                                  6      0.0000       0.00000       A     3.39774e-01     4.50890e-01    ;  uncertainty sigma = 0.000006, epsilon = 0.000513
 c25bf                                  6      0.0000       0.00000       A     3.31531e-01     4.13728e-01    ;  uncertainty sigma = 0.000008, epsilon = 0.001049
 o26bf                                  8      0.0000       0.00000       A     3.15636e-01     3.03949e-01    ;  uncertainty sigma = 0.000015, epsilon = 0.000670
 c27bf                                  6      0.0000       0.00000       A     3.39774e-01     4.50890e-01    ;  uncertainty sigma = 0.000006, epsilon = 0.000513
 c28bf                                  6      0.0000       0.00000       A     3.31516e-01     4.13129e-01    ;  uncertainty sigma = 0.000010, epsilon = 0.000957
 n29bf                                  7      0.0000       0.00000       A     3.38466e-01     3.93319e-01    ;  uncertainty sigma = 0.000031, epsilon = 0.000671
 h30bf                                  1      0.0000       0.00000       A     2.42204e-01     8.66942e-02    ;  uncertainty sigma = 0.000014, epsilon = 0.000595
 h31bf                                  1      0.0000       0.00000       A     2.42204e-01     8.66942e-02    ;  uncertainty sigma = 0.000014, epsilon = 0.000595
 h32bf                                  1      0.0000       0.00000       A     2.42204e-01     8.66942e-02    ;  uncertainty sigma = 0.000014, epsilon = 0.000595
 h33bf                                  1      0.0000       0.00000       A     1.10718e-01     4.14284e-02    ;  uncertainty sigma = 0.000071, epsilon = 0.000519
 h34bf                                  1      0.0000       0.00000       A     2.62550e-01     6.70182e-02    ;  uncertainty sigma = 0.000010, epsilon = 0.000665
 h35bf                                  1      0.0000       0.00000       A     2.62563e-01     6.70148e-02    ;  uncertainty sigma = 0.000010, epsilon = 0.000410
 h36bf                                  1      0.0000       0.00000       A     2.62560e-01     6.70283e-02    ;  uncertainty sigma = 0.000012, epsilon = 0.000523
 h37bf                                  1      0.0000       0.00000       A     2.62559e-01     6.73324e-02    ;  uncertainty sigma = 0.000013, epsilon = 0.000843
 h38bf                                  1      0.0000       0.00000       A     2.53612e-01     6.73648e-02    ;  uncertainty sigma = 0.000081, epsilon = 0.000889
 h39bf                                  1      0.0000       0.00000       A     2.53649e-01     6.68496e-02    ;  uncertainty sigma = 0.000023, epsilon = 0.000657
 h40bf                                  1      0.0000       0.00000       A     2.53645e-01     6.69491e-02    ;  uncertainty sigma = 0.000020, epsilon = 0.000834
 h41bf                                  1      0.0000       0.00000       A     1.10708e-01     4.06501e-02    ;  uncertainty sigma = 0.000118, epsilon = 0.000465
 h42bf                                  1      0.0000       0.00000       A     2.62564e-01     6.70247e-02    ;  uncertainty sigma = 0.000015, epsilon = 0.000426
 h43bf                                  1      0.0000       0.00000       A     2.62570e-01     6.70700e-02    ;  uncertainty sigma = 0.000012, epsilon = 0.000330
 h44bf                                  1      0.0000       0.00000       A     2.42205e-01     8.67537e-02    ;  uncertainty sigma = 0.000015, epsilon = 0.000624
 h45bf                                  1      0.0000       0.00000       A     2.42205e-01     8.67537e-02    ;  uncertainty sigma = 0.000015, epsilon = 0.000624
 h46bf                                  1      0.0000       0.00000       A     2.42205e-01     8.67537e-02    ;  uncertainty sigma = 0.000015, epsilon = 0.000624
 h47bf                                  1      0.0000       0.00000       A     2.42205e-01     8.67537e-02    ;  uncertainty sigma = 0.000015, epsilon = 0.000624
 h48bf                                  1      0.0000       0.00000       A     2.42205e-01     8.67539e-02    ;  uncertainty sigma = 0.000015, epsilon = 0.000624
 h49bf                                  1      0.0000       0.00000       A     2.42205e-01     8.67538e-02    ;  uncertainty sigma = 0.000015, epsilon = 0.000624
 h50bf                                  1      0.0000       0.00000       A     2.62560e-01     6.71372e-02    ;  uncertainty sigma = 0.000017, epsilon = 0.000539

[ moleculetype ]
;name             nrexcl
 MOL                   3

[ atoms ]
;       nr            type      resi   res      atom      cgnr      charge          mass ; qtot
         1            c0bf         1   UNL        c0         1     0.08607       12.0110 ; qtot    0.086
         2            n1bf         1   UNL        n1         2    -0.57178       14.0070 ; qtot   -0.486
         3            c2bf         1   UNL        c2         3     0.66933       12.0110 ; qtot    0.184
         4            o3bf         1   UNL        o3         4    -0.59377       15.9990 ; qtot   -0.410
         5            c4bf         1   UNL        c4         5    -0.15170       12.0110 ; qtot   -0.562
         6            c5bf         1   UNL        c5         6    -0.08312       12.0110 ; qtot   -0.645
         7            c6bf         1   UNL        c6         7    -0.14097       12.0110 ; qtot   -0.786
         8            c7bf         1   UNL        c7         8    -0.09091       12.0110 ; qtot   -0.877
         9            c8bf         1   UNL        c8         9    -0.12441       12.0110 ; qtot   -1.001
        10            c9bf         1   UNL        c9        10    -0.06928       12.0110 ; qtot   -1.071
        11           c10bf         1   UNL       c10        11     0.47399       12.0110 ; qtot   -0.597
        12           c11bf         1   UNL       c11        12    -0.21980       12.0110 ; qtot   -0.816
        13           n12bf         1   UNL       n12        13     0.05302       14.0070 ; qtot   -0.763
        14           c13bf         1   UNL       c13        14    -0.21243       12.0110 ; qtot   -0.976
        15           c14bf         1   UNL       c14        15     0.01175       12.0110 ; qtot   -0.964
        16           n15bf         1   UNL       n15        16    -0.27543       14.0070 ; qtot   -1.239
        17           c16bf         1   UNL       c16        17    -0.18460       12.0110 ; qtot   -1.424
        18           c17bf         1   UNL       c17        18     0.75065       12.0110 ; qtot   -0.673
        19           n18bf         1   UNL       n18        19    -0.73903       14.0070 ; qtot   -1.412
        20           c19bf         1   UNL       c19        20     0.16694       12.0110 ; qtot   -1.245
        21           c20bf         1   UNL       c20        21    -0.15106       12.0110 ; qtot   -1.397
        22           c21bf         1   UNL       c21        22    -0.15014       12.0110 ; qtot   -1.547
        23           c22bf         1   UNL       c22        23     0.07584       12.0110 ; qtot   -1.471
        24           o23bf         1   UNL       o23        24    -0.32010       15.9990 ; qtot   -1.791
        25           c24bf         1   UNL       c24        25     0.11960       12.0110 ; qtot   -1.671
        26           c25bf         1   UNL       c25        26     0.11790       12.0110 ; qtot   -1.553
        27           o26bf         1   UNL       o26        27    -0.31927       15.9990 ; qtot   -1.873
        28           c27bf         1   UNL       c27        28     0.11995       12.0110 ; qtot   -1.753
        29           c28bf         1   UNL       c28        29    -0.20840       12.0110 ; qtot   -1.961
        30           n29bf         1   UNL       n29        30    -0.76815       14.0070 ; qtot   -2.729
        31           h30bf         1   UNL       h30        31     0.04389        1.0080 ; qtot   -2.685
        32           h31bf         1   UNL       h31        32     0.04389        1.0080 ; qtot   -2.642
        33           h32bf         1   UNL       h32        33     0.04389        1.0080 ; qtot   -2.598
        34           h33bf         1   UNL       h33        34     0.31209        1.0080 ; qtot   -2.286
        35           h34bf         1   UNL       h34        35     0.14570        1.0080 ; qtot   -2.140
        36           h35bf         1   UNL       h35        36     0.13869        1.0080 ; qtot   -2.001
        37           h36bf         1   UNL       h36        37     0.14240        1.0080 ; qtot   -1.859
        38           h37bf         1   UNL       h37        38     0.15569        1.0080 ; qtot   -1.703
        39           h38bf         1   UNL       h38        39     0.17424        1.0080 ; qtot   -1.529
        40           h39bf         1   UNL       h39        40     0.18619        1.0080 ; qtot   -1.343
        41           h40bf         1   UNL       h40        41     0.17120        1.0080 ; qtot   -1.171
        42           h41bf         1   UNL       h41        42     0.46165        1.0080 ; qtot   -0.710
        43           h42bf         1   UNL       h42        43     0.15302        1.0080 ; qtot   -0.557
        44           h43bf         1   UNL       h43        44     0.14091        1.0080 ; qtot   -0.416
        45           h44bf         1   UNL       h44        45     0.04337        1.0080 ; qtot   -0.372
        46           h45bf         1   UNL       h45        46     0.04337        1.0080 ; qtot   -0.329
        47           h46bf         1   UNL       h46        47     0.04337        1.0080 ; qtot   -0.286
        48           h47bf         1   UNL       h47        48     0.04337        1.0080 ; qtot   -0.242
        49           h48bf         1   UNL       h48        49     0.04337        1.0080 ; qtot   -0.199
        50           h49bf         1   UNL       h49        50     0.04337        1.0080 ; qtot   -0.156
        51           h50bf         1   UNL       h50        51     0.15564        1.0080 ; qtot    0.000

[ bonds ]
;       ai        aj funct               r               k
         1         2     1        0.145758   274620.124072    ;  uncertainty r = 0.000051, k = 10.103299
         1        31     1        0.109421   314460.415186    ;  uncertainty r = 0.000003, k = 2.156516
         1        32     1        0.109421   314460.415186    ;  uncertainty r = 0.000003, k = 2.156516
         1        33     1        0.109421   314460.415186    ;  uncertainty r = 0.000003, k = 2.156516
         2         3     1        0.137211   289728.363184    ;  uncertainty r = 0.000114, k = 28.273545
         2        34     1        0.101157   415683.464453    ;  uncertainty r = 0.000039, k = 3.666463
         3         4     1        0.123502   782612.705469    ;  uncertainty r = 0.000059, k = 9.066122
         3         5     1        0.150047   238897.538623    ;  uncertainty r = 0.000095, k = 5.243948
         5         6     1        0.139957   348668.828809    ;  uncertainty r = 0.000049, k = 3.649994
         5        10     1        0.139522   343374.781738    ;  uncertainty r = 0.000087, k = 2.777721
         6         7     1        0.139400   367063.055469    ;  uncertainty r = 0.000028, k = 1.108826
         6        35     1        0.108734   333181.133789    ;  uncertainty r = 0.000009, k = 1.283079
         7         8     1        0.139321   367843.112012    ;  uncertainty r = 0.000034, k = 2.571056
         7        36     1        0.108816   332716.000879    ;  uncertainty r = 0.000021, k = 1.311971
         8         9     1        0.140010   345196.624658    ;  uncertainty r = 0.000042, k = 2.989720
         8        37     1        0.108756   334095.821973    ;  uncertainty r = 0.000021, k = 0.785553
         9        10     1        0.139629   339443.062842    ;  uncertainty r = 0.000068, k = 4.071570
         9        11     1        0.147260   263607.577637    ;  uncertainty r = 0.000133, k = 9.331848
        10        38     1        0.108718   333838.790967    ;  uncertainty r = 0.000032, k = 2.335155
        11        12     1        0.136955   381436.030127    ;  uncertainty r = 0.000105, k = 11.906462
        11        30     1        0.137509   259598.762207    ;  uncertainty r = 0.000250, k = 25.283783
        12        13     1        0.137882   325401.764160    ;  uncertainty r = 0.000063, k = 6.041362
        12        39     1        0.108486   340798.879053    ;  uncertainty r = 0.000072, k = 2.317244
        13        14     1        0.137812   342777.341064    ;  uncertainty r = 0.000099, k = 5.087990
        13        17     1        0.139016   307421.187598    ;  uncertainty r = 0.000151, k = 23.940622
        14        15     1        0.138713   413349.372656    ;  uncertainty r = 0.000044, k = 11.515244
        14        40     1        0.108153   341281.121826    ;  uncertainty r = 0.000029, k = 4.725602
        15        16     1        0.136694   264650.921777    ;  uncertainty r = 0.000104, k = 21.676836
        15        41     1        0.108374   336399.626758    ;  uncertainty r = 0.000052, k = 2.763003
        16        17     1        0.133277   447135.785547    ;  uncertainty r = 0.000097, k = 11.841677
        17        18     1        0.143016   286566.971191    ;  uncertainty r = 0.000095, k = 10.976596
        18        19     1        0.137988   330814.507715    ;  uncertainty r = 0.000224, k = 31.605655
        18        30     1        0.132294   443005.822070    ;  uncertainty r = 0.000186, k = 13.577344
        19        20     1        0.141333   346668.430420    ;  uncertainty r = 0.000119, k = 12.315028
        19        42     1        0.102091   426736.819189    ;  uncertainty r = 0.000039, k = 5.302962
        20        21     1        0.139713   352891.517529    ;  uncertainty r = 0.000095, k = 4.859071
        20        29     1        0.140236   355873.307031    ;  uncertainty r = 0.000083, k = 5.100078
        21        22     1        0.139369   369864.655127    ;  uncertainty r = 0.000071, k = 2.574385
        21        43     1        0.108700   336152.248779    ;  uncertainty r = 0.000031, k = 1.798271
        22        23     1        0.139488   349133.476514    ;  uncertainty r = 0.000031, k = 2.724671
        22        44     1        0.108705   336290.583301    ;  uncertainty r = 0.000024, k = 1.905467
        23        24     1        0.136892   321113.113086    ;  uncertainty r = 0.000059, k = 4.532913
        23        26     1        0.140227   349402.969629    ;  uncertainty r = 0.000054, k = 7.584606
        24        25     1        0.142504   247060.424561    ;  uncertainty r = 0.000030, k = 4.357261
        25        45     1        0.109559   311162.527344    ;  uncertainty r = 0.000020, k = 1.272524
        25        46     1        0.109559   311162.527344    ;  uncertainty r = 0.000020, k = 1.272524
        25        47     1        0.109559   311162.527344    ;  uncertainty r = 0.000020, k = 1.272524
        26        27     1        0.136641   322875.224707    ;  uncertainty r = 0.000095, k = 4.764562
        26        29     1        0.139270   345625.571484    ;  uncertainty r = 0.000054, k = 5.224473
        27        28     1        0.142472   247648.288818    ;  uncertainty r = 0.000036, k = 5.188431
        28        48     1        0.109559   311162.527344    ;  uncertainty r = 0.000020, k = 1.272508
        28        49     1        0.109559   311162.527344    ;  uncertainty r = 0.000020, k = 1.272508
        28        50     1        0.109559   311162.527344    ;  uncertainty r = 0.000020, k = 1.272508
        29        51     1        0.108746   339222.268994    ;  uncertainty r = 0.000057, k = 2.203681

[ angles ]
;       ai        aj        ak funct           theta             cth
         1         2         3     1      117.160568      444.392276    ;  uncertainty theta = 0.004608, k = 0.114555
         1         2        34     1      113.314743      324.059438    ;  uncertainty theta = 0.001683, k = 0.147733
         2         1        31     1      109.105392      463.118734    ;  uncertainty theta = 0.002037, k = 0.047387
         2         1        32     1      109.105392      463.118734    ;  uncertainty theta = 0.002037, k = 0.047387
         2         1        33     1      109.105392      463.118734    ;  uncertainty theta = 0.002037, k = 0.047387
         2         3         4     1      123.241379      774.076199    ;  uncertainty theta = 0.003206, k = 0.071648
         2         3         5     1      115.160767      448.292048    ;  uncertainty theta = 0.004668, k = 0.154253
         3         2        34     1      115.460251      338.435873    ;  uncertainty theta = 0.002979, k = 0.190420
         3         5         6     1      119.605698      335.470185    ;  uncertainty theta = 0.002476, k = 0.209281
         3         5        10     1      118.727600      350.409553    ;  uncertainty theta = 0.001991, k = 0.160278
         4         3         5     1      123.667091      512.577188    ;  uncertainty theta = 0.005236, k = 0.195323
         5         6         7     1      120.578125      518.655787    ;  uncertainty theta = 0.001105, k = 0.082075
         5         6        35     1      119.053955      266.731532    ;  uncertainty theta = 0.003159, k = 0.085210
         5        10         9     1      122.514465      513.722943    ;  uncertainty theta = 0.001965, k = 0.148787
         5        10        38     1      118.899940      267.586515    ;  uncertainty theta = 0.004160, k = 0.086003
         6         5        10     1      122.159584      448.364318    ;  uncertainty theta = 0.001998, k = 0.126240
         6         7         8     1      120.730423      518.225933    ;  uncertainty theta = 0.002370, k = 0.076883
         6         7        36     1      120.283348      282.996436    ;  uncertainty theta = 0.000780, k = 0.033251
         7         6        35     1      120.442154      287.381158    ;  uncertainty theta = 0.002829, k = 0.065529
         7         8         9     1      120.311562      529.372594    ;  uncertainty theta = 0.001859, k = 0.062576
         7         8        37     1      120.459389      291.342602    ;  uncertainty theta = 0.001794, k = 0.009196
         8         7        36     1      120.274796      284.693760    ;  uncertainty theta = 0.001302, k = 0.025005
         8         9        10     1      121.220779      430.929719    ;  uncertainty theta = 0.002911, k = 0.177015
         8         9        11     1      119.873581      404.772920    ;  uncertainty theta = 0.002360, k = 0.126907
         9         8        37     1      118.619164      269.017997    ;  uncertainty theta = 0.001373, k = 0.071415
         9        10        38     1      118.645363      268.528515    ;  uncertainty theta = 0.003894, k = 0.026173
         9        11        12     1      120.994980      375.420023    ;  uncertainty theta = 0.004458, k = 0.077933
         9        11        30     1      116.963966      455.945839    ;  uncertainty theta = 0.001426, k = 0.137000
        10         9        11     1      119.217178      397.359529    ;  uncertainty theta = 0.002356, k = 0.205153
        11        12        13     1      117.529312      532.910026    ;  uncertainty theta = 0.004092, k = 0.198409
        11        12        39     1      124.634438      233.175356    ;  uncertainty theta = 0.008734, k = 0.228841
        11        30        18     1      121.092026      437.385564    ;  uncertainty theta = 0.009289, k = 0.255263
        12        11        30     1      124.543556      546.714654    ;  uncertainty theta = 0.002872, k = 0.247730
        12        13        14     1      129.664673      428.594510    ;  uncertainty theta = 0.002270, k = 0.326701
        12        13        17     1      117.420067      429.560674    ;  uncertainty theta = 0.007263, k = 0.178528
        13        12        39     1      117.417358      315.021791    ;  uncertainty theta = 0.003619, k = 0.132845
        13        14        15     1      105.324844      767.668044    ;  uncertainty theta = 0.004981, k = 0.189091
        13        14        40     1      119.539230      282.399762    ;  uncertainty theta = 0.002926, k = 0.163946
        13        17        16     1      114.523727      791.406894    ;  uncertainty theta = 0.003446, k = 0.159720
        13        17        18     1      111.142784      333.997874    ;  uncertainty theta = 0.012736, k = 0.456018
        14        13        17     1      106.195145      846.636256    ;  uncertainty theta = 0.003800, k = 0.266754
        14        15        16     1      111.223167      865.900238    ;  uncertainty theta = 0.003390, k = 0.157112
        14        15        41     1      125.339584      238.965640    ;  uncertainty theta = 0.004247, k = 0.092339
        15        14        40     1      130.781418      240.351874    ;  uncertainty theta = 0.003259, k = 0.025087
        15        16        17     1      106.065872      820.721261    ;  uncertainty theta = 0.001716, k = 0.145917
        16        15        41     1      119.156937      297.238865    ;  uncertainty theta = 0.004129, k = 0.152925
        16        17        18     1      125.515465      293.448009    ;  uncertainty theta = 0.008643, k = 0.324338
        17        18        19     1      118.339066      493.433390    ;  uncertainty theta = 0.006804, k = 0.121644
        17        18        30     1      122.397118      559.509001    ;  uncertainty theta = 0.006110, k = 0.249098
        18        19        20     1      116.303787      381.015013    ;  uncertainty theta = 0.002927, k = 0.210540
        18        19        42     1      117.061234      430.294834    ;  uncertainty theta = 0.006370, k = 0.198640
        19        18        30     1      122.084122      743.704340    ;  uncertainty theta = 0.005979, k = 0.187139
        19        20        21     1      120.412048      523.951864    ;  uncertainty theta = 0.002787, k = 0.145671
        19        20        29     1      119.861717      533.495145    ;  uncertainty theta = 0.003869, k = 0.077420
        20        19        42     1      114.186111      355.760727    ;  uncertainty theta = 0.005751, k = 0.200139
        20        21        22     1      119.248634      497.970217    ;  uncertainty theta = 0.001680, k = 0.102369
        20        21        43     1      119.526833      271.877771    ;  uncertainty theta = 0.001413, k = 0.081498
        20        29        26     1      121.379723      503.760023    ;  uncertainty theta = 0.003678, k = 0.097545
        20        29        51     1      119.577965      269.429815    ;  uncertainty theta = 0.003301, k = 0.060634
        21        20        29     1      119.564781      370.288916    ;  uncertainty theta = 0.004616, k = 0.068312
        21        22        23     1      122.308617      511.833644    ;  uncertainty theta = 0.002874, k = 0.098838
        21        22        44     1      120.002708      276.762860    ;  uncertainty theta = 0.000635, k = 0.063552
        22        21        43     1      121.012962      296.103549    ;  uncertainty theta = 0.002653, k = 0.108838
        22        23        24     1      120.713829      429.663653    ;  uncertainty theta = 0.002887, k = 0.102451
        22        23        26     1      121.473427      368.904805    ;  uncertainty theta = 0.004194, k = 0.139265
        23        22        44     1      117.399475      269.501096    ;  uncertainty theta = 0.000644, k = 0.068639
        23        24        25     1      110.612503      514.276204    ;  uncertainty theta = 0.001142, k = 0.053109
        23        26        27     1      116.892044      375.387942    ;  uncertainty theta = 0.003912, k = 0.086739
        23        26        29     1      122.924828      372.294505    ;  uncertainty theta = 0.004880, k = 0.131595
        24        23        26     1      116.739212      371.002199    ;  uncertainty theta = 0.004292, k = 0.133275
        24        25        45     1      108.817703      445.633093    ;  uncertainty theta = 0.001397, k = 0.017155
        24        25        46     1      108.817703      445.633093    ;  uncertainty theta = 0.001397, k = 0.017155
        24        25        47     1      108.817703      445.633093    ;  uncertainty theta = 0.001397, k = 0.017155
        26        27        28     1      110.584335      514.931742    ;  uncertainty theta = 0.000760, k = 0.054259
        26        29        51     1      118.198837      267.442230    ;  uncertainty theta = 0.001362, k = 0.058523
        27        26        29     1      119.984230      446.391385    ;  uncertainty theta = 0.002825, k = 0.109279
        27        28        48     1      108.804810      446.467230    ;  uncertainty theta = 0.001256, k = 0.017591
        27        28        49     1      108.804810      446.467230    ;  uncertainty theta = 0.001256, k = 0.017591
        27        28        50     1      108.804810      446.467230    ;  uncertainty theta = 0.001256, k = 0.017591
        31         1        32     1      107.012878      321.487851    ;  uncertainty theta = 0.002661, k = 0.021792
        31         1        33     1      107.012878      321.487851    ;  uncertainty theta = 0.002661, k = 0.021792
        32         1        33     1      107.012878      321.487851    ;  uncertainty theta = 0.002661, k = 0.021792
        45        25        46     1      109.159256      331.008596    ;  uncertainty theta = 0.001734, k = 0.015290
        45        25        47     1      109.159256      331.008596    ;  uncertainty theta = 0.001734, k = 0.015290
        46        25        47     1      109.159256      331.008596    ;  uncertainty theta = 0.001734, k = 0.015290
        48        28        49     1      109.159256      331.008596    ;  uncertainty theta = 0.001734, k = 0.015289
        48        28        50     1      109.159256      331.008596    ;  uncertainty theta = 0.001734, k = 0.015289
        49        28        50     1      109.159256      331.008596    ;  uncertainty theta = 0.001734, k = 0.015289

[ dihedrals ] ; propers for gromacs 4.5 or higher, use funct 9
;       ai        aj        ak        al funct           phase               k        pn
         1         2         3         4     9        0.000000        3.051576         1    ;  uncertainty k = 0.652139
         1         2         3         4     9      180.000000       11.247412         2    ;  uncertainty k = 0.215840
         1         2         3         4     9        0.000000        0.519423         3    ;  uncertainty k = 0.288362
         1         2         3         4     9      180.000000        0.478901         4    ;  uncertainty k = 0.229457
         1         2         3         5     9        0.000000        4.808111         1    ;  uncertainty k = 1.041873
         1         2         3         5     9      180.000000       12.839566         2    ;  uncertainty k = 0.229769
         1         2         3         5     9        0.000000        2.314655         3    ;  uncertainty k = 0.387609
         1         2         3         5     9      180.000000       -1.171564         4    ;  uncertainty k = 0.231206
         2         3         5         6     9        0.000000        0.574666         1    ;  uncertainty k = 0.353030
         2         3         5         6     9      180.000000        3.010703         2    ;  uncertainty k = 0.202859
         2         3         5         6     9        0.000000        0.365855         3    ;  uncertainty k = 0.207730
         2         3         5         6     9      180.000000       -0.096951         4    ;  uncertainty k = 0.058346
         2         3         5        10     9        0.000000        0.415997         1    ;  uncertainty k = 0.354897
         2         3         5        10     9      180.000000        3.071100         2    ;  uncertainty k = 0.264795
         2         3         5        10     9        0.000000        0.326460         3    ;  uncertainty k = 0.175729
         2         3         5        10     9      180.000000       -0.103843         4    ;  uncertainty k = 0.059623
         3         2         1        31     9        0.000000        0.279336         1    ;  uncertainty k = 0.153116
         3         2         1        31     9      180.000000       -0.524659         2    ;  uncertainty k = 0.293383
         3         2         1        31     9        0.000000        0.223811         3    ;  uncertainty k = 0.079883
         3         2         1        31     9      180.000000        0.344201         4    ;  uncertainty k = 0.053379
         3         2         1        32     9        0.000000        0.279336         1    ;  uncertainty k = 0.153116
         3         2         1        32     9      180.000000       -0.524659         2    ;  uncertainty k = 0.293383
         3         2         1        32     9        0.000000        0.223811         3    ;  uncertainty k = 0.079883
         3         2         1        32     9      180.000000        0.344201         4    ;  uncertainty k = 0.053379
         3         2         1        33     9        0.000000        0.279336         1    ;  uncertainty k = 0.153116
         3         2         1        33     9      180.000000       -0.524659         2    ;  uncertainty k = 0.293383
         3         2         1        33     9        0.000000        0.223811         3    ;  uncertainty k = 0.079883
         3         2         1        33     9      180.000000        0.344201         4    ;  uncertainty k = 0.053379
         3         5         6         7     9        0.000000        0.274534         1    ;  uncertainty k = 0.280271
         3         5         6         7     9      180.000000        9.060399         2    ;  uncertainty k = 0.525012
         3         5         6         7     9        0.000000        1.424985         3    ;  uncertainty k = 0.381872
         3         5         6         7     9      180.000000        1.865528         4    ;  uncertainty k = 0.260494
         3         5         6        35     9        0.000000       -0.137497         1    ;  uncertainty k = 0.457037
         3         5         6        35     9      180.000000        7.989179         2    ;  uncertainty k = 0.417731
         3         5         6        35     9        0.000000        1.005314         3    ;  uncertainty k = 0.185478
         3         5         6        35     9      180.000000        1.145131         4    ;  uncertainty k = 0.207279
         3         5        10         9     9        0.000000        0.438262         1    ;  uncertainty k = 0.123395
         3         5        10         9     9      180.000000        8.982169         2    ;  uncertainty k = 0.608853
         3         5        10         9     9        0.000000        1.569156         3    ;  uncertainty k = 0.268026
         3         5        10         9     9      180.000000        1.892057         4    ;  uncertainty k = 0.293287
         3         5        10        38     9        0.000000       -0.023184         1    ;  uncertainty k = 0.658860
         3         5        10        38     9      180.000000        8.091558         2    ;  uncertainty k = 0.388965
         3         5        10        38     9        0.000000        1.102804         3    ;  uncertainty k = 0.209704
         3         5        10        38     9      180.000000        1.278023         4    ;  uncertainty k = 0.250979
         4         3         2        34     9        0.000000        3.407487         1    ;  uncertainty k = 1.183697
         4         3         2        34     9      180.000000       14.486099         2    ;  uncertainty k = 0.202326
         4         3         2        34     9        0.000000        1.560257         3    ;  uncertainty k = 0.187800
         4         3         2        34     9      180.000000       -0.446384         4    ;  uncertainty k = 0.074519
         4         3         5         6     9        0.000000       -0.937219         1    ;  uncertainty k = 0.183721
         4         3         5         6     9      180.000000        3.181721         2    ;  uncertainty k = 0.314378
         4         3         5         6     9        0.000000        0.236154         3    ;  uncertainty k = 0.132468
         4         3         5         6     9      180.000000       -0.028133         4    ;  uncertainty k = 0.093792
         4         3         5        10     9        0.000000       -0.676599         1    ;  uncertainty k = 0.393657
         4         3         5        10     9      180.000000        3.121225         2    ;  uncertainty k = 0.356998
         4         3         5        10     9        0.000000        0.225906         3    ;  uncertainty k = 0.136386
         4         3         5        10     9      180.000000       -0.012290         4    ;  uncertainty k = 0.078794
         5         3         2        34     9        0.000000       -0.257120         1    ;  uncertainty k = 0.730008
         5         3         2        34     9      180.000000        7.741491         2    ;  uncertainty k = 0.650922
         5         3         2        34     9        0.000000        2.731269         3    ;  uncertainty k = 0.244394
         5         3         2        34     9      180.000000        0.026619         4    ;  uncertainty k = 0.369284
         5         6         7         8     9        0.000000       -0.137764         1    ;  uncertainty k = 0.091929
         5         6         7         8     9      180.000000       13.275720         2    ;  uncertainty k = 0.347527
         5         6         7         8     9        0.000000       -0.750217         3    ;  uncertainty k = 0.309711
         5         6         7         8     9      180.000000        0.803384         4    ;  uncertainty k = 0.251682
         5         6         7        36     9        0.000000       -0.081835         1    ;  uncertainty k = 0.217356
         5         6         7        36     9      180.000000        7.996689         2    ;  uncertainty k = 0.289674
         5         6         7        36     9        0.000000        1.392127         3    ;  uncertainty k = 0.198927
         5         6         7        36     9      180.000000        1.793716         4    ;  uncertainty k = 0.148331
         5        10         9         8     9        0.000000       -0.019181         1    ;  uncertainty k = 0.072676
         5        10         9         8     9      180.000000       10.050444         2    ;  uncertainty k = 0.310855
         5        10         9         8     9        0.000000       -0.084435         3    ;  uncertainty k = 0.322714
         5        10         9         8     9      180.000000        1.134804         4    ;  uncertainty k = 0.198672
         5        10         9        11     9        0.000000        0.005717         1    ;  uncertainty k = 0.221540
         5        10         9        11     9      180.000000        8.869427         2    ;  uncertainty k = 0.505079
         5        10         9        11     9        0.000000        1.208799         3    ;  uncertainty k = 0.207565
         5        10         9        11     9      180.000000        1.711413         4    ;  uncertainty k = 0.085040
         6         5        10         9     9        0.000000       -0.044929         1    ;  uncertainty k = 0.156628
         6         5        10         9     9      180.000000       10.594425         2    ;  uncertainty k = 0.398945
         6         5        10         9     9        0.000000       -0.288262         3    ;  uncertainty k = 0.386077
         6         5        10         9     9      180.000000        1.092123         4    ;  uncertainty k = 0.284971
         6         5        10        38     9        0.000000        0.353301         1    ;  uncertainty k = 0.253234
         6         5        10        38     9      180.000000        7.491932         2    ;  uncertainty k = 0.447852
         6         5        10        38     9        0.000000        1.243101         3    ;  uncertainty k = 0.267622
         6         5        10        38     9      180.000000        1.698003         4    ;  uncertainty k = 0.228126
         6         7         8         9     9        0.000000       -0.011894         1    ;  uncertainty k = 0.154836
         6         7         8         9     9      180.000000       13.858277         2    ;  uncertainty k = 0.337267
         6         7         8         9     9        0.000000       -0.896831         3    ;  uncertainty k = 0.305876
         6         7         8         9     9      180.000000        0.676301         4    ;  uncertainty k = 0.302875
         6         7         8        37     9        0.000000        0.090706         1    ;  uncertainty k = 0.066987
         6         7         8        37     9      180.000000        7.396392         2    ;  uncertainty k = 0.309918
         6         7         8        37     9        0.000000        1.417427         3    ;  uncertainty k = 0.239270
         6         7         8        37     9      180.000000        1.825164         4    ;  uncertainty k = 0.117135
         7         6         5        10     9        0.000000       -0.101584         1    ;  uncertainty k = 0.099650
         7         6         5        10     9      180.000000       10.823535         2    ;  uncertainty k = 0.409347
         7         6         5        10     9        0.000000       -0.683144         3    ;  uncertainty k = 0.177152
         7         6         5        10     9      180.000000        0.972036         4    ;  uncertainty k = 0.200847
         7         8         9        10     9        0.000000       -0.066958         1    ;  uncertainty k = 0.076286
         7         8         9        10     9      180.000000       10.777416         2    ;  uncertainty k = 0.283389
         7         8         9        10     9        0.000000       -0.532317         3    ;  uncertainty k = 0.271709
         7         8         9        10     9      180.000000        0.951587         4    ;  uncertainty k = 0.215947
         7         8         9        11     9        0.000000        0.059497         1    ;  uncertainty k = 0.170005
         7         8         9        11     9      180.000000        9.082570         2    ;  uncertainty k = 0.568610
         7         8         9        11     9        0.000000        1.268652         3    ;  uncertainty k = 0.336252
         7         8         9        11     9      180.000000        1.713418         4    ;  uncertainty k = 0.243957
         8         7         6        35     9        0.000000        0.071037         1    ;  uncertainty k = 0.073159
         8         7         6        35     9      180.000000        7.281356         2    ;  uncertainty k = 0.273226
         8         7         6        35     9        0.000000        1.391235         3    ;  uncertainty k = 0.240642
         8         7         6        35     9      180.000000        1.823040         4    ;  uncertainty k = 0.146274
         8         9        10        38     9        0.000000        0.189390         1    ;  uncertainty k = 0.118554
         8         9        10        38     9      180.000000        7.252535         2    ;  uncertainty k = 0.553561
         8         9        10        38     9        0.000000        1.301075         3    ;  uncertainty k = 0.161928
         8         9        10        38     9      180.000000        1.641084         4    ;  uncertainty k = 0.233889
         8         9        11        12     9        0.000000       -0.073073         1    ;  uncertainty k = 0.402833
         8         9        11        12     9      180.000000        3.730324         2    ;  uncertainty k = 0.332928
         8         9        11        12     9        0.000000        0.762576         3    ;  uncertainty k = 0.247151
         8         9        11        12     9      180.000000       -0.326397         4    ;  uncertainty k = 0.135735
         8         9        11        30     9        0.000000       -0.842924         1    ;  uncertainty k = 1.576911
         8         9        11        30     9      180.000000        4.811965         2    ;  uncertainty k = 0.164611
         8         9        11        30     9        0.000000        0.396917         3    ;  uncertainty k = 0.157235
         8         9        11        30     9      180.000000        0.104740         4    ;  uncertainty k = 0.135082
         9         8         7        36     9        0.000000        0.060658         1    ;  uncertainty k = 0.117380
         9         8         7        36     9      180.000000        7.697439         2    ;  uncertainty k = 0.360548
         9         8         7        36     9        0.000000        1.435851         3    ;  uncertainty k = 0.226551
         9         8         7        36     9      180.000000        1.851607         4    ;  uncertainty k = 0.107761
         9        11        12        13     9        0.000000        0.591760         1    ;  uncertainty k = 0.266729
         9        11        12        13     9      180.000000       17.691271         2    ;  uncertainty k = 0.416571
         9        11        12        13     9        0.000000        1.855432         3    ;  uncertainty k = 0.438797
         9        11        12        13     9      180.000000        0.749920         4    ;  uncertainty k = 0.228529
         9        11        12        39     9        0.000000       -0.216927         1    ;  uncertainty k = 0.346343
         9        11        12        39     9      180.000000        9.418174         2    ;  uncertainty k = 0.495732
         9        11        12        39     9        0.000000        1.500648         3    ;  uncertainty k = 0.314169
         9        11        12        39     9      180.000000        1.007881         4    ;  uncertainty k = 0.136891
         9        11        30        18     9        0.000000        0.794450         1    ;  uncertainty k = 1.385570
         9        11        30        18     9      180.000000        8.981134         2    ;  uncertainty k = 0.771215
         9        11        30        18     9        0.000000        1.556127         3    ;  uncertainty k = 0.550784
         9        11        30        18     9      180.000000        0.428246         4    ;  uncertainty k = 0.313577
        10         5         6        35     9        0.000000        0.377253         1    ;  uncertainty k = 0.211930
        10         5         6        35     9      180.000000        7.131215         2    ;  uncertainty k = 0.483925
        10         5         6        35     9        0.000000        1.280235         3    ;  uncertainty k = 0.290023
        10         5         6        35     9      180.000000        1.679146         4    ;  uncertainty k = 0.234643
        10         9         8        37     9        0.000000        0.208675         1    ;  uncertainty k = 0.102022
        10         9         8        37     9      180.000000        6.821555         2    ;  uncertainty k = 0.451620
        10         9         8        37     9        0.000000        1.340216         3    ;  uncertainty k = 0.183502
        10         9         8        37     9      180.000000        1.642080         4    ;  uncertainty k = 0.233395
        10         9        11        12     9        0.000000       -0.178527         1    ;  uncertainty k = 0.291426
        10         9        11        12     9      180.000000        3.695164         2    ;  uncertainty k = 0.292555
        10         9        11        12     9        0.000000        0.859078         3    ;  uncertainty k = 0.201789
        10         9        11        12     9      180.000000       -0.306626         4    ;  uncertainty k = 0.142092
        10         9        11        30     9        0.000000       -0.400291         1    ;  uncertainty k = 1.636226
        10         9        11        30     9      180.000000        4.786551         2    ;  uncertainty k = 0.196046
        10         9        11        30     9        0.000000        0.391297         3    ;  uncertainty k = 0.152067
        10         9        11        30     9      180.000000        0.083813         4    ;  uncertainty k = 0.149776
        11         9         8        37     9        0.000000        0.004902         1    ;  uncertainty k = 0.159335
        11         9         8        37     9      180.000000        7.002721         2    ;  uncertainty k = 0.358410
        11         9         8        37     9        0.000000        0.662384         3    ;  uncertainty k = 0.254752
        11         9         8        37     9      180.000000        1.137411         4    ;  uncertainty k = 0.196707
        11         9        10        38     9        0.000000        0.038315         1    ;  uncertainty k = 0.275950
        11         9        10        38     9      180.000000        7.235283         2    ;  uncertainty k = 0.295507
        11         9        10        38     9        0.000000        0.741395         3    ;  uncertainty k = 0.227271
        11         9        10        38     9      180.000000        1.271061         4    ;  uncertainty k = 0.181978
        11        12        13        14     9        0.000000        0.426659         1    ;  uncertainty k = 1.499799
        11        12        13        14     9      180.000000        4.652440         2    ;  uncertainty k = 0.599161
        11        12        13        14     9        0.000000        0.715390         3    ;  uncertainty k = 0.332561
        11        12        13        14     9      180.000000        0.335557         4    ;  uncertainty k = 0.092543
        11        12        13        17     9        0.000000       -0.092030         1    ;  uncertainty k = 1.657471
        11        12        13        17     9      180.000000        6.297307         2    ;  uncertainty k = 0.496589
        11        12        13        17     9        0.000000       -0.827331         3    ;  uncertainty k = 0.837727
        11        12        13        17     9      180.000000        0.591428         4    ;  uncertainty k = 0.145930
        11        30        18        17     9        0.000000       -0.079282         1    ;  uncertainty k = 2.218225
        11        30        18        17     9      180.000000       13.592964         2    ;  uncertainty k = 0.610320
        11        30        18        17     9        0.000000        2.514815         3    ;  uncertainty k = 0.854001
        11        30        18        17     9      180.000000        1.355385         4    ;  uncertainty k = 0.396240
        11        30        18        19     9        0.000000        1.093747         1    ;  uncertainty k = 1.036214
        11        30        18        19     9      180.000000       17.904271         2    ;  uncertainty k = 0.458529
        11        30        18        19     9        0.000000        2.916475         3    ;  uncertainty k = 0.276347
        11        30        18        19     9      180.000000        1.662492         4    ;  uncertainty k = 0.298465
        12        11        30        18     9        0.000000        0.939472         1    ;  uncertainty k = 1.501291
        12        11        30        18     9      180.000000        5.478742         2    ;  uncertainty k = 1.436526
        12        11        30        18     9        0.000000        1.155134         3    ;  uncertainty k = 0.833320
        12        11        30        18     9      180.000000        0.505236         4    ;  uncertainty k = 0.531949
        12        13        14        15     9        0.000000        0.230793         1    ;  uncertainty k = 1.269737
        12        13        14        15     9      180.000000        9.569834         2    ;  uncertainty k = 0.766860
        12        13        14        15     9        0.000000        0.431847         3    ;  uncertainty k = 0.749472
        12        13        14        15     9      180.000000        0.562970         4    ;  uncertainty k = 0.317996
        12        13        14        40     9        0.000000        0.582736         1    ;  uncertainty k = 1.282917
        12        13        14        40     9      180.000000        2.797133         2    ;  uncertainty k = 1.416072
        12        13        14        40     9        0.000000        1.235338         3    ;  uncertainty k = 0.396602
        12        13        14        40     9      180.000000        0.134009         4    ;  uncertainty k = 0.120872
        12        13        17        16     9        0.000000        0.339779         1    ;  uncertainty k = 0.557631
        12        13        17        16     9      180.000000        8.702717         2    ;  uncertainty k = 0.552037
        12        13        17        16     9        0.000000        0.461034         3    ;  uncertainty k = 0.395643
        12        13        17        16     9      180.000000        0.883728         4    ;  uncertainty k = 0.214014
        12        13        17        18     9        0.000000       -0.074403         1    ;  uncertainty k = 0.950776
        12        13        17        18     9      180.000000        5.131695         2    ;  uncertainty k = 1.540544
        12        13        17        18     9        0.000000        1.364865         3    ;  uncertainty k = 0.461387
        12        13        17        18     9      180.000000        0.396565         4    ;  uncertainty k = 0.312989
        13        12        11        30     9        0.000000        0.000360         1    ;  uncertainty k = 0.567486
        13        12        11        30     9      180.000000       21.321777         2    ;  uncertainty k = 0.622601
        13        12        11        30     9        0.000000        0.535648         3    ;  uncertainty k = 0.315066
        13        12        11        30     9      180.000000        0.534099         4    ;  uncertainty k = 0.517790
        13        14        15        16     9        0.000000       -0.424260         1    ;  uncertainty k = 0.720468
        13        14        15        16     9      180.000000       21.948840         2    ;  uncertainty k = 0.272816
        13        14        15        16     9        0.000000       -9.453918         3    ;  uncertainty k = 0.408148
        13        14        15        16     9      180.000000        1.578950         4    ;  uncertainty k = 0.654473
        13        14        15        41     9        0.000000        0.427384         1    ;  uncertainty k = 0.828523
        13        14        15        41     9      180.000000       13.870591         2    ;  uncertainty k = 0.182399
        13        14        15        41     9        0.000000        1.815389         3    ;  uncertainty k = 0.320274
        13        14        15        41     9      180.000000        0.903574         4    ;  uncertainty k = 0.223947
        13        17        16        15     9        0.000000       -0.698105         1    ;  uncertainty k = 0.543242
        13        17        16        15     9      180.000000       23.970047         2    ;  uncertainty k = 0.495895
        13        17        16        15     9        0.000000      -11.206153         3    ;  uncertainty k = 1.161988
        13        17        16        15     9      180.000000        1.981051         4    ;  uncertainty k = 0.603215
        13        17        18        19     9        0.000000       -0.953521         1    ;  uncertainty k = 0.960772
        13        17        18        19     9      180.000000        5.426485         2    ;  uncertainty k = 0.732993
        13        17        18        19     9        0.000000        0.463830         3    ;  uncertainty k = 0.276198
        13        17        18        19     9      180.000000        0.425034         4    ;  uncertainty k = 0.145521
        13        17        18        30     9        0.000000       -0.501337         1    ;  uncertainty k = 0.640963
        13        17        18        30     9      180.000000        6.017651         2    ;  uncertainty k = 0.720254
        13        17        18        30     9        0.000000       -0.364994         3    ;  uncertainty k = 0.314830
        13        17        18        30     9      180.000000        0.566313         4    ;  uncertainty k = 0.158573
        14        13        12        39     9        0.000000        1.227128         1    ;  uncertainty k = 1.232867
        14        13        12        39     9      180.000000        2.938476         2    ;  uncertainty k = 1.102516
        14        13        12        39     9        0.000000        1.033216         3    ;  uncertainty k = 0.512498
        14        13        12        39     9      180.000000        0.184974         4    ;  uncertainty k = 0.169272
        14        13        17        16     9        0.000000       -0.600194         1    ;  uncertainty k = 0.427508
        14        13        17        16     9      180.000000       12.032077         2    ;  uncertainty k = 0.540573
        14        13        17        16     9        0.000000       -4.884607         3    ;  uncertainty k = 1.243657
        14        13        17        16     9      180.000000        1.176890         4    ;  uncertainty k = 0.463084
        14        13        17        18     9        0.000000        0.340423         1    ;  uncertainty k = 0.792595
        14        13        17        18     9      180.000000        6.024514         2    ;  uncertainty k = 0.492564
        14        13        17        18     9        0.000000        0.209998         3    ;  uncertainty k = 0.527723
        14        13        17        18     9      180.000000        0.585311         4    ;  uncertainty k = 0.374830
        14        15        16        17     9        0.000000       -0.719371         1    ;  uncertainty k = 0.806441
        14        15        16        17     9      180.000000       16.306388         2    ;  uncertainty k = 0.372138
        14        15        16        17     9        0.000000       -5.546729         3    ;  uncertainty k = 0.784850
        14        15        16        17     9      180.000000        2.138755         4    ;  uncertainty k = 0.319470
        15        14        13        17     9        0.000000        0.425343         1    ;  uncertainty k = 0.911888
        15        14        13        17     9      180.000000       13.121731         2    ;  uncertainty k = 1.266974
        15        14        13        17     9        0.000000      -13.119123         3    ;  uncertainty k = 1.817829
        15        14        13        17     9      180.000000        1.693366         4    ;  uncertainty k = 0.377703
        15        16        17        18     9        0.000000       -0.258736         1    ;  uncertainty k = 0.813751
        15        16        17        18     9      180.000000       16.417004         2    ;  uncertainty k = 0.455555
        15        16        17        18     9        0.000000        0.694003         3    ;  uncertainty k = 0.637623
        15        16        17        18     9      180.000000        1.345365         4    ;  uncertainty k = 0.597909
        16        15        14        40     9        0.000000       -0.210817         1    ;  uncertainty k = 0.409317
        16        15        14        40     9      180.000000       14.525460         2    ;  uncertainty k = 0.474527
        16        15        14        40     9        0.000000        1.399988         3    ;  uncertainty k = 0.472592
        16        15        14        40     9      180.000000        0.597840         4    ;  uncertainty k = 0.116226
        16        17        18        19     9        0.000000       -0.723786         1    ;  uncertainty k = 0.708755
        16        17        18        19     9      180.000000        4.584248         2    ;  uncertainty k = 1.077486
        16        17        18        19     9        0.000000        0.569780         3    ;  uncertainty k = 0.418446
        16        17        18        19     9      180.000000        0.322209         4    ;  uncertainty k = 0.225420
        16        17        18        30     9        0.000000       -1.422783         1    ;  uncertainty k = 2.244568
        16        17        18        30     9      180.000000        4.485013         2    ;  uncertainty k = 0.589709
        16        17        18        30     9        0.000000        0.451574         3    ;  uncertainty k = 0.408181
        16        17        18        30     9      180.000000        0.387928         4    ;  uncertainty k = 0.297233
        17        13        12        39     9        0.000000        1.224013         1    ;  uncertainty k = 1.441616
        17        13        12        39     9      180.000000        4.285564         2    ;  uncertainty k = 0.541130
        17        13        12        39     9        0.000000        1.126046         3    ;  uncertainty k = 0.359169
        17        13        12        39     9      180.000000        0.200396         4    ;  uncertainty k = 0.127762
        17        13        14        40     9        0.000000        0.337819         1    ;  uncertainty k = 0.998519
        17        13        14        40     9      180.000000        7.392009         2    ;  uncertainty k = 0.385666
        17        13        14        40     9        0.000000        1.061985         3    ;  uncertainty k = 0.365240
        17        13        14        40     9      180.000000        0.171584         4    ;  uncertainty k = 0.281011
        17        16        15        41     9        0.000000       -0.095582         1    ;  uncertainty k = 0.393922
        17        16        15        41     9      180.000000       14.177386         2    ;  uncertainty k = 0.352375
        17        16        15        41     9        0.000000        1.588169         3    ;  uncertainty k = 0.688228
        17        16        15        41     9      180.000000        0.904862         4    ;  uncertainty k = 0.448977
        17        18        19        20     9        0.000000        7.039560         1    ;  uncertainty k = 0.599172
        17        18        19        20     9      180.000000        8.681780         2    ;  uncertainty k = 0.097888
        17        18        19        20     9        0.000000        0.920443         3    ;  uncertainty k = 0.381758
        17        18        19        20     9      180.000000       -0.164554         4    ;  uncertainty k = 0.221364
        17        18        19        42     9        0.000000        5.299480         1    ;  uncertainty k = 1.071663
        17        18        19        42     9      180.000000        6.121002         2    ;  uncertainty k = 0.320628
        17        18        19        42     9        0.000000        1.371092         3    ;  uncertainty k = 0.426495
        17        18        19        42     9      180.000000       -0.017305         4    ;  uncertainty k = 0.216319
        18        19        20        21     9        0.000000        1.717569         1    ;  uncertainty k = 0.660148
        18        19        20        21     9      180.000000        5.521742         2    ;  uncertainty k = 0.179950
        18        19        20        21     9        0.000000        0.912155         3    ;  uncertainty k = 0.268356
        18        19        20        21     9      180.000000        0.224590         4    ;  uncertainty k = 0.108909
        18        19        20        29     9        0.000000        1.597951         1    ;  uncertainty k = 0.980883
        18        19        20        29     9      180.000000        5.574007         2    ;  uncertainty k = 0.231879
        18        19        20        29     9        0.000000        0.917734         3    ;  uncertainty k = 0.237919
        18        19        20        29     9      180.000000        0.218590         4    ;  uncertainty k = 0.147860
        19        20        21        22     9        0.000000        0.058897         1    ;  uncertainty k = 0.517001
        19        20        21        22     9      180.000000        9.907040         2    ;  uncertainty k = 0.506714
        19        20        21        22     9        0.000000        0.979238         3    ;  uncertainty k = 0.327123
        19        20        21        22     9      180.000000        1.580945         4    ;  uncertainty k = 0.224706
        19        20        21        43     9        0.000000       -0.291936         1    ;  uncertainty k = 0.233188
        19        20        21        43     9      180.000000        7.944709         2    ;  uncertainty k = 0.164351
        19        20        21        43     9        0.000000        0.918005         3    ;  uncertainty k = 0.228756
        19        20        21        43     9      180.000000        1.083856         4    ;  uncertainty k = 0.164908
        19        20        29        26     9        0.000000        0.148911         1    ;  uncertainty k = 0.574987
        19        20        29        26     9      180.000000        9.899586         2    ;  uncertainty k = 0.247387
        19        20        29        26     9        0.000000        1.000997         3    ;  uncertainty k = 0.351814
        19        20        29        26     9      180.000000        1.610986         4    ;  uncertainty k = 0.137508
        19        20        29        51     9        0.000000       -0.272932         1    ;  uncertainty k = 0.329124
        19        20        29        51     9      180.000000        7.865304         2    ;  uncertainty k = 0.242077
        19        20        29        51     9        0.000000        0.914516         3    ;  uncertainty k = 0.283704
        19        20        29        51     9      180.000000        1.068015         4    ;  uncertainty k = 0.243003
        20        19        18        30     9        0.000000        4.371474         1    ;  uncertainty k = 1.288135
        20        19        18        30     9      180.000000       10.778641         2    ;  uncertainty k = 0.228701
        20        19        18        30     9        0.000000        0.680674         3    ;  uncertainty k = 0.311324
        20        19        18        30     9      180.000000       -0.507605         4    ;  uncertainty k = 0.056382
        20        21        22        23     9        0.000000        0.022057         1    ;  uncertainty k = 0.194404
        20        21        22        23     9      180.000000       12.959077         2    ;  uncertainty k = 0.175269
        20        21        22        23     9        0.000000       -0.661283         3    ;  uncertainty k = 0.452962
        20        21        22        23     9      180.000000        0.977500         4    ;  uncertainty k = 0.267395
        20        21        22        44     9        0.000000       -0.099822         1    ;  uncertainty k = 0.241524
        20        21        22        44     9      180.000000        7.800451         2    ;  uncertainty k = 0.321388
        20        21        22        44     9        0.000000        1.212039         3    ;  uncertainty k = 0.364603
        20        21        22        44     9      180.000000        1.643101         4    ;  uncertainty k = 0.155684
        20        29        26        23     9        0.000000        0.071801         1    ;  uncertainty k = 0.106890
        20        29        26        23     9      180.000000        8.578019         2    ;  uncertainty k = 0.448416
        20        29        26        23     9        0.000000        0.405195         3    ;  uncertainty k = 0.328173
        20        29        26        23     9      180.000000        1.390163         4    ;  uncertainty k = 0.291061
        20        29        26        27     9        0.000000        0.152072         1    ;  uncertainty k = 0.236865
        20        29        26        27     9      180.000000       11.350409         2    ;  uncertainty k = 0.544002
        20        29        26        27     9        0.000000        1.355669         3    ;  uncertainty k = 0.349765
        20        29        26        27     9      180.000000        1.696486         4    ;  uncertainty k = 0.237430
        21        20        19        42     9        0.000000        2.355177         1    ;  uncertainty k = 0.449211
        21        20        19        42     9      180.000000        4.348203         2    ;  uncertainty k = 0.302695
        21        20        19        42     9        0.000000        0.613845         3    ;  uncertainty k = 0.145998
        21        20        19        42     9      180.000000        0.455801         4    ;  uncertainty k = 0.028343
        21        20        29        26     9        0.000000        0.019456         1    ;  uncertainty k = 0.133756
        21        20        29        26     9      180.000000        8.784467         2    ;  uncertainty k = 0.478985
        21        20        29        26     9        0.000000        0.119276         3    ;  uncertainty k = 0.283811
        21        20        29        26     9      180.000000        1.288078         4    ;  uncertainty k = 0.208848
        21        20        29        51     9        0.000000        0.155297         1    ;  uncertainty k = 0.281419
        21        20        29        51     9      180.000000        6.373830         2    ;  uncertainty k = 0.633801
        21        20        29        51     9        0.000000        1.253627         3    ;  uncertainty k = 0.220579
        21        20        29        51     9      180.000000        1.460767         4    ;  uncertainty k = 0.207379
        21        22        23        24     9        0.000000        0.075453         1    ;  uncertainty k = 0.391183
        21        22        23        24     9      180.000000       11.200366         2    ;  uncertainty k = 0.281956
        21        22        23        24     9        0.000000        1.350673         3    ;  uncertainty k = 0.315697
        21        22        23        24     9      180.000000        1.737822         4    ;  uncertainty k = 0.262819
        21        22        23        26     9        0.000000        0.085735         1    ;  uncertainty k = 0.237540
        21        22        23        26     9      180.000000        8.042169         2    ;  uncertainty k = 0.816840
        21        22        23        26     9        0.000000        0.289470         3    ;  uncertainty k = 0.178601
        21        22        23        26     9      180.000000        1.427393         4    ;  uncertainty k = 0.249188
        22        21        20        29     9        0.000000       -0.065843         1    ;  uncertainty k = 0.278585
        22        21        20        29     9      180.000000        9.979294         2    ;  uncertainty k = 0.397780
        22        21        20        29     9        0.000000       -0.194578         3    ;  uncertainty k = 0.190669
        22        21        20        29     9      180.000000        1.171069         4    ;  uncertainty k = 0.255361
        22        23        24        25     9        0.000000        1.161590         1    ;  uncertainty k = 0.424581
        22        23        24        25     9      180.000000        5.978609         2    ;  uncertainty k = 0.113714
        22        23        24        25     9        0.000000       -0.081692         3    ;  uncertainty k = 0.147719
        22        23        24        25     9      180.000000        0.002725         4    ;  uncertainty k = 0.132587
        22        23        26        27     9        0.000000        0.651704         1    ;  uncertainty k = 0.176594
        22        23        26        27     9      180.000000        7.590395         2    ;  uncertainty k = 0.603023
        22        23        26        27     9        0.000000        1.174712         3    ;  uncertainty k = 0.330890
        22        23        26        27     9      180.000000        1.724084         4    ;  uncertainty k = 0.232454
        22        23        26        29     9        0.000000       -0.246362         1    ;  uncertainty k = 0.323016
        22        23        26        29     9      180.000000        5.364288         2    ;  uncertainty k = 1.281071
        22        23        26        29     9        0.000000        0.277800         3    ;  uncertainty k = 0.286511
        22        23        26        29     9      180.000000        1.297118         4    ;  uncertainty k = 0.309451
        23        22        21        43     9        0.000000        0.089133         1    ;  uncertainty k = 0.324050
        23        22        21        43     9      180.000000        7.832724         2    ;  uncertainty k = 0.398222
        23        22        21        43     9        0.000000        1.298748         3    ;  uncertainty k = 0.324375
        23        22        21        43     9      180.000000        1.779744         4    ;  uncertainty k = 0.055929
        23        24        25        45     9        0.000000        1.112845         1    ;  uncertainty k = 0.103178
        23        24        25        45     9      180.000000       -2.022643         2    ;  uncertainty k = 0.082864
        23        24        25        45     9        0.000000        1.040478         3    ;  uncertainty k = 0.039004
        23        24        25        45     9      180.000000        0.229250         4    ;  uncertainty k = 0.034228
        23        24        25        46     9        0.000000        1.112845         1    ;  uncertainty k = 0.103178
        23        24        25        46     9      180.000000       -2.022643         2    ;  uncertainty k = 0.082864
        23        24        25        46     9        0.000000        1.040478         3    ;  uncertainty k = 0.039004
        23        24        25        46     9      180.000000        0.229250         4    ;  uncertainty k = 0.034228
        23        24        25        47     9        0.000000        1.112845         1    ;  uncertainty k = 0.103178
        23        24        25        47     9      180.000000       -2.022643         2    ;  uncertainty k = 0.082864
        23        24        25        47     9        0.000000        1.040478         3    ;  uncertainty k = 0.039004
        23        24        25        47     9      180.000000        0.229250         4    ;  uncertainty k = 0.034228
        23        26        27        28     9        0.000000        0.964835         1    ;  uncertainty k = 0.487892
        23        26        27        28     9      180.000000        5.588063         2    ;  uncertainty k = 0.185697
        23        26        27        28     9        0.000000        1.649424         3    ;  uncertainty k = 0.107621
        23        26        27        28     9      180.000000        0.043020         4    ;  uncertainty k = 0.050222
        23        26        29        51     9        0.000000        0.127329         1    ;  uncertainty k = 0.442114
        23        26        29        51     9      180.000000        6.705909         2    ;  uncertainty k = 0.374607
        23        26        29        51     9        0.000000        1.449705         3    ;  uncertainty k = 0.216502
        23        26        29        51     9      180.000000        1.651952         4    ;  uncertainty k = 0.099448
        24        23        22        44     9        0.000000       -0.165175         1    ;  uncertainty k = 0.217548
        24        23        22        44     9      180.000000        9.159951         2    ;  uncertainty k = 0.396818
        24        23        22        44     9        0.000000        0.851184         3    ;  uncertainty k = 0.126617
        24        23        22        44     9      180.000000        1.218800         4    ;  uncertainty k = 0.309716
        24        23        26        27     9        0.000000       -0.341456         1    ;  uncertainty k = 1.859912
        24        23        26        27     9      180.000000       13.064536         2    ;  uncertainty k = 0.569185
        24        23        26        27     9        0.000000        0.817588         3    ;  uncertainty k = 0.428631
        24        23        26        27     9      180.000000        1.204286         4    ;  uncertainty k = 0.526597
        24        23        26        29     9        0.000000        0.515557         1    ;  uncertainty k = 0.299238
        24        23        26        29     9      180.000000        7.954904         2    ;  uncertainty k = 0.736958
        24        23        26        29     9        0.000000        1.164308         3    ;  uncertainty k = 0.363484
        24        23        26        29     9      180.000000        1.614907         4    ;  uncertainty k = 0.248124
        25        24        23        26     9        0.000000        0.710048         1    ;  uncertainty k = 0.461814
        25        24        23        26     9      180.000000        5.168558         2    ;  uncertainty k = 0.168703
        25        24        23        26     9        0.000000        1.522737         3    ;  uncertainty k = 0.085019
        25        24        23        26     9      180.000000        0.086569         4    ;  uncertainty k = 0.079161
        26        23        22        44     9        0.000000       -0.032441         1    ;  uncertainty k = 0.368383
        26        23        22        44     9      180.000000        5.959630         2    ;  uncertainty k = 0.432855
        26        23        22        44     9        0.000000        1.321132         3    ;  uncertainty k = 0.261790
        26        23        22        44     9      180.000000        1.598351         4    ;  uncertainty k = 0.068541
        26        27        28        48     9        0.000000        1.110244         1    ;  uncertainty k = 0.221946
        26        27        28        48     9      180.000000       -2.083405         2    ;  uncertainty k = 0.117432
        26        27        28        48     9        0.000000        1.033193         3    ;  uncertainty k = 0.049822
        26        27        28        48     9      180.000000        0.223293         4    ;  uncertainty k = 0.039929
        26        27        28        49     9        0.000000        1.110244         1    ;  uncertainty k = 0.221946
        26        27        28        49     9      180.000000       -2.083405         2    ;  uncertainty k = 0.117432
        26        27        28        49     9        0.000000        1.033193         3    ;  uncertainty k = 0.049822
        26        27        28        49     9      180.000000        0.223293         4    ;  uncertainty k = 0.039929
        26        27        28        50     9        0.000000        1.110244         1    ;  uncertainty k = 0.221946
        26        27        28        50     9      180.000000       -2.083405         2    ;  uncertainty k = 0.117432
        26        27        28        50     9        0.000000        1.033193         3    ;  uncertainty k = 0.049822
        26        27        28        50     9      180.000000        0.223293         4    ;  uncertainty k = 0.039929
        27        26        29        51     9        0.000000       -0.013363         1    ;  uncertainty k = 0.227813
        27        26        29        51     9      180.000000        9.629865         2    ;  uncertainty k = 0.341224
        27        26        29        51     9        0.000000        0.885573         3    ;  uncertainty k = 0.134167
        27        26        29        51     9      180.000000        1.294493         4    ;  uncertainty k = 0.314814
        28        27        26        29     9        0.000000        1.341410         1    ;  uncertainty k = 0.791974
        28        27        26        29     9      180.000000        6.361827         2    ;  uncertainty k = 0.220149
        28        27        26        29     9        0.000000       -0.225720         3    ;  uncertainty k = 0.095998
        28        27        26        29     9      180.000000        0.006632         4    ;  uncertainty k = 0.110606
        29        20        19        42     9        0.000000        3.766905         1    ;  uncertainty k = 0.282403
        29        20        19        42     9      180.000000        4.224137         2    ;  uncertainty k = 0.219472
        29        20        19        42     9        0.000000        0.731782         3    ;  uncertainty k = 0.239893
        29        20        19        42     9      180.000000        0.435986         4    ;  uncertainty k = 0.107234
        29        20        21        43     9        0.000000        0.060116         1    ;  uncertainty k = 0.285327
        29        20        21        43     9      180.000000        6.705138         2    ;  uncertainty k = 0.811644
        29        20        21        43     9        0.000000        1.254750         3    ;  uncertainty k = 0.282861
        29        20        21        43     9      180.000000        1.489479         4    ;  uncertainty k = 0.123485
        30        11        12        39     9        0.000000        0.400300         1    ;  uncertainty k = 0.999411
        30        11        12        39     9      180.000000       12.773516         2    ;  uncertainty k = 0.371018
        30        11        12        39     9        0.000000        1.630574         3    ;  uncertainty k = 0.622599
        30        11        12        39     9      180.000000        1.089831         4    ;  uncertainty k = 0.430455
        30        18        19        42     9        0.000000        8.922955         1    ;  uncertainty k = 0.590684
        30        18        19        42     9      180.000000        9.664258         2    ;  uncertainty k = 0.294391
        30        18        19        42     9        0.000000        1.087485         3    ;  uncertainty k = 0.311608
        30        18        19        42     9      180.000000       -0.057211         4    ;  uncertainty k = 0.149118
        31         1         2        34     9        0.000000       -0.223518         1    ;  uncertainty k = 0.192894
        31         1         2        34     9      180.000000       -1.041836         2    ;  uncertainty k = 0.166941
        31         1         2        34     9        0.000000        0.478388         3    ;  uncertainty k = 0.062713
        31         1         2        34     9      180.000000        0.161514         4    ;  uncertainty k = 0.069534
        32         1         2        34     9        0.000000       -0.223518         1    ;  uncertainty k = 0.192894
        32         1         2        34     9      180.000000       -1.041836         2    ;  uncertainty k = 0.166941
        32         1         2        34     9        0.000000        0.478388         3    ;  uncertainty k = 0.062713
        32         1         2        34     9      180.000000        0.161514         4    ;  uncertainty k = 0.069534
        33         1         2        34     9        0.000000       -0.223518         1    ;  uncertainty k = 0.192894
        33         1         2        34     9      180.000000       -1.041836         2    ;  uncertainty k = 0.166941
        33         1         2        34     9        0.000000        0.478388         3    ;  uncertainty k = 0.062713
        33         1         2        34     9      180.000000        0.161514         4    ;  uncertainty k = 0.069534
        35         6         7        36     9        0.000000       -0.181366         1    ;  uncertainty k = 0.248416
        35         6         7        36     9      180.000000        7.829879         2    ;  uncertainty k = 0.381769
        35         6         7        36     9        0.000000       -0.366819         3    ;  uncertainty k = 0.208909
        35         6         7        36     9      180.000000        0.166368         4    ;  uncertainty k = 0.142861
        36         7         8        37     9        0.000000       -0.168338         1    ;  uncertainty k = 0.209337
        36         7         8        37     9      180.000000        7.942594         2    ;  uncertainty k = 0.305248
        36         7         8        37     9        0.000000       -0.425408         3    ;  uncertainty k = 0.239929
        36         7         8        37     9      180.000000        0.154353         4    ;  uncertainty k = 0.150806
        40        14        15        41     9        0.000000       -0.311076         1    ;  uncertainty k = 0.492452
        40        14        15        41     9      180.000000        5.384358         2    ;  uncertainty k = 0.598236
        40        14        15        41     9        0.000000        1.243313         3    ;  uncertainty k = 0.430720
        40        14        15        41     9      180.000000        0.271791         4    ;  uncertainty k = 0.092255
        43        21        22        44     9        0.000000       -0.108356         1    ;  uncertainty k = 0.187629
        43        21        22        44     9      180.000000        7.451231         2    ;  uncertainty k = 0.478630
        43        21        22        44     9        0.000000       -0.297348         3    ;  uncertainty k = 0.298878
        43        21        22        44     9      180.000000        0.257401         4    ;  uncertainty k = 0.173209

[ dihedrals ] ; impropers
;       ai        aj        ak        al funct           phase               k        pn
         3         2         4         5     4      180.000000       50.930546         2    ;  uncertainty k = 0.019758
         3         4         5         2     4      180.000000       50.930546         2    ;  uncertainty k = 0.019758
         3         5         2         4     4      180.000000       50.930546         2    ;  uncertainty k = 0.019758
         5         3         6        10     4      180.000000        8.189547         2    ;  uncertainty k = 0.105369
         5         6        10         3     4      180.000000        8.189547         2    ;  uncertainty k = 0.105369
         5        10         3         6     4      180.000000        8.189547         2    ;  uncertainty k = 0.105369
         6         5         7        35     4      180.000000        4.289609         2    ;  uncertainty k = 0.172455
         6         7        35         5     4      180.000000        4.289609         2    ;  uncertainty k = 0.172455
         6        35         5         7     4      180.000000        4.289609         2    ;  uncertainty k = 0.172455
         7         6         8        36     4      180.000000        3.392501         2    ;  uncertainty k = 0.174525
         7         8        36         6     4      180.000000        3.392501         2    ;  uncertainty k = 0.174525
         7        36         6         8     4      180.000000        3.392501         2    ;  uncertainty k = 0.174525
         8         7         9        37     4      180.000000        4.456895         2    ;  uncertainty k = 0.077296
         8         9        37         7     4      180.000000        4.456895         2    ;  uncertainty k = 0.077296
         8        37         7         9     4      180.000000        4.456895         2    ;  uncertainty k = 0.077296
         9         8        10        11     4      180.000000       10.910572         2    ;  uncertainty k = 0.154331
         9        10        11         8     4      180.000000       10.910572         2    ;  uncertainty k = 0.154331
         9        11         8        10     4      180.000000       10.910572         2    ;  uncertainty k = 0.154331
        10         5         9        38     4      180.000000        4.480540         2    ;  uncertainty k = 0.242114
        10         9        38         5     4      180.000000        4.480540         2    ;  uncertainty k = 0.242114
        10        38         5         9     4      180.000000        4.480540         2    ;  uncertainty k = 0.242114
        11         9        12        30     4      180.000000       19.449386         2    ;  uncertainty k = 0.082010
        11        12        30         9     4      180.000000       19.449386         2    ;  uncertainty k = 0.082010
        11        30         9        12     4      180.000000       19.449386         2    ;  uncertainty k = 0.082010
        12        11        13        39     4      180.000000        1.395887         2    ;  uncertainty k = 1.170224
        12        13        39        11     4      180.000000        1.395887         2    ;  uncertainty k = 1.170224
        12        39        11        13     4      180.000000        1.395887         2    ;  uncertainty k = 1.170224
        13        12        14        17     4      180.000000        1.589329         2    ;  uncertainty k = 1.390531
        13        14        17        12     4      180.000000        1.589329         2    ;  uncertainty k = 1.390531
        13        17        12        14     4      180.000000        1.589329         2    ;  uncertainty k = 1.390531
        14        13        15        40     4      180.000000        0.105192         2    ;  uncertainty k = 0.235217
        14        15        40        13     4      180.000000        0.105192         2    ;  uncertainty k = 0.235217
        14        40        13        15     4      180.000000        0.105192         2    ;  uncertainty k = 0.235217
        15        14        16        41     4      180.000000        1.779605         2    ;  uncertainty k = 0.230154
        15        16        41        14     4      180.000000        1.779605         2    ;  uncertainty k = 0.230154
        15        41        14        16     4      180.000000        1.779605         2    ;  uncertainty k = 0.230154
        17        13        16        18     4      180.000000        2.165377         2    ;  uncertainty k = 0.627947
        17        16        18        13     4      180.000000        2.165377         2    ;  uncertainty k = 0.627947
        17        18        13        16     4      180.000000        2.165377         2    ;  uncertainty k = 0.627947
        18        17        19        30     4      180.000000       28.356143         2    ;  uncertainty k = 0.063061
        18        19        30        17     4      180.000000       28.356143         2    ;  uncertainty k = 0.063061
        18        30        17        19     4      180.000000       28.356143         2    ;  uncertainty k = 0.063061
        19        18        20        42     4      180.000000        1.622506         2    ;  uncertainty k = 0.666334
        19        20        42        18     4      180.000000        1.622506         2    ;  uncertainty k = 0.666334
        19        42        18        20     4      180.000000        1.622506         2    ;  uncertainty k = 0.666334
        20        19        21        29     4      180.000000       17.507521         2    ;  uncertainty k = 0.057196
        20        21        29        19     4      180.000000       17.507521         2    ;  uncertainty k = 0.057196
        20        29        19        21     4      180.000000       17.507521         2    ;  uncertainty k = 0.057196
        21        20        22        43     4      180.000000        2.607477         2    ;  uncertainty k = 0.379218
        21        22        43        20     4      180.000000        2.607477         2    ;  uncertainty k = 0.379218
        21        43        20        22     4      180.000000        2.607477         2    ;  uncertainty k = 0.379218
        22        21        23        44     4      180.000000        2.008332         2    ;  uncertainty k = 0.230962
        22        23        44        21     4      180.000000        2.008332         2    ;  uncertainty k = 0.230962
        22        44        21        23     4      180.000000        2.008332         2    ;  uncertainty k = 0.230962
        23        22        24        26     4      180.000000       15.206031         2    ;  uncertainty k = 0.074968
        23        24        26        22     4      180.000000       15.206031         2    ;  uncertainty k = 0.074968
        23        26        22        24     4      180.000000       15.206031         2    ;  uncertainty k = 0.074968
        26        23        27        29     4      180.000000       16.672261         2    ;  uncertainty k = 0.075717
        26        27        29        23     4      180.000000       16.672261         2    ;  uncertainty k = 0.075717
        26        29        23        27     4      180.000000       16.672261         2    ;  uncertainty k = 0.075717
        29        20        26        51     4      180.000000        1.689049         2    ;  uncertainty k = 0.529655
        29        26        51        20     4      180.000000        1.689049         2    ;  uncertainty k = 0.529655
        29        51        20        26     4      180.000000        1.689049         2    ;  uncertainty k = 0.529655

[ pairs ]
;       ai        aj funct
         1         4     1
         1         5     1
         2         6     1
         2        10     1
         3         7     1
         3         9     1
         3        31     1
         3        32     1
         3        33     1
         3        35     1
         3        38     1
         4         6     1
         4        10     1
         4        34     1
         5         8     1
         5        11     1
         5        34     1
         5        36     1
         6         9     1
         6        37     1
         6        38     1
         7        10     1
         7        11     1
         8        12     1
         8        30     1
         8        35     1
         8        38     1
         9        13     1
         9        18     1
         9        36     1
         9        39     1
        10        12     1
        10        30     1
        10        35     1
        10        37     1
        11        14     1
        11        17     1
        11        19     1
        11        37     1
        11        38     1
        12        15     1
        12        16     1
        12        18     1
        12        40     1
        13        19     1
        13        30     1
        13        41     1
        14        18     1
        14        39     1
        15        18     1
        16        19     1
        16        30     1
        16        40     1
        17        20     1
        17        39     1
        17        40     1
        17        41     1
        17        42     1
        18        21     1
        18        29     1
        19        22     1
        19        26     1
        19        43     1
        19        51     1
        20        23     1
        20        27     1
        20        30     1
        20        44     1
        21        24     1
        21        26     1
        21        42     1
        21        51     1
        22        25     1
        22        27     1
        22        29     1
        23        28     1
        23        43     1
        23        45     1
        23        46     1
        23        47     1
        23        51     1
        24        27     1
        24        29     1
        24        44     1
        25        26     1
        26        44     1
        26        48     1
        26        49     1
        26        50     1
        27        51     1
        28        29     1
        29        42     1
        29        43     1
        30        39     1
        30        42     1
        31        34     1
        32        34     1
        33        34     1
        35        36     1
        36        37     1
        40        41     1
        43        44     1
