; ITP file created by ByteFF-joint-25, 2026-02-17 09:45:07.748058

[ atomtypes ]
;name           bonded.type        at.num        mass        charge   ptype           sigma         epsilon
 c0bf                                   6      0.0000       0.00000       A     3.39774e-01     4.50890e-01    ;  uncertainty sigma = 0.000006, epsilon = 0.000514
 o1bf                                   8      0.0000       0.00000       A     3.15641e-01     3.03850e-01    ;  uncertainty sigma = 0.000015, epsilon = 0.000455
 c2bf                                   6      0.0000       0.00000       A     3.31526e-01     4.13474e-01    ;  uncertainty sigma = 0.000006, epsilon = 0.000721
 c3bf                                   6      0.0000       0.00000       A     3.31529e-01     4.13640e-01    ;  uncertainty sigma = 0.000005, epsilon = 0.000792
 c4bf                                   6      0.0000       0.00000       A     3.31525e-01     4.13354e-01    ;  uncertainty sigma = 0.000006, epsilon = 0.000662
 c5bf                                   6      0.0000       0.00000       A     3.31528e-01     4.13588e-01    ;  uncertainty sigma = 0.000010, epsilon = 0.000818
 n6bf                                   7      0.0000       0.00000       A     3.27852e-01     6.46169e-01    ;  uncertainty sigma = 0.000043, epsilon = 0.003219
 c7bf                                   6      0.0000       0.00000       A     3.31526e-01     4.13887e-01    ;  uncertainty sigma = 0.000017, epsilon = 0.001682
 n8bf                                   7      0.0000       0.00000       A     3.38466e-01     3.93319e-01    ;  uncertainty sigma = 0.000031, epsilon = 0.000671
 c9bf                                   6      0.0000       0.00000       A     3.31556e-01     4.13456e-01    ;  uncertainty sigma = 0.000023, epsilon = 0.000743
 c10bf                                  6      0.0000       0.00000       A     3.31559e-01     4.13603e-01    ;  uncertainty sigma = 0.000013, epsilon = 0.001559
 n11bf                                  7      0.0000       0.00000       A     3.20547e-01     8.53303e-01    ;  uncertainty sigma = 0.000017, epsilon = 0.000844
 c12bf                                  6      0.0000       0.00000       A     3.31503e-01     4.12978e-01    ;  uncertainty sigma = 0.000012, epsilon = 0.001136
 c13bf                                  6      0.0000       0.00000       A     3.31531e-01     4.13187e-01    ;  uncertainty sigma = 0.000008, epsilon = 0.000699
 n14bf                                  7      0.0000       0.00000       A     3.38427e-01     3.92895e-01    ;  uncertainty sigma = 0.000039, epsilon = 0.000415
 c15bf                                  6      0.0000       0.00000       A     3.31554e-01     4.12537e-01    ;  uncertainty sigma = 0.000015, epsilon = 0.000432
 c16bf                                  6      0.0000       0.00000       A     3.31511e-01     4.13152e-01    ;  uncertainty sigma = 0.000015, epsilon = 0.000798
 c17bf                                  6      0.0000       0.00000       A     3.31514e-01     4.13393e-01    ;  uncertainty sigma = 0.000004, epsilon = 0.000578
 c18bf                                  6      0.0000       0.00000       A     3.31517e-01     4.13425e-01    ;  uncertainty sigma = 0.000005, epsilon = 0.000668
 c19bf                                  6      0.0000       0.00000       A     3.31497e-01     4.13033e-01    ;  uncertainty sigma = 0.000008, epsilon = 0.001189
 c20bf                                  6      0.0000       0.00000       A     3.31541e-01     4.13248e-01    ;  uncertainty sigma = 0.000029, epsilon = 0.001020
 o21bf                                  8      0.0000       0.00000       A     3.04808e-01     6.12421e-01    ;  uncertainty sigma = 0.000019, epsilon = 0.001913
 n22bf                                  7      0.0000       0.00000       A     3.36029e-01     3.53843e-01    ;  uncertainty sigma = 0.000043, epsilon = 0.001432
 c23bf                                  6      0.0000       0.00000       A     3.31521e-01     4.13176e-01    ;  uncertainty sigma = 0.000010, epsilon = 0.000796
 c24bf                                  6      0.0000       0.00000       A     3.39777e-01     4.51042e-01    ;  uncertainty sigma = 0.000005, epsilon = 0.000510
 c25bf                                  6      0.0000       0.00000       A     3.31519e-01     4.13379e-01    ;  uncertainty sigma = 0.000008, epsilon = 0.000738
 c26bf                                  6      0.0000       0.00000       A     3.31516e-01     4.13129e-01    ;  uncertainty sigma = 0.000010, epsilon = 0.000957
 c27bf                                  6      0.0000       0.00000       A     3.31531e-01     4.13728e-01    ;  uncertainty sigma = 0.000008, epsilon = 0.001049
 o28bf                                  8      0.0000       0.00000       A     3.15636e-01     3.03949e-01    ;  uncertainty sigma = 0.000015, epsilon = 0.000670
 c29bf                                  6      0.0000       0.00000       A     3.39774e-01     4.50890e-01    ;  uncertainty sigma = 0.000006, epsilon = 0.000514
 h30bf                                  1      0.0000       0.00000       A     2.42205e-01     8.67538e-02    ;  uncertainty sigma = 0.000015, epsilon = 0.000624
 h31bf                                  1      0.0000       0.00000       A     2.42205e-01     8.67538e-02    ;  uncertainty sigma = 0.000015, epsilon = 0.000624
 h32bf                                  1      0.0000       0.00000       A     2.42205e-01     8.67538e-02    ;  uncertainty sigma = 0.000015, epsilon = 0.000624
 h33bf                                  1      0.0000       0.00000       A     2.62570e-01     6.70700e-02    ;  uncertainty sigma = 0.000012, epsilon = 0.000330
 h34bf                                  1      0.0000       0.00000       A     2.62564e-01     6.70248e-02    ;  uncertainty sigma = 0.000015, epsilon = 0.000426
 h35bf                                  1      0.0000       0.00000       A     1.10708e-01     4.06502e-02    ;  uncertainty sigma = 0.000118, epsilon = 0.000465
 h36bf                                  1      0.0000       0.00000       A     2.53612e-01     6.73649e-02    ;  uncertainty sigma = 0.000081, epsilon = 0.000889
 h37bf                                  1      0.0000       0.00000       A     2.53649e-01     6.68496e-02    ;  uncertainty sigma = 0.000023, epsilon = 0.000657
 h38bf                                  1      0.0000       0.00000       A     2.53645e-01     6.69492e-02    ;  uncertainty sigma = 0.000020, epsilon = 0.000834
 h39bf                                  1      0.0000       0.00000       A     2.62565e-01     6.70447e-02    ;  uncertainty sigma = 0.000011, epsilon = 0.000506
 h40bf                                  1      0.0000       0.00000       A     2.62572e-01     6.71719e-02    ;  uncertainty sigma = 0.000007, epsilon = 0.000649
 h41bf                                  1      0.0000       0.00000       A     1.10644e-01     4.14127e-02    ;  uncertainty sigma = 0.000051, epsilon = 0.000340
 h42bf                                  1      0.0000       0.00000       A     1.10644e-01     4.14127e-02    ;  uncertainty sigma = 0.000051, epsilon = 0.000340
 h43bf                                  1      0.0000       0.00000       A     2.60030e-01     8.67017e-02    ;  uncertainty sigma = 0.000007, epsilon = 0.000472
 h44bf                                  1      0.0000       0.00000       A     2.60030e-01     8.67017e-02    ;  uncertainty sigma = 0.000007, epsilon = 0.000472
 h45bf                                  1      0.0000       0.00000       A     2.60030e-01     8.67017e-02    ;  uncertainty sigma = 0.000007, epsilon = 0.000472
 h46bf                                  1      0.0000       0.00000       A     2.62563e-01     6.71533e-02    ;  uncertainty sigma = 0.000015, epsilon = 0.000522
 h47bf                                  1      0.0000       0.00000       A     2.62560e-01     6.71373e-02    ;  uncertainty sigma = 0.000017, epsilon = 0.000539
 h48bf                                  1      0.0000       0.00000       A     2.42205e-01     8.67538e-02    ;  uncertainty sigma = 0.000015, epsilon = 0.000624
 h49bf                                  1      0.0000       0.00000       A     2.42205e-01     8.67538e-02    ;  uncertainty sigma = 0.000015, epsilon = 0.000624
 h50bf                                  1      0.0000       0.00000       A     2.42205e-01     8.67538e-02    ;  uncertainty sigma = 0.000015, epsilon = 0.000624

[ moleculetype ]
;name             nrexcl
 MOL                   3

[ atoms ]
;       nr            type      resi   res      atom      cgnr      charge          mass ; qtot
         1            c0bf         1   UNL        c0         1     0.11960       12.0110 ; qtot    0.120
         2            o1bf         1   UNL        o1         2    -0.32010       15.9990 ; qtot   -0.201
         3            c2bf         1   UNL        c2         3     0.07584       12.0110 ; qtot   -0.125
         4            c3bf         1   UNL        c3         4    -0.15014       12.0110 ; qtot   -0.275
         5            c4bf         1   UNL        c4         5    -0.15106       12.0110 ; qtot   -0.426
         6            c5bf         1   UNL        c5         6     0.16694       12.0110 ; qtot   -0.259
         7            n6bf         1   UNL        n6         7    -0.73903       14.0070 ; qtot   -0.998
         8            c7bf         1   UNL        c7         8     0.75065       12.0110 ; qtot   -0.247
         9            n8bf         1   UNL        n8         9    -0.76815       14.0070 ; qtot   -1.015
        10            c9bf         1   UNL        c9        10     0.47689       12.0110 ; qtot   -0.539
        11           c10bf         1   UNL       c10        11    -0.21980       12.0110 ; qtot   -0.758
        12           n11bf         1   UNL       n11        12     0.05302       14.0070 ; qtot   -0.705
        13           c12bf         1   UNL       c12        13    -0.21243       12.0110 ; qtot   -0.918
        14           c13bf         1   UNL       c13        14     0.01175       12.0110 ; qtot   -0.906
        15           n14bf         1   UNL       n14        15    -0.27543       14.0070 ; qtot   -1.181
        16           c15bf         1   UNL       c15        16    -0.18460       12.0110 ; qtot   -1.366
        17           c16bf         1   UNL       c16        17    -0.10564       12.0110 ; qtot   -1.472
        18           c17bf         1   UNL       c17        18    -0.11755       12.0110 ; qtot   -1.589
        19           c18bf         1   UNL       c18        19    -0.09653       12.0110 ; qtot   -1.686
        20           c19bf         1   UNL       c19        20    -0.14542       12.0110 ; qtot   -1.831
        21           c20bf         1   UNL       c20        21     0.66889       12.0110 ; qtot   -1.162
        22           o21bf         1   UNL       o21        22    -0.59359       15.9990 ; qtot   -1.756
        23           n22bf         1   UNL       n22        23    -0.66064       14.0070 ; qtot   -2.417
        24           c23bf         1   UNL       c23        24    -0.03140       12.0110 ; qtot   -2.448
        25           c24bf         1   UNL       c24        25    -0.05283       12.0110 ; qtot   -2.501
        26           c25bf         1   UNL       c25        26    -0.11988       12.0110 ; qtot   -2.621
        27           c26bf         1   UNL       c26        27    -0.20840       12.0110 ; qtot   -2.829
        28           c27bf         1   UNL       c27        28     0.11790       12.0110 ; qtot   -2.711
        29           o28bf         1   UNL       o28        29    -0.31927       15.9990 ; qtot   -3.030
        30           c29bf         1   UNL       c29        30     0.11995       12.0110 ; qtot   -2.910
        31           h30bf         1   UNL       h30        31     0.04337        1.0080 ; qtot   -2.867
        32           h31bf         1   UNL       h31        32     0.04337        1.0080 ; qtot   -2.824
        33           h32bf         1   UNL       h32        33     0.04337        1.0080 ; qtot   -2.780
        34           h33bf         1   UNL       h33        34     0.14091        1.0080 ; qtot   -2.639
        35           h34bf         1   UNL       h34        35     0.15302        1.0080 ; qtot   -2.486
        36           h35bf         1   UNL       h35        36     0.46165        1.0080 ; qtot   -2.025
        37           h36bf         1   UNL       h36        37     0.17424        1.0080 ; qtot   -1.851
        38           h37bf         1   UNL       h37        38     0.18619        1.0080 ; qtot   -1.664
        39           h38bf         1   UNL       h38        39     0.17120        1.0080 ; qtot   -1.493
        40           h39bf         1   UNL       h39        40     0.14661        1.0080 ; qtot   -1.347
        41           h40bf         1   UNL       h40        41     0.14530        1.0080 ; qtot   -1.201
        42           h41bf         1   UNL       h41        42     0.30928        1.0080 ; qtot   -0.892
        43           h42bf         1   UNL       h42        43     0.30928        1.0080 ; qtot   -0.583
        44           h43bf         1   UNL       h43        44     0.05115        1.0080 ; qtot   -0.532
        45           h44bf         1   UNL       h44        45     0.05115        1.0080 ; qtot   -0.480
        46           h45bf         1   UNL       h45        46     0.05115        1.0080 ; qtot   -0.429
        47           h46bf         1   UNL       h46        47     0.14347        1.0080 ; qtot   -0.286
        48           h47bf         1   UNL       h47        48     0.15565        1.0080 ; qtot   -0.130
        49           h48bf         1   UNL       h48        49     0.04337        1.0080 ; qtot   -0.087
        50           h49bf         1   UNL       h49        50     0.04337        1.0080 ; qtot   -0.043
        51           h50bf         1   UNL       h50        51     0.04336        1.0080 ; qtot   -0.000

[ bonds ]
;       ai        aj funct               r               k
         1         2     1        0.142504   247060.424561    ;  uncertainty r = 0.000030, k = 4.357279
         1        31     1        0.109559   311162.501807    ;  uncertainty r = 0.000020, k = 1.272505
         1        32     1        0.109559   311162.501807    ;  uncertainty r = 0.000020, k = 1.272505
         1        33     1        0.109559   311162.501807    ;  uncertainty r = 0.000020, k = 1.272505
         2         3     1        0.136892   321113.062012    ;  uncertainty r = 0.000059, k = 4.532937
         3         4     1        0.139488   349133.425439    ;  uncertainty r = 0.000031, k = 2.724656
         3        28     1        0.140227   349402.969629    ;  uncertainty r = 0.000054, k = 7.584627
         4         5     1        0.139369   369864.655127    ;  uncertainty r = 0.000071, k = 2.574425
         4        34     1        0.108705   336290.634375    ;  uncertainty r = 0.000024, k = 1.905467
         5         6     1        0.139713   352891.517529    ;  uncertainty r = 0.000095, k = 4.859039
         5        35     1        0.108700   336152.248779    ;  uncertainty r = 0.000031, k = 1.798265
         6         7     1        0.141333   346668.455957    ;  uncertainty r = 0.000119, k = 12.315044
         6        27     1        0.140236   355873.307031    ;  uncertainty r = 0.000083, k = 5.100092
         7         8     1        0.137988   330814.533252    ;  uncertainty r = 0.000224, k = 31.605630
         7        36     1        0.102091   426736.870264    ;  uncertainty r = 0.000039, k = 5.302920
         8         9     1        0.132294   443005.770996    ;  uncertainty r = 0.000186, k = 13.577353
         8        16     1        0.143016   286566.945654    ;  uncertainty r = 0.000095, k = 10.976562
         9        10     1        0.137509   259598.736670    ;  uncertainty r = 0.000250, k = 25.283783
        10        11     1        0.136955   381436.004590    ;  uncertainty r = 0.000105, k = 11.906486
        10        17     1        0.147282   264726.996826    ;  uncertainty r = 0.000144, k = 12.297943
        11        12     1        0.137882   325401.789697    ;  uncertainty r = 0.000063, k = 6.041351
        11        37     1        0.108486   340798.827979    ;  uncertainty r = 0.000072, k = 2.317242
        12        13     1        0.137812   342777.341064    ;  uncertainty r = 0.000099, k = 5.087994
        12        16     1        0.139016   307421.213135    ;  uncertainty r = 0.000151, k = 23.940608
        13        14     1        0.138713   413349.321582    ;  uncertainty r = 0.000044, k = 11.515297
        13        38     1        0.108153   341281.147363    ;  uncertainty r = 0.000029, k = 4.725641
        14        15     1        0.136694   264650.947314    ;  uncertainty r = 0.000104, k = 21.676776
        14        39     1        0.108374   336399.652295    ;  uncertainty r = 0.000052, k = 2.763004
        15        16     1        0.133277   447135.785547    ;  uncertainty r = 0.000097, k = 11.841721
        17        18     1        0.139711   349273.905078    ;  uncertainty r = 0.000062, k = 2.950241
        17        26     1        0.139824   346806.560645    ;  uncertainty r = 0.000010, k = 2.077018
        18        19     1        0.138987   363370.517139    ;  uncertainty r = 0.000090, k = 3.086088
        18        40     1        0.108759   333020.811816    ;  uncertainty r = 0.000032, k = 0.913367
        19        20     1        0.140176   351881.601465    ;  uncertainty r = 0.000050, k = 5.720629
        19        41     1        0.108714   332108.958252    ;  uncertainty r = 0.000033, k = 0.731853
        20        21     1        0.149722   237941.556934    ;  uncertainty r = 0.000117, k = 13.178219
        20        24     1        0.141051   331820.695361    ;  uncertainty r = 0.000100, k = 9.073567
        21        22     1        0.123716   902842.029297    ;  uncertainty r = 0.000039, k = 4.846601
        21        23     1        0.139066   488344.508203    ;  uncertainty r = 0.000113, k = 13.110859
        23        42     1        0.101651   429928.472656    ;  uncertainty r = 0.000045, k = 2.540822
        23        43     1        0.101651   429928.472656    ;  uncertainty r = 0.000045, k = 2.540822
        24        25     1        0.151305   233674.612402    ;  uncertainty r = 0.000062, k = 5.161881
        24        26     1        0.139789   345644.622168    ;  uncertainty r = 0.000088, k = 4.322889
        25        44     1        0.109428   309383.229248    ;  uncertainty r = 0.000007, k = 1.483635
        25        45     1        0.109428   309383.229248    ;  uncertainty r = 0.000007, k = 1.483635
        25        46     1        0.109428   309383.229248    ;  uncertainty r = 0.000007, k = 1.483635
        26        47     1        0.108769   333797.650684    ;  uncertainty r = 0.000030, k = 0.728791
        27        28     1        0.139270   345625.520410    ;  uncertainty r = 0.000054, k = 5.224456
        27        48     1        0.108746   339222.268994    ;  uncertainty r = 0.000057, k = 2.203703
        28        29     1        0.136641   322875.224707    ;  uncertainty r = 0.000095, k = 4.764590
        29        30     1        0.142472   247648.314355    ;  uncertainty r = 0.000036, k = 5.188422
        30        49     1        0.109559   311162.501807    ;  uncertainty r = 0.000020, k = 1.272500
        30        50     1        0.109559   311162.501807    ;  uncertainty r = 0.000020, k = 1.272491
        30        51     1        0.109559   311162.501807    ;  uncertainty r = 0.000020, k = 1.272497

[ angles ]
;       ai        aj        ak funct           theta             cth
         1         2         3     1      110.612503      514.276204    ;  uncertainty theta = 0.001142, k = 0.053109
         2         1        31     1      108.817703      445.633093    ;  uncertainty theta = 0.001397, k = 0.017155
         2         1        32     1      108.817703      445.633093    ;  uncertainty theta = 0.001397, k = 0.017155
         2         1        33     1      108.817703      445.633093    ;  uncertainty theta = 0.001397, k = 0.017155
         2         3         4     1      120.713829      429.663653    ;  uncertainty theta = 0.002887, k = 0.102450
         2         3        28     1      116.739212      371.002135    ;  uncertainty theta = 0.004292, k = 0.133275
         3         4         5     1      122.308617      511.833707    ;  uncertainty theta = 0.002874, k = 0.098838
         3         4        34     1      117.399475      269.501128    ;  uncertainty theta = 0.000644, k = 0.068639
         3        28        27     1      122.924828      372.294473    ;  uncertainty theta = 0.004880, k = 0.131595
         3        28        29     1      116.892052      375.388038    ;  uncertainty theta = 0.003912, k = 0.086739
         4         3        28     1      121.473427      368.904773    ;  uncertainty theta = 0.004194, k = 0.139265
         4         5         6     1      119.248634      497.970121    ;  uncertainty theta = 0.001680, k = 0.102369
         4         5        35     1      121.012962      296.103549    ;  uncertainty theta = 0.002653, k = 0.108838
         5         4        34     1      120.002708      276.762860    ;  uncertainty theta = 0.000635, k = 0.063553
         5         6         7     1      120.412048      523.951864    ;  uncertainty theta = 0.002787, k = 0.145671
         5         6        27     1      119.564781      370.288948    ;  uncertainty theta = 0.004616, k = 0.068311
         6         5        35     1      119.526833      271.877771    ;  uncertainty theta = 0.001413, k = 0.081499
         6         7         8     1      116.303787      381.015013    ;  uncertainty theta = 0.002927, k = 0.210540
         6         7        36     1      114.186111      355.760727    ;  uncertainty theta = 0.005751, k = 0.200139
         6        27        28     1      121.379723      503.759991    ;  uncertainty theta = 0.003678, k = 0.097545
         6        27        48     1      119.577965      269.429783    ;  uncertainty theta = 0.003301, k = 0.060634
         7         6        27     1      119.861717      533.495177    ;  uncertainty theta = 0.003869, k = 0.077420
         7         8         9     1      122.084122      743.704340    ;  uncertainty theta = 0.005979, k = 0.187139
         7         8        16     1      118.339066      493.433486    ;  uncertainty theta = 0.006804, k = 0.121645
         8         7        36     1      117.061234      430.294771    ;  uncertainty theta = 0.006370, k = 0.198641
         8         9        10     1      121.092026      437.385564    ;  uncertainty theta = 0.009289, k = 0.255263
         8        16        12     1      111.142784      333.997874    ;  uncertainty theta = 0.012736, k = 0.456017
         8        16        15     1      125.515465      293.447945    ;  uncertainty theta = 0.008643, k = 0.324339
         9         8        16     1      122.397110      559.508873    ;  uncertainty theta = 0.006110, k = 0.249098
         9        10        11     1      124.543556      546.714654    ;  uncertainty theta = 0.002872, k = 0.247730
         9        10        17     1      117.184105      453.700872    ;  uncertainty theta = 0.001481, k = 0.111012
        10        11        12     1      117.529312      532.909995    ;  uncertainty theta = 0.004092, k = 0.198409
        10        11        37     1      124.634438      233.175387    ;  uncertainty theta = 0.008734, k = 0.228841
        10        17        18     1      120.063553      404.920588    ;  uncertainty theta = 0.001941, k = 0.129095
        10        17        26     1      119.728104      403.465132    ;  uncertainty theta = 0.001852, k = 0.117243
        11        10        17     1      121.390762      379.627390    ;  uncertainty theta = 0.004575, k = 0.099145
        11        12        13     1      129.664673      428.594510    ;  uncertainty theta = 0.002270, k = 0.326701
        11        12        16     1      117.420059      429.560738    ;  uncertainty theta = 0.007263, k = 0.178528
        12        11        37     1      117.417358      315.021791    ;  uncertainty theta = 0.003619, k = 0.132845
        12        13        14     1      105.324829      767.668044    ;  uncertainty theta = 0.004981, k = 0.189091
        12        13        38     1      119.539230      282.399762    ;  uncertainty theta = 0.002926, k = 0.163945
        12        16        15     1      114.523727      791.406958    ;  uncertainty theta = 0.003446, k = 0.159720
        13        12        16     1      106.195152      846.636320    ;  uncertainty theta = 0.003800, k = 0.266753
        13        14        15     1      111.223167      865.900238    ;  uncertainty theta = 0.003390, k = 0.157111
        13        14        39     1      125.339584      238.965640    ;  uncertainty theta = 0.004247, k = 0.092338
        14        13        38     1      130.781433      240.351826    ;  uncertainty theta = 0.003258, k = 0.025086
        14        15        16     1      106.065872      820.721453    ;  uncertainty theta = 0.001716, k = 0.145916
        15        14        39     1      119.156937      297.238833    ;  uncertainty theta = 0.004129, k = 0.152925
        17        18        19     1      120.245041      521.464709    ;  uncertainty theta = 0.002596, k = 0.073466
        17        18        40     1      119.145348      270.928397    ;  uncertainty theta = 0.002269, k = 0.065734
        17        26        24     1      123.763161      524.665179    ;  uncertainty theta = 0.003082, k = 0.098814
        17        26        47     1      118.334679      272.999328    ;  uncertainty theta = 0.002218, k = 0.093013
        18        17        26     1      119.379684      410.637581    ;  uncertainty theta = 0.001071, k = 0.267510
        18        19        20     1      122.914566      520.898647    ;  uncertainty theta = 0.003420, k = 0.059091
        18        19        41     1      119.949905      280.023534    ;  uncertainty theta = 0.001743, k = 0.077640
        19        18        40     1      120.605789      287.760640    ;  uncertainty theta = 0.002602, k = 0.063342
        19        20        21     1      117.253197      401.355065    ;  uncertainty theta = 0.002754, k = 0.171473
        19        20        24     1      123.831886      467.189254    ;  uncertainty theta = 0.003725, k = 0.199916
        20        19        41     1      118.544296      266.026756    ;  uncertainty theta = 0.002035, k = 0.067238
        20        21        22     1      124.493553      497.948415    ;  uncertainty theta = 0.003875, k = 0.064125
        20        21        23     1      115.067062      448.166214    ;  uncertainty theta = 0.005645, k = 0.142836
        20        24        25     1      119.136879      416.506774    ;  uncertainty theta = 0.002906, k = 0.104302
        20        24        26     1      122.319847      477.218603    ;  uncertainty theta = 0.002338, k = 0.076720
        21        20        24     1      118.076981      372.293228    ;  uncertainty theta = 0.003526, k = 0.159728
        21        23        42     1      116.594383      311.946325    ;  uncertainty theta = 0.002043, k = 0.050397
        21        23        43     1      116.594383      311.946325    ;  uncertainty theta = 0.002043, k = 0.050397
        22        21        23     1      126.722031      886.318690    ;  uncertainty theta = 0.003095, k = 0.096600
        24        25        44     1      109.807838      396.798734    ;  uncertainty theta = 0.000635, k = 0.048438
        24        25        45     1      109.807838      396.798734    ;  uncertainty theta = 0.000635, k = 0.048438
        24        25        46     1      109.807838      396.798734    ;  uncertainty theta = 0.000635, k = 0.048438
        24        26        47     1      118.253685      276.243946    ;  uncertainty theta = 0.003786, k = 0.042995
        25        24        26     1      119.595238      424.707666    ;  uncertainty theta = 0.002125, k = 0.064022
        27        28        29     1      119.984230      446.391321    ;  uncertainty theta = 0.002825, k = 0.109279
        28        27        48     1      118.198837      267.442262    ;  uncertainty theta = 0.001362, k = 0.058522
        28        29        30     1      110.584335      514.931710    ;  uncertainty theta = 0.000760, k = 0.054259
        29        30        49     1      108.804810      446.467230    ;  uncertainty theta = 0.001256, k = 0.017592
        29        30        50     1      108.804810      446.467230    ;  uncertainty theta = 0.001256, k = 0.017592
        29        30        51     1      108.804810      446.467230    ;  uncertainty theta = 0.001256, k = 0.017592
        31         1        32     1      109.159256      331.008596    ;  uncertainty theta = 0.001734, k = 0.015289
        31         1        33     1      109.159256      331.008596    ;  uncertainty theta = 0.001734, k = 0.015289
        32         1        33     1      109.159256      331.008596    ;  uncertainty theta = 0.001734, k = 0.015289
        42        23        43     1      109.663452      266.762688    ;  uncertainty theta = 0.002649, k = 0.074028
        44        25        45     1      106.704361      316.232186    ;  uncertainty theta = 0.001487, k = 0.028480
        44        25        46     1      106.704361      316.232186    ;  uncertainty theta = 0.001487, k = 0.028480
        45        25        46     1      106.704361      316.232186    ;  uncertainty theta = 0.001487, k = 0.028480
        49        30        50     1      109.159256      331.008596    ;  uncertainty theta = 0.001734, k = 0.015290
        49        30        51     1      109.159256      331.008596    ;  uncertainty theta = 0.001734, k = 0.015290
        50        30        51     1      109.159256      331.008596    ;  uncertainty theta = 0.001734, k = 0.015290

[ dihedrals ] ; propers for gromacs 4.5 or higher, use funct 9
;       ai        aj        ak        al funct           phase               k        pn
         1         2         3         4     9        0.000000        1.161590         1    ;  uncertainty k = 0.424580
         1         2         3         4     9      180.000000        5.978609         2    ;  uncertainty k = 0.113714
         1         2         3         4     9        0.000000       -0.081692         3    ;  uncertainty k = 0.147719
         1         2         3         4     9      180.000000        0.002725         4    ;  uncertainty k = 0.132587
         1         2         3        28     9        0.000000        0.710048         1    ;  uncertainty k = 0.461814
         1         2         3        28     9      180.000000        5.168557         2    ;  uncertainty k = 0.168705
         1         2         3        28     9        0.000000        1.522737         3    ;  uncertainty k = 0.085019
         1         2         3        28     9      180.000000        0.086569         4    ;  uncertainty k = 0.079161
         2         3         4         5     9        0.000000        0.075453         1    ;  uncertainty k = 0.391184
         2         3         4         5     9      180.000000       11.200366         2    ;  uncertainty k = 0.281957
         2         3         4         5     9        0.000000        1.350673         3    ;  uncertainty k = 0.315697
         2         3         4         5     9      180.000000        1.737822         4    ;  uncertainty k = 0.262819
         2         3         4        34     9        0.000000       -0.165175         1    ;  uncertainty k = 0.217547
         2         3         4        34     9      180.000000        9.159951         2    ;  uncertainty k = 0.396817
         2         3         4        34     9        0.000000        0.851185         3    ;  uncertainty k = 0.126617
         2         3         4        34     9      180.000000        1.218800         4    ;  uncertainty k = 0.309716
         2         3        28        27     9        0.000000        0.515556         1    ;  uncertainty k = 0.299239
         2         3        28        27     9      180.000000        7.954903         2    ;  uncertainty k = 0.736958
         2         3        28        27     9        0.000000        1.164308         3    ;  uncertainty k = 0.363484
         2         3        28        27     9      180.000000        1.614907         4    ;  uncertainty k = 0.248125
         2         3        28        29     9        0.000000       -0.341456         1    ;  uncertainty k = 1.859913
         2         3        28        29     9      180.000000       13.064537         2    ;  uncertainty k = 0.569185
         2         3        28        29     9        0.000000        0.817588         3    ;  uncertainty k = 0.428631
         2         3        28        29     9      180.000000        1.204285         4    ;  uncertainty k = 0.526598
         3         2         1        31     9        0.000000        1.112847         1    ;  uncertainty k = 0.103175
         3         2         1        31     9      180.000000       -2.022644         2    ;  uncertainty k = 0.082864
         3         2         1        31     9        0.000000        1.040477         3    ;  uncertainty k = 0.039004
         3         2         1        31     9      180.000000        0.229250         4    ;  uncertainty k = 0.034227
         3         2         1        32     9        0.000000        1.112847         1    ;  uncertainty k = 0.103175
         3         2         1        32     9      180.000000       -2.022644         2    ;  uncertainty k = 0.082864
         3         2         1        32     9        0.000000        1.040477         3    ;  uncertainty k = 0.039004
         3         2         1        32     9      180.000000        0.229250         4    ;  uncertainty k = 0.034227
         3         2         1        33     9        0.000000        1.112847         1    ;  uncertainty k = 0.103175
         3         2         1        33     9      180.000000       -2.022644         2    ;  uncertainty k = 0.082864
         3         2         1        33     9        0.000000        1.040477         3    ;  uncertainty k = 0.039004
         3         2         1        33     9      180.000000        0.229250         4    ;  uncertainty k = 0.034227
         3         4         5         6     9        0.000000        0.022057         1    ;  uncertainty k = 0.194405
         3         4         5         6     9      180.000000       12.959076         2    ;  uncertainty k = 0.175269
         3         4         5         6     9        0.000000       -0.661284         3    ;  uncertainty k = 0.452963
         3         4         5         6     9      180.000000        0.977500         4    ;  uncertainty k = 0.267395
         3         4         5        35     9        0.000000        0.089133         1    ;  uncertainty k = 0.324049
         3         4         5        35     9      180.000000        7.832723         2    ;  uncertainty k = 0.398222
         3         4         5        35     9        0.000000        1.298747         3    ;  uncertainty k = 0.324375
         3         4         5        35     9      180.000000        1.779745         4    ;  uncertainty k = 0.055930
         3        28        27         6     9        0.000000        0.071802         1    ;  uncertainty k = 0.106893
         3        28        27         6     9      180.000000        8.578020         2    ;  uncertainty k = 0.448413
         3        28        27         6     9        0.000000        0.405195         3    ;  uncertainty k = 0.328173
         3        28        27         6     9      180.000000        1.390162         4    ;  uncertainty k = 0.291061
         3        28        27        48     9        0.000000        0.127329         1    ;  uncertainty k = 0.442115
         3        28        27        48     9      180.000000        6.705908         2    ;  uncertainty k = 0.374607
         3        28        27        48     9        0.000000        1.449705         3    ;  uncertainty k = 0.216502
         3        28        27        48     9      180.000000        1.651952         4    ;  uncertainty k = 0.099448
         3        28        29        30     9        0.000000        0.964833         1    ;  uncertainty k = 0.487894
         3        28        29        30     9      180.000000        5.588064         2    ;  uncertainty k = 0.185698
         3        28        29        30     9        0.000000        1.649424         3    ;  uncertainty k = 0.107622
         3        28        29        30     9      180.000000        0.043020         4    ;  uncertainty k = 0.050223
         4         3        28        27     9        0.000000       -0.246361         1    ;  uncertainty k = 0.323015
         4         3        28        27     9      180.000000        5.364289         2    ;  uncertainty k = 1.281071
         4         3        28        27     9        0.000000        0.277799         3    ;  uncertainty k = 0.286511
         4         3        28        27     9      180.000000        1.297118         4    ;  uncertainty k = 0.309451
         4         3        28        29     9        0.000000        0.651705         1    ;  uncertainty k = 0.176594
         4         3        28        29     9      180.000000        7.590394         2    ;  uncertainty k = 0.603024
         4         3        28        29     9        0.000000        1.174713         3    ;  uncertainty k = 0.330890
         4         3        28        29     9      180.000000        1.724084         4    ;  uncertainty k = 0.232454
         4         5         6         7     9        0.000000        0.058897         1    ;  uncertainty k = 0.517002
         4         5         6         7     9      180.000000        9.907040         2    ;  uncertainty k = 0.506714
         4         5         6         7     9        0.000000        0.979239         3    ;  uncertainty k = 0.327123
         4         5         6         7     9      180.000000        1.580944         4    ;  uncertainty k = 0.224706
         4         5         6        27     9        0.000000       -0.065841         1    ;  uncertainty k = 0.278588
         4         5         6        27     9      180.000000        9.979296         2    ;  uncertainty k = 0.397780
         4         5         6        27     9        0.000000       -0.194578         3    ;  uncertainty k = 0.190668
         4         5         6        27     9      180.000000        1.171069         4    ;  uncertainty k = 0.255361
         5         4         3        28     9        0.000000        0.085734         1    ;  uncertainty k = 0.237541
         5         4         3        28     9      180.000000        8.042168         2    ;  uncertainty k = 0.816838
         5         4         3        28     9        0.000000        0.289471         3    ;  uncertainty k = 0.178601
         5         4         3        28     9      180.000000        1.427392         4    ;  uncertainty k = 0.249188
         5         6         7         8     9        0.000000        1.717569         1    ;  uncertainty k = 0.660151
         5         6         7         8     9      180.000000        5.521741         2    ;  uncertainty k = 0.179949
         5         6         7         8     9        0.000000        0.912155         3    ;  uncertainty k = 0.268355
         5         6         7         8     9      180.000000        0.224590         4    ;  uncertainty k = 0.108908
         5         6         7        36     9        0.000000        2.355176         1    ;  uncertainty k = 0.449212
         5         6         7        36     9      180.000000        4.348203         2    ;  uncertainty k = 0.302695
         5         6         7        36     9        0.000000        0.613845         3    ;  uncertainty k = 0.145998
         5         6         7        36     9      180.000000        0.455801         4    ;  uncertainty k = 0.028343
         5         6        27        28     9        0.000000        0.019455         1    ;  uncertainty k = 0.133757
         5         6        27        28     9      180.000000        8.784468         2    ;  uncertainty k = 0.478984
         5         6        27        28     9        0.000000        0.119276         3    ;  uncertainty k = 0.283810
         5         6        27        28     9      180.000000        1.288078         4    ;  uncertainty k = 0.208847
         5         6        27        48     9        0.000000        0.155297         1    ;  uncertainty k = 0.281422
         5         6        27        48     9      180.000000        6.373831         2    ;  uncertainty k = 0.633801
         5         6        27        48     9        0.000000        1.253627         3    ;  uncertainty k = 0.220579
         5         6        27        48     9      180.000000        1.460767         4    ;  uncertainty k = 0.207379
         6         5         4        34     9        0.000000       -0.099823         1    ;  uncertainty k = 0.241524
         6         5         4        34     9      180.000000        7.800452         2    ;  uncertainty k = 0.321389
         6         5         4        34     9        0.000000        1.212039         3    ;  uncertainty k = 0.364603
         6         5         4        34     9      180.000000        1.643100         4    ;  uncertainty k = 0.155684
         6         7         8         9     9        0.000000        4.371472         1    ;  uncertainty k = 1.288133
         6         7         8         9     9      180.000000       10.778641         2    ;  uncertainty k = 0.228702
         6         7         8         9     9        0.000000        0.680673         3    ;  uncertainty k = 0.311323
         6         7         8         9     9      180.000000       -0.507606         4    ;  uncertainty k = 0.056382
         6         7         8        16     9        0.000000        7.039559         1    ;  uncertainty k = 0.599174
         6         7         8        16     9      180.000000        8.681781         2    ;  uncertainty k = 0.097887
         6         7         8        16     9        0.000000        0.920441         3    ;  uncertainty k = 0.381757
         6         7         8        16     9      180.000000       -0.164553         4    ;  uncertainty k = 0.221364
         6        27        28        29     9        0.000000        0.152072         1    ;  uncertainty k = 0.236865
         6        27        28        29     9      180.000000       11.350413         2    ;  uncertainty k = 0.544002
         6        27        28        29     9        0.000000        1.355669         3    ;  uncertainty k = 0.349766
         6        27        28        29     9      180.000000        1.696486         4    ;  uncertainty k = 0.237430
         7         6         5        35     9        0.000000       -0.291936         1    ;  uncertainty k = 0.233190
         7         6         5        35     9      180.000000        7.944711         2    ;  uncertainty k = 0.164350
         7         6         5        35     9        0.000000        0.918004         3    ;  uncertainty k = 0.228756
         7         6         5        35     9      180.000000        1.083856         4    ;  uncertainty k = 0.164907
         7         6        27        28     9        0.000000        0.148911         1    ;  uncertainty k = 0.574988
         7         6        27        28     9      180.000000        9.899588         2    ;  uncertainty k = 0.247388
         7         6        27        28     9        0.000000        1.000997         3    ;  uncertainty k = 0.351814
         7         6        27        28     9      180.000000        1.610986         4    ;  uncertainty k = 0.137508
         7         6        27        48     9        0.000000       -0.272934         1    ;  uncertainty k = 0.329125
         7         6        27        48     9      180.000000        7.865305         2    ;  uncertainty k = 0.242076
         7         6        27        48     9        0.000000        0.914516         3    ;  uncertainty k = 0.283703
         7         6        27        48     9      180.000000        1.068016         4    ;  uncertainty k = 0.243003
         7         8         9        10     9        0.000000        1.093750         1    ;  uncertainty k = 1.036217
         7         8         9        10     9      180.000000       17.904275         2    ;  uncertainty k = 0.458529
         7         8         9        10     9        0.000000        2.916476         3    ;  uncertainty k = 0.276348
         7         8         9        10     9      180.000000        1.662492         4    ;  uncertainty k = 0.298464
         7         8        16        12     9        0.000000       -0.953522         1    ;  uncertainty k = 0.960772
         7         8        16        12     9      180.000000        5.426483         2    ;  uncertainty k = 0.732995
         7         8        16        12     9        0.000000        0.463830         3    ;  uncertainty k = 0.276198
         7         8        16        12     9      180.000000        0.425035         4    ;  uncertainty k = 0.145521
         7         8        16        15     9        0.000000       -0.723785         1    ;  uncertainty k = 0.708754
         7         8        16        15     9      180.000000        4.584250         2    ;  uncertainty k = 1.077487
         7         8        16        15     9        0.000000        0.569780         3    ;  uncertainty k = 0.418447
         7         8        16        15     9      180.000000        0.322209         4    ;  uncertainty k = 0.225420
         8         7         6        27     9        0.000000        1.597949         1    ;  uncertainty k = 0.980885
         8         7         6        27     9      180.000000        5.574010         2    ;  uncertainty k = 0.231880
         8         7         6        27     9        0.000000        0.917733         3    ;  uncertainty k = 0.237919
         8         7         6        27     9      180.000000        0.218590         4    ;  uncertainty k = 0.147859
         8         9        10        11     9        0.000000        0.939473         1    ;  uncertainty k = 1.501293
         8         9        10        11     9      180.000000        5.478742         2    ;  uncertainty k = 1.436526
         8         9        10        11     9        0.000000        1.155133         3    ;  uncertainty k = 0.833319
         8         9        10        11     9      180.000000        0.505236         4    ;  uncertainty k = 0.531949
         8         9        10        17     9        0.000000        0.860171         1    ;  uncertainty k = 1.381896
         8         9        10        17     9      180.000000        8.952406         2    ;  uncertainty k = 0.812475
         8         9        10        17     9        0.000000        1.549639         3    ;  uncertainty k = 0.562192
         8         9        10        17     9      180.000000        0.432426         4    ;  uncertainty k = 0.353025
         8        16        12        11     9        0.000000       -0.074403         1    ;  uncertainty k = 0.950775
         8        16        12        11     9      180.000000        5.131695         2    ;  uncertainty k = 1.540544
         8        16        12        11     9        0.000000        1.364864         3    ;  uncertainty k = 0.461387
         8        16        12        11     9      180.000000        0.396564         4    ;  uncertainty k = 0.312989
         8        16        12        13     9        0.000000        0.340421         1    ;  uncertainty k = 0.792595
         8        16        12        13     9      180.000000        6.024515         2    ;  uncertainty k = 0.492566
         8        16        12        13     9        0.000000        0.209998         3    ;  uncertainty k = 0.527723
         8        16        12        13     9      180.000000        0.585310         4    ;  uncertainty k = 0.374830
         8        16        15        14     9        0.000000       -0.258736         1    ;  uncertainty k = 0.813751
         8        16        15        14     9      180.000000       16.417004         2    ;  uncertainty k = 0.455553
         8        16        15        14     9        0.000000        0.694004         3    ;  uncertainty k = 0.637623
         8        16        15        14     9      180.000000        1.345365         4    ;  uncertainty k = 0.597909
         9         8         7        36     9        0.000000        8.922955         1    ;  uncertainty k = 0.590684
         9         8         7        36     9      180.000000        9.664259         2    ;  uncertainty k = 0.294391
         9         8         7        36     9        0.000000        1.087484         3    ;  uncertainty k = 0.311608
         9         8         7        36     9      180.000000       -0.057210         4    ;  uncertainty k = 0.149117
         9         8        16        12     9        0.000000       -0.501338         1    ;  uncertainty k = 0.640960
         9         8        16        12     9      180.000000        6.017651         2    ;  uncertainty k = 0.720253
         9         8        16        12     9        0.000000       -0.364995         3    ;  uncertainty k = 0.314830
         9         8        16        12     9      180.000000        0.566313         4    ;  uncertainty k = 0.158573
         9         8        16        15     9        0.000000       -1.422782         1    ;  uncertainty k = 2.244569
         9         8        16        15     9      180.000000        4.485013         2    ;  uncertainty k = 0.589709
         9         8        16        15     9        0.000000        0.451575         3    ;  uncertainty k = 0.408180
         9         8        16        15     9      180.000000        0.387928         4    ;  uncertainty k = 0.297232
         9        10        11        12     9        0.000000        0.000362         1    ;  uncertainty k = 0.567485
         9        10        11        12     9      180.000000       21.321777         2    ;  uncertainty k = 0.622600
         9        10        11        12     9        0.000000        0.535648         3    ;  uncertainty k = 0.315067
         9        10        11        12     9      180.000000        0.534099         4    ;  uncertainty k = 0.517790
         9        10        11        37     9        0.000000        0.400300         1    ;  uncertainty k = 0.999410
         9        10        11        37     9      180.000000       12.773520         2    ;  uncertainty k = 0.371018
         9        10        11        37     9        0.000000        1.630574         3    ;  uncertainty k = 0.622599
         9        10        11        37     9      180.000000        1.089831         4    ;  uncertainty k = 0.430455
         9        10        17        18     9        0.000000       -0.427835         1    ;  uncertainty k = 1.669247
         9        10        17        18     9      180.000000        4.905107         2    ;  uncertainty k = 0.292829
         9        10        17        18     9        0.000000        0.416952         3    ;  uncertainty k = 0.113510
         9        10        17        18     9      180.000000        0.096483         4    ;  uncertainty k = 0.136069
         9        10        17        26     9        0.000000       -0.672464         1    ;  uncertainty k = 1.542765
         9        10        17        26     9      180.000000        4.941619         2    ;  uncertainty k = 0.355305
         9        10        17        26     9        0.000000        0.373937         3    ;  uncertainty k = 0.133642
         9        10        17        26     9      180.000000        0.101555         4    ;  uncertainty k = 0.147238
        10         9         8        16     9        0.000000       -0.079281         1    ;  uncertainty k = 2.218225
        10         9         8        16     9      180.000000       13.592964         2    ;  uncertainty k = 0.610320
        10         9         8        16     9        0.000000        2.514815         3    ;  uncertainty k = 0.854001
        10         9         8        16     9      180.000000        1.355385         4    ;  uncertainty k = 0.396240
        10        11        12        13     9        0.000000        0.426658         1    ;  uncertainty k = 1.499799
        10        11        12        13     9      180.000000        4.652441         2    ;  uncertainty k = 0.599160
        10        11        12        13     9        0.000000        0.715391         3    ;  uncertainty k = 0.332561
        10        11        12        13     9      180.000000        0.335557         4    ;  uncertainty k = 0.092544
        10        11        12        16     9        0.000000       -0.092030         1    ;  uncertainty k = 1.657470
        10        11        12        16     9      180.000000        6.297307         2    ;  uncertainty k = 0.496587
        10        11        12        16     9        0.000000       -0.827331         3    ;  uncertainty k = 0.837728
        10        11        12        16     9      180.000000        0.591428         4    ;  uncertainty k = 0.145930
        10        17        18        19     9        0.000000        0.065918         1    ;  uncertainty k = 0.148986
        10        17        18        19     9      180.000000        8.729672         2    ;  uncertainty k = 0.523523
        10        17        18        19     9        0.000000        1.243506         3    ;  uncertainty k = 0.272751
        10        17        18        19     9      180.000000        1.689987         4    ;  uncertainty k = 0.132353
        10        17        18        40     9        0.000000       -0.002015         1    ;  uncertainty k = 0.094440
        10        17        18        40     9      180.000000        6.901173         2    ;  uncertainty k = 0.301099
        10        17        18        40     9        0.000000        0.643560         3    ;  uncertainty k = 0.248395
        10        17        18        40     9      180.000000        1.114109         4    ;  uncertainty k = 0.201098
        10        17        26        24     9        0.000000        0.256613         1    ;  uncertainty k = 0.344058
        10        17        26        24     9      180.000000        8.210277         2    ;  uncertainty k = 0.298820
        10        17        26        24     9        0.000000        1.331452         3    ;  uncertainty k = 0.195401
        10        17        26        24     9      180.000000        1.712655         4    ;  uncertainty k = 0.075822
        10        17        26        47     9        0.000000       -0.089993         1    ;  uncertainty k = 0.109967
        10        17        26        47     9      180.000000        7.098016         2    ;  uncertainty k = 0.266494
        10        17        26        47     9        0.000000        0.628958         3    ;  uncertainty k = 0.243460
        10        17        26        47     9      180.000000        1.144075         4    ;  uncertainty k = 0.213327
        11        10        17        18     9        0.000000       -0.141043         1    ;  uncertainty k = 0.367113
        11        10        17        18     9      180.000000        3.820415         2    ;  uncertainty k = 0.372539
        11        10        17        18     9        0.000000        0.737927         3    ;  uncertainty k = 0.138861
        11        10        17        18     9      180.000000       -0.336712         4    ;  uncertainty k = 0.164347
        11        10        17        26     9        0.000000       -0.079731         1    ;  uncertainty k = 0.277103
        11        10        17        26     9      180.000000        3.826330         2    ;  uncertainty k = 0.364286
        11        10        17        26     9        0.000000        0.729704         3    ;  uncertainty k = 0.138548
        11        10        17        26     9      180.000000       -0.312191         4    ;  uncertainty k = 0.152609
        11        12        13        14     9        0.000000        0.230793         1    ;  uncertainty k = 1.269739
        11        12        13        14     9      180.000000        9.569834         2    ;  uncertainty k = 0.766860
        11        12        13        14     9        0.000000        0.431848         3    ;  uncertainty k = 0.749472
        11        12        13        14     9      180.000000        0.562970         4    ;  uncertainty k = 0.317996
        11        12        13        38     9        0.000000        0.582736         1    ;  uncertainty k = 1.282917
        11        12        13        38     9      180.000000        2.797133         2    ;  uncertainty k = 1.416069
        11        12        13        38     9        0.000000        1.235338         3    ;  uncertainty k = 0.396603
        11        12        13        38     9      180.000000        0.134009         4    ;  uncertainty k = 0.120872
        11        12        16        15     9        0.000000        0.339778         1    ;  uncertainty k = 0.557633
        11        12        16        15     9      180.000000        8.702718         2    ;  uncertainty k = 0.552036
        11        12        16        15     9        0.000000        0.461034         3    ;  uncertainty k = 0.395644
        11        12        16        15     9      180.000000        0.883729         4    ;  uncertainty k = 0.214014
        12        11        10        17     9        0.000000        0.638185         1    ;  uncertainty k = 0.304664
        12        11        10        17     9      180.000000       17.740371         2    ;  uncertainty k = 0.420155
        12        11        10        17     9        0.000000        1.876211         3    ;  uncertainty k = 0.420308
        12        11        10        17     9      180.000000        0.735981         4    ;  uncertainty k = 0.229236
        12        13        14        15     9        0.000000       -0.424259         1    ;  uncertainty k = 0.720471
        12        13        14        15     9      180.000000       21.948844         2    ;  uncertainty k = 0.272817
        12        13        14        15     9        0.000000       -9.453916         3    ;  uncertainty k = 0.408148
        12        13        14        15     9      180.000000        1.578950         4    ;  uncertainty k = 0.654473
        12        13        14        39     9        0.000000        0.427385         1    ;  uncertainty k = 0.828520
        12        13        14        39     9      180.000000       13.870598         2    ;  uncertainty k = 0.182398
        12        13        14        39     9        0.000000        1.815389         3    ;  uncertainty k = 0.320275
        12        13        14        39     9      180.000000        0.903574         4    ;  uncertainty k = 0.223948
        12        16        15        14     9        0.000000       -0.698106         1    ;  uncertainty k = 0.543243
        12        16        15        14     9      180.000000       23.970051         2    ;  uncertainty k = 0.495895
        12        16        15        14     9        0.000000      -11.206153         3    ;  uncertainty k = 1.161985
        12        16        15        14     9      180.000000        1.981051         4    ;  uncertainty k = 0.603215
        13        12        11        37     9        0.000000        1.227127         1    ;  uncertainty k = 1.232866
        13        12        11        37     9      180.000000        2.938476         2    ;  uncertainty k = 1.102518
        13        12        11        37     9        0.000000        1.033215         3    ;  uncertainty k = 0.512498
        13        12        11        37     9      180.000000        0.184974         4    ;  uncertainty k = 0.169272
        13        12        16        15     9        0.000000       -0.600194         1    ;  uncertainty k = 0.427509
        13        12        16        15     9      180.000000       12.032075         2    ;  uncertainty k = 0.540572
        13        12        16        15     9        0.000000       -4.884606         3    ;  uncertainty k = 1.243656
        13        12        16        15     9      180.000000        1.176890         4    ;  uncertainty k = 0.463084
        13        14        15        16     9        0.000000       -0.719371         1    ;  uncertainty k = 0.806440
        13        14        15        16     9      180.000000       16.306391         2    ;  uncertainty k = 0.372137
        13        14        15        16     9        0.000000       -5.546726         3    ;  uncertainty k = 0.784851
        13        14        15        16     9      180.000000        2.138755         4    ;  uncertainty k = 0.319469
        14        13        12        16     9        0.000000        0.425340         1    ;  uncertainty k = 0.911889
        14        13        12        16     9      180.000000       13.121731         2    ;  uncertainty k = 1.266973
        14        13        12        16     9        0.000000      -13.119121         3    ;  uncertainty k = 1.817832
        14        13        12        16     9      180.000000        1.693366         4    ;  uncertainty k = 0.377703
        15        14        13        38     9        0.000000       -0.210816         1    ;  uncertainty k = 0.409317
        15        14        13        38     9      180.000000       14.525462         2    ;  uncertainty k = 0.474526
        15        14        13        38     9        0.000000        1.399988         3    ;  uncertainty k = 0.472591
        15        14        13        38     9      180.000000        0.597840         4    ;  uncertainty k = 0.116226
        16         8         7        36     9        0.000000        5.299478         1    ;  uncertainty k = 1.071663
        16         8         7        36     9      180.000000        6.121003         2    ;  uncertainty k = 0.320629
        16         8         7        36     9        0.000000        1.371092         3    ;  uncertainty k = 0.426496
        16         8         7        36     9      180.000000       -0.017304         4    ;  uncertainty k = 0.216319
        16        12        11        37     9        0.000000        1.224013         1    ;  uncertainty k = 1.441620
        16        12        11        37     9      180.000000        4.285564         2    ;  uncertainty k = 0.541130
        16        12        11        37     9        0.000000        1.126046         3    ;  uncertainty k = 0.359170
        16        12        11        37     9      180.000000        0.200397         4    ;  uncertainty k = 0.127762
        16        12        13        38     9        0.000000        0.337817         1    ;  uncertainty k = 0.998522
        16        12        13        38     9      180.000000        7.392009         2    ;  uncertainty k = 0.385665
        16        12        13        38     9        0.000000        1.061986         3    ;  uncertainty k = 0.365239
        16        12        13        38     9      180.000000        0.171583         4    ;  uncertainty k = 0.281010
        16        15        14        39     9        0.000000       -0.095585         1    ;  uncertainty k = 0.393922
        16        15        14        39     9      180.000000       14.177386         2    ;  uncertainty k = 0.352374
        16        15        14        39     9        0.000000        1.588169         3    ;  uncertainty k = 0.688227
        16        15        14        39     9      180.000000        0.904862         4    ;  uncertainty k = 0.448977
        17        10        11        37     9        0.000000       -0.165868         1    ;  uncertainty k = 0.365361
        17        10        11        37     9      180.000000        9.339020         2    ;  uncertainty k = 0.456440
        17        10        11        37     9        0.000000        1.482387         3    ;  uncertainty k = 0.288380
        17        10        11        37     9      180.000000        0.991021         4    ;  uncertainty k = 0.110411
        17        18        19        20     9        0.000000       -0.130399         1    ;  uncertainty k = 0.359126
        17        18        19        20     9      180.000000       12.380125         2    ;  uncertainty k = 0.531119
        17        18        19        20     9        0.000000       -0.668007         3    ;  uncertainty k = 0.407991
        17        18        19        20     9      180.000000        0.880509         4    ;  uncertainty k = 0.273264
        17        18        19        41     9        0.000000        0.020168         1    ;  uncertainty k = 0.174423
        17        18        19        41     9      180.000000        8.055697         2    ;  uncertainty k = 0.430947
        17        18        19        41     9        0.000000        1.307165         3    ;  uncertainty k = 0.227571
        17        18        19        41     9      180.000000        1.840741         4    ;  uncertainty k = 0.233959
        17        26        24        20     9        0.000000       -0.069655         1    ;  uncertainty k = 0.166258
        17        26        24        20     9      180.000000        9.530541         2    ;  uncertainty k = 0.811372
        17        26        24        20     9        0.000000        0.311048         3    ;  uncertainty k = 0.352622
        17        26        24        20     9      180.000000        1.201217         4    ;  uncertainty k = 0.383552
        17        26        24        25     9        0.000000        0.185253         1    ;  uncertainty k = 0.204823
        17        26        24        25     9      180.000000       10.622724         2    ;  uncertainty k = 0.475489
        17        26        24        25     9        0.000000        1.263458         3    ;  uncertainty k = 0.193389
        17        26        24        25     9      180.000000        1.706782         4    ;  uncertainty k = 0.327488
        18        17        26        24     9        0.000000        0.098820         1    ;  uncertainty k = 0.195418
        18        17        26        24     9      180.000000       10.426665         2    ;  uncertainty k = 0.210360
        18        17        26        24     9        0.000000       -0.250036         3    ;  uncertainty k = 0.255888
        18        17        26        24     9      180.000000        1.007844         4    ;  uncertainty k = 0.193839
        18        17        26        47     9        0.000000        0.108588         1    ;  uncertainty k = 0.176789
        18        17        26        47     9      180.000000        7.120459         2    ;  uncertainty k = 0.485253
        18        17        26        47     9        0.000000        1.303396         3    ;  uncertainty k = 0.134086
        18        17        26        47     9      180.000000        1.612964         4    ;  uncertainty k = 0.250918
        18        19        20        21     9        0.000000        0.208451         1    ;  uncertainty k = 0.192321
        18        19        20        21     9      180.000000        8.844252         2    ;  uncertainty k = 0.962190
        18        19        20        21     9        0.000000        1.550323         3    ;  uncertainty k = 0.272863
        18        19        20        21     9      180.000000        1.849211         4    ;  uncertainty k = 0.319768
        18        19        20        24     9        0.000000        0.179367         1    ;  uncertainty k = 0.191030
        18        19        20        24     9      180.000000       10.275195         2    ;  uncertainty k = 0.251925
        18        19        20        24     9        0.000000       -0.094266         3    ;  uncertainty k = 0.340133
        18        19        20        24     9      180.000000        1.132687         4    ;  uncertainty k = 0.294976
        19        18        17        26     9        0.000000        0.043461         1    ;  uncertainty k = 0.192507
        19        18        17        26     9      180.000000       11.056875         2    ;  uncertainty k = 0.177692
        19        18        17        26     9        0.000000       -0.640866         3    ;  uncertainty k = 0.193553
        19        18        17        26     9      180.000000        0.871574         4    ;  uncertainty k = 0.205582
        19        20        21        22     9        0.000000       -0.216761         1    ;  uncertainty k = 0.426326
        19        20        21        22     9      180.000000        4.031206         2    ;  uncertainty k = 0.279930
        19        20        21        22     9        0.000000        0.559756         3    ;  uncertainty k = 0.177452
        19        20        21        22     9      180.000000        0.051621         4    ;  uncertainty k = 0.069319
        19        20        21        23     9        0.000000       -0.470432         1    ;  uncertainty k = 0.599291
        19        20        21        23     9      180.000000        3.073432         2    ;  uncertainty k = 0.145544
        19        20        21        23     9        0.000000        0.460776         3    ;  uncertainty k = 0.298462
        19        20        21        23     9      180.000000       -0.044766         4    ;  uncertainty k = 0.085853
        19        20        24        25     9        0.000000        0.130478         1    ;  uncertainty k = 0.271004
        19        20        24        25     9      180.000000        7.574008         2    ;  uncertainty k = 0.485636
        19        20        24        25     9        0.000000        1.200147         3    ;  uncertainty k = 0.165029
        19        20        24        25     9      180.000000        1.798546         4    ;  uncertainty k = 0.244319
        19        20        24        26     9        0.000000       -0.253562         1    ;  uncertainty k = 0.375080
        19        20        24        26     9      180.000000        7.814051         2    ;  uncertainty k = 0.456049
        19        20        24        26     9        0.000000       -0.140396         3    ;  uncertainty k = 0.223072
        19        20        24        26     9      180.000000        1.088572         4    ;  uncertainty k = 0.341345
        20        19        18        40     9        0.000000       -0.092506         1    ;  uncertainty k = 0.208528
        20        19        18        40     9      180.000000        7.851799         2    ;  uncertainty k = 0.272140
        20        19        18        40     9        0.000000        1.271846         3    ;  uncertainty k = 0.108270
        20        19        18        40     9      180.000000        1.792562         4    ;  uncertainty k = 0.198592
        20        21        23        42     9        0.000000        2.487386         1    ;  uncertainty k = 1.022898
        20        21        23        42     9      180.000000        7.935090         2    ;  uncertainty k = 0.417443
        20        21        23        42     9        0.000000        2.891702         3    ;  uncertainty k = 0.428593
        20        21        23        42     9      180.000000       -0.361837         4    ;  uncertainty k = 0.312393
        20        21        23        43     9        0.000000        2.487386         1    ;  uncertainty k = 1.022898
        20        21        23        43     9      180.000000        7.935090         2    ;  uncertainty k = 0.417443
        20        21        23        43     9        0.000000        2.891702         3    ;  uncertainty k = 0.428593
        20        21        23        43     9      180.000000       -0.361837         4    ;  uncertainty k = 0.312393
        20        24        25        44     9        0.000000        0.467045         1    ;  uncertainty k = 0.166972
        20        24        25        44     9      180.000000        2.179503         2    ;  uncertainty k = 0.156638
        20        24        25        44     9        0.000000        0.228585         3    ;  uncertainty k = 0.086102
        20        24        25        44     9      180.000000        0.313043         4    ;  uncertainty k = 0.083778
        20        24        25        45     9        0.000000        0.467045         1    ;  uncertainty k = 0.166972
        20        24        25        45     9      180.000000        2.179503         2    ;  uncertainty k = 0.156638
        20        24        25        45     9        0.000000        0.228585         3    ;  uncertainty k = 0.086102
        20        24        25        45     9      180.000000        0.313043         4    ;  uncertainty k = 0.083778
        20        24        25        46     9        0.000000        0.467045         1    ;  uncertainty k = 0.166972
        20        24        25        46     9      180.000000        2.179503         2    ;  uncertainty k = 0.156638
        20        24        25        46     9        0.000000        0.228585         3    ;  uncertainty k = 0.086102
        20        24        25        46     9      180.000000        0.313043         4    ;  uncertainty k = 0.083778
        20        24        26        47     9        0.000000       -0.030530         1    ;  uncertainty k = 0.419079
        20        24        26        47     9      180.000000        7.225785         2    ;  uncertainty k = 0.514427
        20        24        26        47     9        0.000000        1.458081         3    ;  uncertainty k = 0.149808
        20        24        26        47     9      180.000000        1.743155         4    ;  uncertainty k = 0.139794
        21        20        19        41     9        0.000000       -0.139649         1    ;  uncertainty k = 0.421193
        21        20        19        41     9      180.000000        8.389608         2    ;  uncertainty k = 0.587759
        21        20        19        41     9        0.000000        1.065927         3    ;  uncertainty k = 0.220990
        21        20        19        41     9      180.000000        1.176324         4    ;  uncertainty k = 0.266095
        21        20        24        25     9        0.000000       -0.223726         1    ;  uncertainty k = 0.739058
        21        20        24        25     9      180.000000        9.723582         2    ;  uncertainty k = 0.357826
        21        20        24        25     9        0.000000        1.290270         3    ;  uncertainty k = 0.300829
        21        20        24        25     9      180.000000        1.425048         4    ;  uncertainty k = 0.209747
        21        20        24        26     9        0.000000        0.293104         1    ;  uncertainty k = 0.371976
        21        20        24        26     9      180.000000        7.222500         2    ;  uncertainty k = 0.704081
        21        20        24        26     9        0.000000        1.649104         3    ;  uncertainty k = 0.206965
        21        20        24        26     9      180.000000        1.733596         4    ;  uncertainty k = 0.269747
        22        21        20        24     9        0.000000       -0.905659         1    ;  uncertainty k = 0.584612
        22        21        20        24     9      180.000000        4.262601         2    ;  uncertainty k = 0.468673
        22        21        20        24     9        0.000000        0.540348         3    ;  uncertainty k = 0.148164
        22        21        20        24     9      180.000000        0.182713         4    ;  uncertainty k = 0.133262
        22        21        23        42     9        0.000000        4.424271         1    ;  uncertainty k = 1.017315
        22        21        23        42     9      180.000000       11.351634         2    ;  uncertainty k = 0.232071
        22        21        23        42     9        0.000000        1.921688         3    ;  uncertainty k = 0.153448
        22        21        23        42     9      180.000000        0.264977         4    ;  uncertainty k = 0.363292
        22        21        23        43     9        0.000000        4.424271         1    ;  uncertainty k = 1.017315
        22        21        23        43     9      180.000000       11.351634         2    ;  uncertainty k = 0.232071
        22        21        23        43     9        0.000000        1.921688         3    ;  uncertainty k = 0.153448
        22        21        23        43     9      180.000000        0.264977         4    ;  uncertainty k = 0.363292
        23        21        20        24     9        0.000000        0.376164         1    ;  uncertainty k = 0.453727
        23        21        20        24     9      180.000000        2.668718         2    ;  uncertainty k = 0.393239
        23        21        20        24     9        0.000000        0.159981         3    ;  uncertainty k = 0.148969
        23        21        20        24     9      180.000000        0.085675         4    ;  uncertainty k = 0.086233
        24        20        19        41     9        0.000000        0.160455         1    ;  uncertainty k = 0.352012
        24        20        19        41     9      180.000000        7.023718         2    ;  uncertainty k = 0.444467
        24        20        19        41     9        0.000000        1.301884         3    ;  uncertainty k = 0.332851
        24        20        19        41     9      180.000000        1.701996         4    ;  uncertainty k = 0.181990
        25        24        26        47     9        0.000000       -0.256475         1    ;  uncertainty k = 0.324716
        25        24        26        47     9      180.000000        8.730595         2    ;  uncertainty k = 0.344361
        25        24        26        47     9        0.000000        0.511385         3    ;  uncertainty k = 0.142102
        25        24        26        47     9      180.000000        1.207140         4    ;  uncertainty k = 0.183170
        26        17        18        40     9        0.000000        0.014481         1    ;  uncertainty k = 0.114682
        26        17        18        40     9      180.000000        6.859810         2    ;  uncertainty k = 0.510539
        26        17        18        40     9        0.000000        1.352558         3    ;  uncertainty k = 0.153125
        26        17        18        40     9      180.000000        1.601070         4    ;  uncertainty k = 0.241425
        26        24        25        44     9        0.000000       -0.119757         1    ;  uncertainty k = 0.292459
        26        24        25        44     9      180.000000        1.751181         2    ;  uncertainty k = 0.164636
        26        24        25        44     9        0.000000        0.353599         3    ;  uncertainty k = 0.053968
        26        24        25        44     9      180.000000        0.254731         4    ;  uncertainty k = 0.031900
        26        24        25        45     9        0.000000       -0.119757         1    ;  uncertainty k = 0.292459
        26        24        25        45     9      180.000000        1.751181         2    ;  uncertainty k = 0.164636
        26        24        25        45     9        0.000000        0.353599         3    ;  uncertainty k = 0.053968
        26        24        25        45     9      180.000000        0.254731         4    ;  uncertainty k = 0.031900
        26        24        25        46     9        0.000000       -0.119757         1    ;  uncertainty k = 0.292459
        26        24        25        46     9      180.000000        1.751181         2    ;  uncertainty k = 0.164636
        26        24        25        46     9        0.000000        0.353599         3    ;  uncertainty k = 0.053968
        26        24        25        46     9      180.000000        0.254731         4    ;  uncertainty k = 0.031900
        27         6         5        35     9        0.000000        0.060116         1    ;  uncertainty k = 0.285327
        27         6         5        35     9      180.000000        6.705137         2    ;  uncertainty k = 0.811645
        27         6         5        35     9        0.000000        1.254749         3    ;  uncertainty k = 0.282861
        27         6         5        35     9      180.000000        1.489480         4    ;  uncertainty k = 0.123486
        27         6         7        36     9        0.000000        3.766903         1    ;  uncertainty k = 0.282406
        27         6         7        36     9      180.000000        4.224135         2    ;  uncertainty k = 0.219472
        27         6         7        36     9        0.000000        0.731781         3    ;  uncertainty k = 0.239894
        27         6         7        36     9      180.000000        0.435986         4    ;  uncertainty k = 0.107235
        27        28        29        30     9        0.000000        1.341409         1    ;  uncertainty k = 0.791973
        27        28        29        30     9      180.000000        6.361826         2    ;  uncertainty k = 0.220151
        27        28        29        30     9        0.000000       -0.225719         3    ;  uncertainty k = 0.095998
        27        28        29        30     9      180.000000        0.006631         4    ;  uncertainty k = 0.110606
        28         3         4        34     9        0.000000       -0.032441         1    ;  uncertainty k = 0.368382
        28         3         4        34     9      180.000000        5.959632         2    ;  uncertainty k = 0.432853
        28         3         4        34     9        0.000000        1.321132         3    ;  uncertainty k = 0.261791
        28         3         4        34     9      180.000000        1.598351         4    ;  uncertainty k = 0.068542
        28        29        30        49     9        0.000000        1.110243         1    ;  uncertainty k = 0.221947
        28        29        30        49     9      180.000000       -2.083404         2    ;  uncertainty k = 0.117430
        28        29        30        49     9        0.000000        1.033193         3    ;  uncertainty k = 0.049823
        28        29        30        49     9      180.000000        0.223294         4    ;  uncertainty k = 0.039928
        28        29        30        50     9        0.000000        1.110243         1    ;  uncertainty k = 0.221947
        28        29        30        50     9      180.000000       -2.083404         2    ;  uncertainty k = 0.117430
        28        29        30        50     9        0.000000        1.033193         3    ;  uncertainty k = 0.049823
        28        29        30        50     9      180.000000        0.223294         4    ;  uncertainty k = 0.039928
        28        29        30        51     9        0.000000        1.110243         1    ;  uncertainty k = 0.221947
        28        29        30        51     9      180.000000       -2.083404         2    ;  uncertainty k = 0.117430
        28        29        30        51     9        0.000000        1.033193         3    ;  uncertainty k = 0.049823
        28        29        30        51     9      180.000000        0.223294         4    ;  uncertainty k = 0.039928
        29        28        27        48     9        0.000000       -0.013362         1    ;  uncertainty k = 0.227812
        29        28        27        48     9      180.000000        9.629865         2    ;  uncertainty k = 0.341224
        29        28        27        48     9        0.000000        0.885574         3    ;  uncertainty k = 0.134168
        29        28        27        48     9      180.000000        1.294493         4    ;  uncertainty k = 0.314813
        34         4         5        35     9        0.000000       -0.108356         1    ;  uncertainty k = 0.187628
        34         4         5        35     9      180.000000        7.451232         2    ;  uncertainty k = 0.478631
        34         4         5        35     9        0.000000       -0.297348         3    ;  uncertainty k = 0.298879
        34         4         5        35     9      180.000000        0.257401         4    ;  uncertainty k = 0.173209
        38        13        14        39     9        0.000000       -0.311075         1    ;  uncertainty k = 0.492452
        38        13        14        39     9      180.000000        5.384358         2    ;  uncertainty k = 0.598235
        38        13        14        39     9        0.000000        1.243313         3    ;  uncertainty k = 0.430720
        38        13        14        39     9      180.000000        0.271791         4    ;  uncertainty k = 0.092256
        40        18        19        41     9        0.000000       -0.164050         1    ;  uncertainty k = 0.317688
        40        18        19        41     9      180.000000        7.983222         2    ;  uncertainty k = 0.480229
        40        18        19        41     9        0.000000       -0.361785         3    ;  uncertainty k = 0.211288
        40        18        19        41     9      180.000000        0.373365         4    ;  uncertainty k = 0.255769

[ dihedrals ] ; impropers
;       ai        aj        ak        al funct           phase               k        pn
         3         2         4        28     4      180.000000       15.206029         2    ;  uncertainty k = 0.074967
         3         4        28         2     4      180.000000       15.206029         2    ;  uncertainty k = 0.074967
         3        28         2         4     4      180.000000       15.206029         2    ;  uncertainty k = 0.074967
         4         3         5        34     4      180.000000        2.008335         2    ;  uncertainty k = 0.230964
         4         5        34         3     4      180.000000        2.008335         2    ;  uncertainty k = 0.230964
         4        34         3         5     4      180.000000        2.008335         2    ;  uncertainty k = 0.230964
         5         4         6        35     4      180.000000        2.607477         2    ;  uncertainty k = 0.379217
         5         6        35         4     4      180.000000        2.607477         2    ;  uncertainty k = 0.379217
         5        35         4         6     4      180.000000        2.607477         2    ;  uncertainty k = 0.379217
         6         5         7        27     4      180.000000       17.507517         2    ;  uncertainty k = 0.057196
         6         7        27         5     4      180.000000       17.507517         2    ;  uncertainty k = 0.057196
         6        27         5         7     4      180.000000       17.507517         2    ;  uncertainty k = 0.057196
         7         6         8        36     4      180.000000        1.622505         2    ;  uncertainty k = 0.666333
         7         8        36         6     4      180.000000        1.622505         2    ;  uncertainty k = 0.666333
         7        36         6         8     4      180.000000        1.622505         2    ;  uncertainty k = 0.666333
         8         7         9        16     4      180.000000       28.356151         2    ;  uncertainty k = 0.063061
         8         9        16         7     4      180.000000       28.356151         2    ;  uncertainty k = 0.063061
         8        16         7         9     4      180.000000       28.356151         2    ;  uncertainty k = 0.063061
        10         9        11        17     4      180.000000       19.427135         2    ;  uncertainty k = 0.081880
        10        11        17         9     4      180.000000       19.427135         2    ;  uncertainty k = 0.081880
        10        17         9        11     4      180.000000       19.427135         2    ;  uncertainty k = 0.081880
        11        10        12        37     4      180.000000        1.395889         2    ;  uncertainty k = 1.170221
        11        12        37        10     4      180.000000        1.395889         2    ;  uncertainty k = 1.170221
        11        37        10        12     4      180.000000        1.395889         2    ;  uncertainty k = 1.170221
        12        11        13        16     4      180.000000        1.589327         2    ;  uncertainty k = 1.390534
        12        13        16        11     4      180.000000        1.589327         2    ;  uncertainty k = 1.390534
        12        16        11        13     4      180.000000        1.589327         2    ;  uncertainty k = 1.390534
        13        12        14        38     4      180.000000        0.105195         2    ;  uncertainty k = 0.235223
        13        14        38        12     4      180.000000        0.105195         2    ;  uncertainty k = 0.235223
        13        38        12        14     4      180.000000        0.105195         2    ;  uncertainty k = 0.235223
        14        13        15        39     4      180.000000        1.779602         2    ;  uncertainty k = 0.230154
        14        15        39        13     4      180.000000        1.779602         2    ;  uncertainty k = 0.230154
        14        39        13        15     4      180.000000        1.779602         2    ;  uncertainty k = 0.230154
        16         8        12        15     4      180.000000        2.165381         2    ;  uncertainty k = 0.627947
        16        12        15         8     4      180.000000        2.165381         2    ;  uncertainty k = 0.627947
        16        15         8        12     4      180.000000        2.165381         2    ;  uncertainty k = 0.627947
        17        10        18        26     4      180.000000       12.030204         2    ;  uncertainty k = 0.087321
        17        18        26        10     4      180.000000       12.030204         2    ;  uncertainty k = 0.087321
        17        26        10        18     4      180.000000       12.030204         2    ;  uncertainty k = 0.087321
        18        17        19        40     4      180.000000        3.206553         2    ;  uncertainty k = 0.133362
        18        19        40        17     4      180.000000        3.206553         2    ;  uncertainty k = 0.133362
        18        40        17        19     4      180.000000        3.206553         2    ;  uncertainty k = 0.133362
        19        18        20        41     4      180.000000        3.844782         2    ;  uncertainty k = 0.212087
        19        20        41        18     4      180.000000        3.844782         2    ;  uncertainty k = 0.212087
        19        41        18        20     4      180.000000        3.844782         2    ;  uncertainty k = 0.212087
        20        19        21        24     4      180.000000        9.648227         2    ;  uncertainty k = 0.206059
        20        21        24        19     4      180.000000        9.648227         2    ;  uncertainty k = 0.206059
        20        24        19        21     4      180.000000        9.648227         2    ;  uncertainty k = 0.206059
        21        20        22        23     4      180.000000       55.854936         2    ;  uncertainty k = 0.043076
        21        22        23        20     4      180.000000       55.854936         2    ;  uncertainty k = 0.043076
        21        23        20        22     4      180.000000       55.854936         2    ;  uncertainty k = 0.043076
        24        20        25        26     4      180.000000       17.160370         2    ;  uncertainty k = 0.096502
        24        25        26        20     4      180.000000       17.160370         2    ;  uncertainty k = 0.096502
        24        26        20        25     4      180.000000       17.160370         2    ;  uncertainty k = 0.096502
        26        17        24        47     4      180.000000        3.058976         2    ;  uncertainty k = 0.220365
        26        24        47        17     4      180.000000        3.058976         2    ;  uncertainty k = 0.220365
        26        47        17        24     4      180.000000        3.058976         2    ;  uncertainty k = 0.220365
        27         6        28        48     4      180.000000        1.689049         2    ;  uncertainty k = 0.529654
        27        28        48         6     4      180.000000        1.689049         2    ;  uncertainty k = 0.529654
        27        48         6        28     4      180.000000        1.689049         2    ;  uncertainty k = 0.529654
        28         3        27        29     4      180.000000       16.672261         2    ;  uncertainty k = 0.075717
        28        27        29         3     4      180.000000       16.672261         2    ;  uncertainty k = 0.075717
        28        29         3        27     4      180.000000       16.672261         2    ;  uncertainty k = 0.075717

[ pairs ]
;       ai        aj funct
         1         4     1
         1        28     1
         2         5     1
         2        27     1
         2        29     1
         2        34     1
         3         6     1
         3        30     1
         3        31     1
         3        32     1
         3        33     1
         3        35     1
         3        48     1
         4         7     1
         4        27     1
         4        29     1
         5         8     1
         5        28     1
         5        36     1
         5        48     1
         6         9     1
         6        16     1
         6        29     1
         6        34     1
         7        10     1
         7        12     1
         7        15     1
         7        28     1
         7        35     1
         7        48     1
         8        11     1
         8        13     1
         8        14     1
         8        17     1
         8        27     1
         9        12     1
         9        15     1
         9        18     1
         9        26     1
         9        36     1
         9        37     1
        10        13     1
        10        16     1
        10        19     1
        10        24     1
        10        40     1
        10        47     1
        11        14     1
        11        15     1
        11        18     1
        11        26     1
        11        38     1
        12        17     1
        12        39     1
        13        37     1
        15        38     1
        16        36     1
        16        37     1
        16        38     1
        16        39     1
        17        20     1
        17        25     1
        17        37     1
        17        41     1
        18        21     1
        18        24     1
        18        47     1
        19        22     1
        19        23     1
        19        25     1
        19        26     1
        20        40     1
        20        42     1
        20        43     1
        20        44     1
        20        45     1
        20        46     1
        20        47     1
        21        25     1
        21        26     1
        21        41     1
        22        24     1
        22        42     1
        22        43     1
        23        24     1
        24        41     1
        25        47     1
        26        40     1
        26        44     1
        26        45     1
        26        46     1
        27        30     1
        27        35     1
        27        36     1
        28        34     1
        28        49     1
        28        50     1
        28        51     1
        29        48     1
        34        35     1
        38        39     1
        40        41     1
