; ITP file created by ByteFF-joint-25, 2026-02-17 09:44:17.841119

[ atomtypes ]
;name           bonded.type        at.num        mass        charge   ptype           sigma         epsilon
 c0bf                                   6      0.0000       0.00000       A     3.39774e-01     4.50890e-01    ;  uncertainty sigma = 0.000006, epsilon = 0.000514
 o1bf                                   8      0.0000       0.00000       A     3.15641e-01     3.03850e-01    ;  uncertainty sigma = 0.000015, epsilon = 0.000455
 c2bf                                   6      0.0000       0.00000       A     3.31526e-01     4.13474e-01    ;  uncertainty sigma = 0.000006, epsilon = 0.000721
 c3bf                                   6      0.0000       0.00000       A     3.31529e-01     4.13640e-01    ;  uncertainty sigma = 0.000005, epsilon = 0.000792
 c4bf                                   6      0.0000       0.00000       A     3.31525e-01     4.13354e-01    ;  uncertainty sigma = 0.000006, epsilon = 0.000662
 c5bf                                   6      0.0000       0.00000       A     3.31528e-01     4.13588e-01    ;  uncertainty sigma = 0.000010, epsilon = 0.000818
 n6bf                                   7      0.0000       0.00000       A     3.27852e-01     6.46169e-01    ;  uncertainty sigma = 0.000043, epsilon = 0.003219
 c7bf                                   6      0.0000       0.00000       A     3.31526e-01     4.13887e-01    ;  uncertainty sigma = 0.000017, epsilon = 0.001682
 n8bf                                   7      0.0000       0.00000       A     3.38466e-01     3.93319e-01    ;  uncertainty sigma = 0.000031, epsilon = 0.000671
 c9bf                                   6      0.0000       0.00000       A     3.31556e-01     4.13456e-01    ;  uncertainty sigma = 0.000023, epsilon = 0.000743
 c10bf                                  6      0.0000       0.00000       A     3.31559e-01     4.13603e-01    ;  uncertainty sigma = 0.000013, epsilon = 0.001559
 n11bf                                  7      0.0000       0.00000       A     3.20547e-01     8.53303e-01    ;  uncertainty sigma = 0.000017, epsilon = 0.000844
 c12bf                                  6      0.0000       0.00000       A     3.31503e-01     4.12978e-01    ;  uncertainty sigma = 0.000012, epsilon = 0.001136
 c13bf                                  6      0.0000       0.00000       A     3.31531e-01     4.13187e-01    ;  uncertainty sigma = 0.000008, epsilon = 0.000699
 n14bf                                  7      0.0000       0.00000       A     3.38427e-01     3.92895e-01    ;  uncertainty sigma = 0.000039, epsilon = 0.000415
 c15bf                                  6      0.0000       0.00000       A     3.31554e-01     4.12537e-01    ;  uncertainty sigma = 0.000015, epsilon = 0.000432
 c16bf                                  6      0.0000       0.00000       A     3.31504e-01     4.13122e-01    ;  uncertainty sigma = 0.000018, epsilon = 0.001024
 c17bf                                  6      0.0000       0.00000       A     3.31526e-01     4.13365e-01    ;  uncertainty sigma = 0.000008, epsilon = 0.000562
 c18bf                                  6      0.0000       0.00000       A     3.31527e-01     4.13259e-01    ;  uncertainty sigma = 0.000006, epsilon = 0.000436
 c19bf                                  6      0.0000       0.00000       A     3.31522e-01     4.12849e-01    ;  uncertainty sigma = 0.000012, epsilon = 0.001025
 o20bf                                  8      0.0000       0.00000       A     3.15647e-01     3.03521e-01    ;  uncertainty sigma = 0.000012, epsilon = 0.000963
 c21bf                                  6      0.0000       0.00000       A     3.39780e-01     4.50985e-01    ;  uncertainty sigma = 0.000005, epsilon = 0.000499
 c22bf                                  6      0.0000       0.00000       A     3.31447e-01     4.12839e-01    ;  uncertainty sigma = 0.000015, epsilon = 0.001956
 c23bf                                  6      0.0000       0.00000       A     3.31521e-01     4.13168e-01    ;  uncertainty sigma = 0.000016, epsilon = 0.000939
 c24bf                                  6      0.0000       0.00000       A     3.31532e-01     4.12362e-01    ;  uncertainty sigma = 0.000032, epsilon = 0.000892
 o25bf                                  8      0.0000       0.00000       A     3.04821e-01     6.12270e-01    ;  uncertainty sigma = 0.000018, epsilon = 0.001161
 n26bf                                  7      0.0000       0.00000       A     3.36018e-01     3.54319e-01    ;  uncertainty sigma = 0.000042, epsilon = 0.003152
 c27bf                                  6      0.0000       0.00000       A     3.31516e-01     4.13129e-01    ;  uncertainty sigma = 0.000010, epsilon = 0.000957
 c28bf                                  6      0.0000       0.00000       A     3.31531e-01     4.13728e-01    ;  uncertainty sigma = 0.000008, epsilon = 0.001049
 o29bf                                  8      0.0000       0.00000       A     3.15636e-01     3.03949e-01    ;  uncertainty sigma = 0.000015, epsilon = 0.000670
 c30bf                                  6      0.0000       0.00000       A     3.39774e-01     4.50890e-01    ;  uncertainty sigma = 0.000006, epsilon = 0.000514
 h31bf                                  1      0.0000       0.00000       A     2.42205e-01     8.67538e-02    ;  uncertainty sigma = 0.000015, epsilon = 0.000624
 h32bf                                  1      0.0000       0.00000       A     2.42205e-01     8.67538e-02    ;  uncertainty sigma = 0.000015, epsilon = 0.000624
 h33bf                                  1      0.0000       0.00000       A     2.42205e-01     8.67538e-02    ;  uncertainty sigma = 0.000015, epsilon = 0.000624
 h34bf                                  1      0.0000       0.00000       A     2.62570e-01     6.70700e-02    ;  uncertainty sigma = 0.000012, epsilon = 0.000330
 h35bf                                  1      0.0000       0.00000       A     2.62564e-01     6.70248e-02    ;  uncertainty sigma = 0.000015, epsilon = 0.000426
 h36bf                                  1      0.0000       0.00000       A     1.10708e-01     4.06502e-02    ;  uncertainty sigma = 0.000118, epsilon = 0.000465
 h37bf                                  1      0.0000       0.00000       A     2.53612e-01     6.73649e-02    ;  uncertainty sigma = 0.000081, epsilon = 0.000889
 h38bf                                  1      0.0000       0.00000       A     2.53649e-01     6.68496e-02    ;  uncertainty sigma = 0.000023, epsilon = 0.000657
 h39bf                                  1      0.0000       0.00000       A     2.53645e-01     6.69492e-02    ;  uncertainty sigma = 0.000020, epsilon = 0.000834
 h40bf                                  1      0.0000       0.00000       A     2.62565e-01     6.70568e-02    ;  uncertainty sigma = 0.000012, epsilon = 0.000585
 h41bf                                  1      0.0000       0.00000       A     2.62558e-01     6.70739e-02    ;  uncertainty sigma = 0.000007, epsilon = 0.000371
 h42bf                                  1      0.0000       0.00000       A     2.42205e-01     8.67537e-02    ;  uncertainty sigma = 0.000015, epsilon = 0.000624
 h43bf                                  1      0.0000       0.00000       A     2.42205e-01     8.67537e-02    ;  uncertainty sigma = 0.000015, epsilon = 0.000624
 h44bf                                  1      0.0000       0.00000       A     2.42205e-01     8.67537e-02    ;  uncertainty sigma = 0.000015, epsilon = 0.000624
 h45bf                                  1      0.0000       0.00000       A     2.62572e-01     6.75595e-02    ;  uncertainty sigma = 0.000015, epsilon = 0.000990
 h46bf                                  1      0.0000       0.00000       A     1.10644e-01     4.14126e-02    ;  uncertainty sigma = 0.000051, epsilon = 0.000340
 h47bf                                  1      0.0000       0.00000       A     1.10644e-01     4.14126e-02    ;  uncertainty sigma = 0.000051, epsilon = 0.000340
 h48bf                                  1      0.0000       0.00000       A     2.62560e-01     6.71373e-02    ;  uncertainty sigma = 0.000017, epsilon = 0.000539
 h49bf                                  1      0.0000       0.00000       A     2.42205e-01     8.67537e-02    ;  uncertainty sigma = 0.000015, epsilon = 0.000624
 h50bf                                  1      0.0000       0.00000       A     2.42205e-01     8.67537e-02    ;  uncertainty sigma = 0.000015, epsilon = 0.000624
 h51bf                                  1      0.0000       0.00000       A     2.42205e-01     8.67537e-02    ;  uncertainty sigma = 0.000015, epsilon = 0.000624

[ moleculetype ]
;name             nrexcl
 MOL                   3

[ atoms ]
;       nr            type      resi   res      atom      cgnr      charge          mass ; qtot
         1            c0bf         1   UNL        c0         1     0.11960       12.0110 ; qtot    0.120
         2            o1bf         1   UNL        o1         2    -0.32010       15.9990 ; qtot   -0.201
         3            c2bf         1   UNL        c2         3     0.07584       12.0110 ; qtot   -0.125
         4            c3bf         1   UNL        c3         4    -0.15014       12.0110 ; qtot   -0.275
         5            c4bf         1   UNL        c4         5    -0.15106       12.0110 ; qtot   -0.426
         6            c5bf         1   UNL        c5         6     0.16694       12.0110 ; qtot   -0.259
         7            n6bf         1   UNL        n6         7    -0.73903       14.0070 ; qtot   -0.998
         8            c7bf         1   UNL        c7         8     0.75065       12.0110 ; qtot   -0.247
         9            n8bf         1   UNL        n8         9    -0.76815       14.0070 ; qtot   -1.015
        10            c9bf         1   UNL        c9        10     0.47805       12.0110 ; qtot   -0.537
        11           c10bf         1   UNL       c10        11    -0.21980       12.0110 ; qtot   -0.757
        12           n11bf         1   UNL       n11        12     0.05302       14.0070 ; qtot   -0.704
        13           c12bf         1   UNL       c12        13    -0.21243       12.0110 ; qtot   -0.917
        14           c13bf         1   UNL       c13        14     0.01175       12.0110 ; qtot   -0.905
        15           n14bf         1   UNL       n14        15    -0.27543       14.0070 ; qtot   -1.180
        16           c15bf         1   UNL       c15        16    -0.18460       12.0110 ; qtot   -1.365
        17           c16bf         1   UNL       c16        17    -0.14470       12.0110 ; qtot   -1.510
        18           c17bf         1   UNL       c17        18    -0.06447       12.0110 ; qtot   -1.574
        19           c18bf         1   UNL       c18        19    -0.21390       12.0110 ; qtot   -1.788
        20           c19bf         1   UNL       c19        20     0.18037       12.0110 ; qtot   -1.608
        21           o20bf         1   UNL       o20        21    -0.33439       15.9990 ; qtot   -1.942
        22           c21bf         1   UNL       c21        22     0.12416       12.0110 ; qtot   -1.818
        23           c22bf         1   UNL       c22        23    -0.18032       12.0110 ; qtot   -1.998
        24           c23bf         1   UNL       c23        24    -0.04297       12.0110 ; qtot   -2.041
        25           c24bf         1   UNL       c24        25     0.67518       12.0110 ; qtot   -1.366
        26           o25bf         1   UNL       o25        26    -0.60124       15.9990 ; qtot   -1.967
        27           n26bf         1   UNL       n26        27    -0.66048       14.0070 ; qtot   -2.628
        28           c27bf         1   UNL       c27        28    -0.20840       12.0110 ; qtot   -2.836
        29           c28bf         1   UNL       c28        29     0.11790       12.0110 ; qtot   -2.718
        30           o29bf         1   UNL       o29        30    -0.31927       15.9990 ; qtot   -3.037
        31           c30bf         1   UNL       c30        31     0.11995       12.0110 ; qtot   -2.917
        32           h31bf         1   UNL       h31        32     0.04337        1.0080 ; qtot   -2.874
        33           h32bf         1   UNL       h32        33     0.04337        1.0080 ; qtot   -2.831
        34           h33bf         1   UNL       h33        34     0.04337        1.0080 ; qtot   -2.787
        35           h34bf         1   UNL       h34        35     0.14091        1.0080 ; qtot   -2.646
        36           h35bf         1   UNL       h35        36     0.15302        1.0080 ; qtot   -2.493
        37           h36bf         1   UNL       h36        37     0.46165        1.0080 ; qtot   -2.032
        38           h37bf         1   UNL       h37        38     0.17424        1.0080 ; qtot   -1.858
        39           h38bf         1   UNL       h38        39     0.18619        1.0080 ; qtot   -1.671
        40           h39bf         1   UNL       h39        40     0.17120        1.0080 ; qtot   -1.500
        41           h40bf         1   UNL       h40        41     0.14606        1.0080 ; qtot   -1.354
        42           h41bf         1   UNL       h41        42     0.14220        1.0080 ; qtot   -1.212
        43           h42bf         1   UNL       h42        43     0.04268        1.0080 ; qtot   -1.169
        44           h43bf         1   UNL       h43        44     0.04268        1.0080 ; qtot   -1.127
        45           h44bf         1   UNL       h44        45     0.04268        1.0080 ; qtot   -1.084
        46           h45bf         1   UNL       h45        46     0.16359        1.0080 ; qtot   -0.920
        47           h46bf         1   UNL       h46        47     0.31726        1.0080 ; qtot   -0.603
        48           h47bf         1   UNL       h47        48     0.31726        1.0080 ; qtot   -0.286
        49           h48bf         1   UNL       h48        49     0.15565        1.0080 ; qtot   -0.130
        50           h49bf         1   UNL       h49        50     0.04337        1.0080 ; qtot   -0.087
        51           h50bf         1   UNL       h50        51     0.04337        1.0080 ; qtot   -0.043
        52           h51bf         1   UNL       h51        52     0.04335        1.0080 ; qtot    0.000

[ bonds ]
;       ai        aj funct               r               k
         1         2     1        0.142504   247060.424561    ;  uncertainty r = 0.000030, k = 4.357279
         1        32     1        0.109559   311162.501807    ;  uncertainty r = 0.000020, k = 1.272505
         1        33     1        0.109559   311162.501807    ;  uncertainty r = 0.000020, k = 1.272505
         1        34     1        0.109559   311162.501807    ;  uncertainty r = 0.000020, k = 1.272505
         2         3     1        0.136892   321113.062012    ;  uncertainty r = 0.000059, k = 4.532937
         3         4     1        0.139488   349133.425439    ;  uncertainty r = 0.000031, k = 2.724656
         3        29     1        0.140227   349402.969629    ;  uncertainty r = 0.000054, k = 7.584627
         4         5     1        0.139369   369864.655127    ;  uncertainty r = 0.000071, k = 2.574425
         4        35     1        0.108705   336290.634375    ;  uncertainty r = 0.000024, k = 1.905467
         5         6     1        0.139713   352891.517529    ;  uncertainty r = 0.000095, k = 4.859039
         5        36     1        0.108700   336152.248779    ;  uncertainty r = 0.000031, k = 1.798265
         6         7     1        0.141333   346668.455957    ;  uncertainty r = 0.000119, k = 12.315044
         6        28     1        0.140236   355873.307031    ;  uncertainty r = 0.000083, k = 5.100092
         7         8     1        0.137988   330814.533252    ;  uncertainty r = 0.000224, k = 31.605630
         7        37     1        0.102091   426736.870264    ;  uncertainty r = 0.000039, k = 5.302920
         8         9     1        0.132294   443005.770996    ;  uncertainty r = 0.000186, k = 13.577353
         8        16     1        0.143016   286566.945654    ;  uncertainty r = 0.000095, k = 10.976562
         9        10     1        0.137509   259598.736670    ;  uncertainty r = 0.000250, k = 25.283716
        10        11     1        0.136955   381436.030127    ;  uncertainty r = 0.000105, k = 11.906471
        10        17     1        0.147172   264151.926660    ;  uncertainty r = 0.000128, k = 9.862775
        11        12     1        0.137882   325401.789697    ;  uncertainty r = 0.000063, k = 6.041351
        11        38     1        0.108486   340798.827979    ;  uncertainty r = 0.000072, k = 2.317242
        12        13     1        0.137812   342777.341064    ;  uncertainty r = 0.000099, k = 5.087994
        12        16     1        0.139016   307421.213135    ;  uncertainty r = 0.000151, k = 23.940608
        13        14     1        0.138713   413349.321582    ;  uncertainty r = 0.000044, k = 11.515297
        13        39     1        0.108153   341281.147363    ;  uncertainty r = 0.000029, k = 4.725641
        14        15     1        0.136694   264650.947314    ;  uncertainty r = 0.000104, k = 21.676776
        14        40     1        0.108374   336399.626758    ;  uncertainty r = 0.000052, k = 2.763000
        15        16     1        0.133277   447135.785547    ;  uncertainty r = 0.000097, k = 11.841721
        17        18     1        0.139787   348636.703125    ;  uncertainty r = 0.000080, k = 3.261433
        17        24     1        0.139317   341081.677002    ;  uncertainty r = 0.000057, k = 3.130646
        18        19     1        0.138960   371429.211670    ;  uncertainty r = 0.000043, k = 4.838166
        18        41     1        0.108676   332859.876953    ;  uncertainty r = 0.000020, k = 1.035344
        19        20     1        0.139967   351051.492188    ;  uncertainty r = 0.000057, k = 3.350008
        19        42     1        0.108779   336983.558301    ;  uncertainty r = 0.000019, k = 0.865295
        20        21     1        0.137306   315383.760449    ;  uncertainty r = 0.000081, k = 10.134332
        20        23     1        0.141204   322643.884033    ;  uncertainty r = 0.000040, k = 6.539358
        21        22     1        0.142720   246691.745312    ;  uncertainty r = 0.000052, k = 4.469696
        22        43     1        0.109585   311301.704590    ;  uncertainty r = 0.000018, k = 1.291935
        22        44     1        0.109585   311301.704590    ;  uncertainty r = 0.000018, k = 1.291935
        22        45     1        0.109585   311301.704590    ;  uncertainty r = 0.000018, k = 1.291935
        23        24     1        0.139415   346193.644482    ;  uncertainty r = 0.000107, k = 5.496369
        23        25     1        0.150023   230031.948047    ;  uncertainty r = 0.000128, k = 27.737827
        24        46     1        0.108602   331728.021191    ;  uncertainty r = 0.000030, k = 1.300489
        25        26     1        0.124135   887565.628320    ;  uncertainty r = 0.000054, k = 7.011402
        25        27     1        0.138881   507082.106836    ;  uncertainty r = 0.000116, k = 17.651147
        27        47     1        0.101651   427850.620215    ;  uncertainty r = 0.000058, k = 3.493080
        27        48     1        0.101651   427850.620215    ;  uncertainty r = 0.000058, k = 3.493080
        28        29     1        0.139270   345625.520410    ;  uncertainty r = 0.000054, k = 5.224456
        28        49     1        0.108746   339222.268994    ;  uncertainty r = 0.000057, k = 2.203703
        29        30     1        0.136641   322875.224707    ;  uncertainty r = 0.000095, k = 4.764590
        30        31     1        0.142472   247648.314355    ;  uncertainty r = 0.000036, k = 5.188422
        31        50     1        0.109559   311162.501807    ;  uncertainty r = 0.000020, k = 1.272491
        31        51     1        0.109559   311162.501807    ;  uncertainty r = 0.000020, k = 1.272497
        31        52     1        0.109559   311162.501807    ;  uncertainty r = 0.000020, k = 1.272491

[ angles ]
;       ai        aj        ak funct           theta             cth
         1         2         3     1      110.612503      514.276204    ;  uncertainty theta = 0.001142, k = 0.053109
         2         1        32     1      108.817703      445.633093    ;  uncertainty theta = 0.001397, k = 0.017155
         2         1        33     1      108.817703      445.633093    ;  uncertainty theta = 0.001397, k = 0.017155
         2         1        34     1      108.817703      445.633093    ;  uncertainty theta = 0.001397, k = 0.017155
         2         3         4     1      120.713829      429.663653    ;  uncertainty theta = 0.002887, k = 0.102450
         2         3        29     1      116.739212      371.002135    ;  uncertainty theta = 0.004292, k = 0.133275
         3         4         5     1      122.308617      511.833707    ;  uncertainty theta = 0.002874, k = 0.098838
         3         4        35     1      117.399475      269.501128    ;  uncertainty theta = 0.000644, k = 0.068639
         3        29        28     1      122.924828      372.294473    ;  uncertainty theta = 0.004880, k = 0.131595
         3        29        30     1      116.892052      375.388038    ;  uncertainty theta = 0.003912, k = 0.086739
         4         3        29     1      121.473427      368.904773    ;  uncertainty theta = 0.004194, k = 0.139265
         4         5         6     1      119.248634      497.970121    ;  uncertainty theta = 0.001680, k = 0.102369
         4         5        36     1      121.012962      296.103549    ;  uncertainty theta = 0.002653, k = 0.108838
         5         4        35     1      120.002708      276.762860    ;  uncertainty theta = 0.000635, k = 0.063553
         5         6         7     1      120.412048      523.951864    ;  uncertainty theta = 0.002787, k = 0.145671
         5         6        28     1      119.564781      370.288948    ;  uncertainty theta = 0.004616, k = 0.068311
         6         5        36     1      119.526833      271.877771    ;  uncertainty theta = 0.001413, k = 0.081499
         6         7         8     1      116.303787      381.015013    ;  uncertainty theta = 0.002927, k = 0.210540
         6         7        37     1      114.186111      355.760727    ;  uncertainty theta = 0.005751, k = 0.200139
         6        28        29     1      121.379723      503.759991    ;  uncertainty theta = 0.003678, k = 0.097545
         6        28        49     1      119.577965      269.429783    ;  uncertainty theta = 0.003301, k = 0.060634
         7         6        28     1      119.861717      533.495177    ;  uncertainty theta = 0.003869, k = 0.077420
         7         8         9     1      122.084122      743.704340    ;  uncertainty theta = 0.005979, k = 0.187139
         7         8        16     1      118.339066      493.433486    ;  uncertainty theta = 0.006804, k = 0.121645
         8         7        37     1      117.061234      430.294771    ;  uncertainty theta = 0.006370, k = 0.198641
         8         9        10     1      121.092026      437.385564    ;  uncertainty theta = 0.009289, k = 0.255263
         8        16        12     1      111.142784      333.997874    ;  uncertainty theta = 0.012736, k = 0.456017
         8        16        15     1      125.515465      293.447945    ;  uncertainty theta = 0.008643, k = 0.324339
         9         8        16     1      122.397110      559.508873    ;  uncertainty theta = 0.006110, k = 0.249098
         9        10        11     1      124.543556      546.714781    ;  uncertainty theta = 0.002872, k = 0.247730
         9        10        17     1      117.037880      454.303484    ;  uncertainty theta = 0.002610, k = 0.121800
        10        11        12     1      117.529312      532.909931    ;  uncertainty theta = 0.004092, k = 0.198409
        10        11        38     1      124.634445      233.175387    ;  uncertainty theta = 0.008734, k = 0.228842
        10        17        18     1      120.041969      403.393628    ;  uncertainty theta = 0.002766, k = 0.135869
        10        17        24     1      119.364502      399.291986    ;  uncertainty theta = 0.002954, k = 0.166842
        11        10        17     1      121.078941      375.290870    ;  uncertainty theta = 0.005058, k = 0.088626
        11        12        13     1      129.664673      428.594510    ;  uncertainty theta = 0.002270, k = 0.326701
        11        12        16     1      117.420059      429.560738    ;  uncertainty theta = 0.007263, k = 0.178528
        12        11        38     1      117.417358      315.021791    ;  uncertainty theta = 0.003619, k = 0.132845
        12        13        14     1      105.324829      767.668044    ;  uncertainty theta = 0.004981, k = 0.189091
        12        13        39     1      119.539230      282.399762    ;  uncertainty theta = 0.002926, k = 0.163945
        12        16        15     1      114.523727      791.406958    ;  uncertainty theta = 0.003446, k = 0.159720
        13        12        16     1      106.195152      846.636320    ;  uncertainty theta = 0.003800, k = 0.266753
        13        14        15     1      111.223167      865.900238    ;  uncertainty theta = 0.003390, k = 0.157111
        13        14        40     1      125.339600      238.965624    ;  uncertainty theta = 0.004247, k = 0.092338
        14        13        39     1      130.781433      240.351826    ;  uncertainty theta = 0.003258, k = 0.025086
        14        15        16     1      106.065872      820.721453    ;  uncertainty theta = 0.001716, k = 0.145916
        15        14        40     1      119.156937      297.238833    ;  uncertainty theta = 0.004129, k = 0.152925
        17        18        19     1      120.640770      518.883578    ;  uncertainty theta = 0.002293, k = 0.062104
        17        18        41     1      118.641640      270.242278    ;  uncertainty theta = 0.002003, k = 0.092544
        17        24        23     1      124.212112      488.744266    ;  uncertainty theta = 0.002250, k = 0.207331
        17        24        46     1      118.907516      267.791258    ;  uncertainty theta = 0.003876, k = 0.058434
        18        17        24     1      119.970047      430.395898    ;  uncertainty theta = 0.001966, k = 0.227103
        18        19        20     1      121.887375      504.360113    ;  uncertainty theta = 0.002119, k = 0.114277
        18        19        42     1      120.578598      281.387439    ;  uncertainty theta = 0.001041, k = 0.102530
        19        18        41     1      120.050499      286.009751    ;  uncertainty theta = 0.001892, k = 0.067080
        19        20        21     1      119.210289      430.798267    ;  uncertainty theta = 0.003572, k = 0.038278
        19        20        23     1      124.503983      384.599018    ;  uncertainty theta = 0.004348, k = 0.151665
        20        19        42     1      118.388199      269.085351    ;  uncertainty theta = 0.003579, k = 0.134088
        20        21        22     1      111.005043      501.253555    ;  uncertainty theta = 0.002140, k = 0.031259
        20        23        24     1      123.280251      443.093682    ;  uncertainty theta = 0.004156, k = 0.176151
        20        23        25     1      120.686813      377.550521    ;  uncertainty theta = 0.003397, k = 0.165359
        21        20        23     1      116.617233      473.138092    ;  uncertainty theta = 0.004852, k = 0.088838
        21        22        43     1      108.697189      438.067341    ;  uncertainty theta = 0.001178, k = 0.073545
        21        22        44     1      108.697189      438.067309    ;  uncertainty theta = 0.001178, k = 0.073546
        21        22        45     1      108.697189      438.067309    ;  uncertainty theta = 0.001178, k = 0.073545
        23        24        46     1      117.135864      256.994951    ;  uncertainty theta = 0.006073, k = 0.114414
        23        25        26     1      123.859787      483.180688    ;  uncertainty theta = 0.004202, k = 0.100428
        23        25        27     1      113.796310      452.760085    ;  uncertainty theta = 0.004772, k = 0.101949
        24        23        25     1      116.869423      397.150156    ;  uncertainty theta = 0.004517, k = 0.430153
        25        27        47     1      116.382278      327.830343    ;  uncertainty theta = 0.002564, k = 0.133616
        25        27        48     1      116.382278      327.830343    ;  uncertainty theta = 0.002564, k = 0.133616
        26        25        27     1      127.176186      911.071810    ;  uncertainty theta = 0.001802, k = 0.063967
        28        29        30     1      119.984230      446.391321    ;  uncertainty theta = 0.002825, k = 0.109279
        29        28        49     1      118.198837      267.442262    ;  uncertainty theta = 0.001362, k = 0.058522
        29        30        31     1      110.584335      514.931710    ;  uncertainty theta = 0.000760, k = 0.054259
        30        31        50     1      108.804810      446.467230    ;  uncertainty theta = 0.001256, k = 0.017592
        30        31        51     1      108.804810      446.467230    ;  uncertainty theta = 0.001256, k = 0.017592
        30        31        52     1      108.804810      446.467230    ;  uncertainty theta = 0.001256, k = 0.017592
        32         1        33     1      109.159256      331.008596    ;  uncertainty theta = 0.001734, k = 0.015289
        32         1        34     1      109.159256      331.008596    ;  uncertainty theta = 0.001734, k = 0.015289
        33         1        34     1      109.159256      331.008596    ;  uncertainty theta = 0.001734, k = 0.015289
        43        22        44     1      109.085159      330.320914    ;  uncertainty theta = 0.001597, k = 0.020763
        43        22        45     1      109.085159      330.320914    ;  uncertainty theta = 0.001597, k = 0.020763
        44        22        45     1      109.085159      330.320914    ;  uncertainty theta = 0.001597, k = 0.020763
        47        27        48     1      109.962845      263.277590    ;  uncertainty theta = 0.001571, k = 0.090744
        50        31        51     1      109.159256      331.008596    ;  uncertainty theta = 0.001734, k = 0.015290
        50        31        52     1      109.159256      331.008596    ;  uncertainty theta = 0.001734, k = 0.015290
        51        31        52     1      109.159256      331.008596    ;  uncertainty theta = 0.001734, k = 0.015290

[ dihedrals ] ; propers for gromacs 4.5 or higher, use funct 9
;       ai        aj        ak        al funct           phase               k        pn
         1         2         3         4     9        0.000000        1.161590         1    ;  uncertainty k = 0.424580
         1         2         3         4     9      180.000000        5.978609         2    ;  uncertainty k = 0.113714
         1         2         3         4     9        0.000000       -0.081692         3    ;  uncertainty k = 0.147719
         1         2         3         4     9      180.000000        0.002725         4    ;  uncertainty k = 0.132587
         1         2         3        29     9        0.000000        0.710048         1    ;  uncertainty k = 0.461814
         1         2         3        29     9      180.000000        5.168557         2    ;  uncertainty k = 0.168705
         1         2         3        29     9        0.000000        1.522737         3    ;  uncertainty k = 0.085019
         1         2         3        29     9      180.000000        0.086569         4    ;  uncertainty k = 0.079161
         2         3         4         5     9        0.000000        0.075453         1    ;  uncertainty k = 0.391184
         2         3         4         5     9      180.000000       11.200366         2    ;  uncertainty k = 0.281957
         2         3         4         5     9        0.000000        1.350673         3    ;  uncertainty k = 0.315697
         2         3         4         5     9      180.000000        1.737822         4    ;  uncertainty k = 0.262819
         2         3         4        35     9        0.000000       -0.165175         1    ;  uncertainty k = 0.217547
         2         3         4        35     9      180.000000        9.159951         2    ;  uncertainty k = 0.396817
         2         3         4        35     9        0.000000        0.851185         3    ;  uncertainty k = 0.126617
         2         3         4        35     9      180.000000        1.218800         4    ;  uncertainty k = 0.309716
         2         3        29        28     9        0.000000        0.515556         1    ;  uncertainty k = 0.299239
         2         3        29        28     9      180.000000        7.954903         2    ;  uncertainty k = 0.736958
         2         3        29        28     9        0.000000        1.164308         3    ;  uncertainty k = 0.363484
         2         3        29        28     9      180.000000        1.614907         4    ;  uncertainty k = 0.248125
         2         3        29        30     9        0.000000       -0.341456         1    ;  uncertainty k = 1.859913
         2         3        29        30     9      180.000000       13.064537         2    ;  uncertainty k = 0.569185
         2         3        29        30     9        0.000000        0.817588         3    ;  uncertainty k = 0.428631
         2         3        29        30     9      180.000000        1.204285         4    ;  uncertainty k = 0.526598
         3         2         1        32     9        0.000000        1.112847         1    ;  uncertainty k = 0.103175
         3         2         1        32     9      180.000000       -2.022644         2    ;  uncertainty k = 0.082864
         3         2         1        32     9        0.000000        1.040477         3    ;  uncertainty k = 0.039004
         3         2         1        32     9      180.000000        0.229250         4    ;  uncertainty k = 0.034227
         3         2         1        33     9        0.000000        1.112847         1    ;  uncertainty k = 0.103175
         3         2         1        33     9      180.000000       -2.022644         2    ;  uncertainty k = 0.082864
         3         2         1        33     9        0.000000        1.040477         3    ;  uncertainty k = 0.039004
         3         2         1        33     9      180.000000        0.229250         4    ;  uncertainty k = 0.034227
         3         2         1        34     9        0.000000        1.112847         1    ;  uncertainty k = 0.103175
         3         2         1        34     9      180.000000       -2.022644         2    ;  uncertainty k = 0.082864
         3         2         1        34     9        0.000000        1.040477         3    ;  uncertainty k = 0.039004
         3         2         1        34     9      180.000000        0.229250         4    ;  uncertainty k = 0.034227
         3         4         5         6     9        0.000000        0.022057         1    ;  uncertainty k = 0.194405
         3         4         5         6     9      180.000000       12.959076         2    ;  uncertainty k = 0.175269
         3         4         5         6     9        0.000000       -0.661284         3    ;  uncertainty k = 0.452963
         3         4         5         6     9      180.000000        0.977500         4    ;  uncertainty k = 0.267395
         3         4         5        36     9        0.000000        0.089133         1    ;  uncertainty k = 0.324049
         3         4         5        36     9      180.000000        7.832723         2    ;  uncertainty k = 0.398222
         3         4         5        36     9        0.000000        1.298747         3    ;  uncertainty k = 0.324375
         3         4         5        36     9      180.000000        1.779745         4    ;  uncertainty k = 0.055930
         3        29        28         6     9        0.000000        0.071802         1    ;  uncertainty k = 0.106893
         3        29        28         6     9      180.000000        8.578020         2    ;  uncertainty k = 0.448413
         3        29        28         6     9        0.000000        0.405195         3    ;  uncertainty k = 0.328173
         3        29        28         6     9      180.000000        1.390162         4    ;  uncertainty k = 0.291061
         3        29        28        49     9        0.000000        0.127329         1    ;  uncertainty k = 0.442115
         3        29        28        49     9      180.000000        6.705908         2    ;  uncertainty k = 0.374607
         3        29        28        49     9        0.000000        1.449705         3    ;  uncertainty k = 0.216502
         3        29        28        49     9      180.000000        1.651952         4    ;  uncertainty k = 0.099448
         3        29        30        31     9        0.000000        0.964833         1    ;  uncertainty k = 0.487894
         3        29        30        31     9      180.000000        5.588064         2    ;  uncertainty k = 0.185698
         3        29        30        31     9        0.000000        1.649424         3    ;  uncertainty k = 0.107622
         3        29        30        31     9      180.000000        0.043020         4    ;  uncertainty k = 0.050223
         4         3        29        28     9        0.000000       -0.246361         1    ;  uncertainty k = 0.323015
         4         3        29        28     9      180.000000        5.364289         2    ;  uncertainty k = 1.281071
         4         3        29        28     9        0.000000        0.277799         3    ;  uncertainty k = 0.286511
         4         3        29        28     9      180.000000        1.297118         4    ;  uncertainty k = 0.309451
         4         3        29        30     9        0.000000        0.651705         1    ;  uncertainty k = 0.176594
         4         3        29        30     9      180.000000        7.590394         2    ;  uncertainty k = 0.603024
         4         3        29        30     9        0.000000        1.174713         3    ;  uncertainty k = 0.330890
         4         3        29        30     9      180.000000        1.724084         4    ;  uncertainty k = 0.232454
         4         5         6         7     9        0.000000        0.058897         1    ;  uncertainty k = 0.517002
         4         5         6         7     9      180.000000        9.907040         2    ;  uncertainty k = 0.506714
         4         5         6         7     9        0.000000        0.979239         3    ;  uncertainty k = 0.327123
         4         5         6         7     9      180.000000        1.580944         4    ;  uncertainty k = 0.224706
         4         5         6        28     9        0.000000       -0.065841         1    ;  uncertainty k = 0.278588
         4         5         6        28     9      180.000000        9.979296         2    ;  uncertainty k = 0.397780
         4         5         6        28     9        0.000000       -0.194578         3    ;  uncertainty k = 0.190668
         4         5         6        28     9      180.000000        1.171069         4    ;  uncertainty k = 0.255361
         5         4         3        29     9        0.000000        0.085734         1    ;  uncertainty k = 0.237541
         5         4         3        29     9      180.000000        8.042168         2    ;  uncertainty k = 0.816838
         5         4         3        29     9        0.000000        0.289471         3    ;  uncertainty k = 0.178601
         5         4         3        29     9      180.000000        1.427392         4    ;  uncertainty k = 0.249188
         5         6         7         8     9        0.000000        1.717569         1    ;  uncertainty k = 0.660151
         5         6         7         8     9      180.000000        5.521741         2    ;  uncertainty k = 0.179949
         5         6         7         8     9        0.000000        0.912155         3    ;  uncertainty k = 0.268355
         5         6         7         8     9      180.000000        0.224590         4    ;  uncertainty k = 0.108908
         5         6         7        37     9        0.000000        2.355176         1    ;  uncertainty k = 0.449212
         5         6         7        37     9      180.000000        4.348203         2    ;  uncertainty k = 0.302695
         5         6         7        37     9        0.000000        0.613845         3    ;  uncertainty k = 0.145998
         5         6         7        37     9      180.000000        0.455801         4    ;  uncertainty k = 0.028343
         5         6        28        29     9        0.000000        0.019455         1    ;  uncertainty k = 0.133757
         5         6        28        29     9      180.000000        8.784468         2    ;  uncertainty k = 0.478984
         5         6        28        29     9        0.000000        0.119276         3    ;  uncertainty k = 0.283810
         5         6        28        29     9      180.000000        1.288078         4    ;  uncertainty k = 0.208847
         5         6        28        49     9        0.000000        0.155297         1    ;  uncertainty k = 0.281422
         5         6        28        49     9      180.000000        6.373831         2    ;  uncertainty k = 0.633801
         5         6        28        49     9        0.000000        1.253627         3    ;  uncertainty k = 0.220579
         5         6        28        49     9      180.000000        1.460767         4    ;  uncertainty k = 0.207379
         6         5         4        35     9        0.000000       -0.099823         1    ;  uncertainty k = 0.241524
         6         5         4        35     9      180.000000        7.800452         2    ;  uncertainty k = 0.321389
         6         5         4        35     9        0.000000        1.212039         3    ;  uncertainty k = 0.364603
         6         5         4        35     9      180.000000        1.643100         4    ;  uncertainty k = 0.155684
         6         7         8         9     9        0.000000        4.371472         1    ;  uncertainty k = 1.288133
         6         7         8         9     9      180.000000       10.778641         2    ;  uncertainty k = 0.228702
         6         7         8         9     9        0.000000        0.680673         3    ;  uncertainty k = 0.311323
         6         7         8         9     9      180.000000       -0.507606         4    ;  uncertainty k = 0.056382
         6         7         8        16     9        0.000000        7.039559         1    ;  uncertainty k = 0.599174
         6         7         8        16     9      180.000000        8.681781         2    ;  uncertainty k = 0.097887
         6         7         8        16     9        0.000000        0.920441         3    ;  uncertainty k = 0.381757
         6         7         8        16     9      180.000000       -0.164553         4    ;  uncertainty k = 0.221364
         6        28        29        30     9        0.000000        0.152072         1    ;  uncertainty k = 0.236865
         6        28        29        30     9      180.000000       11.350413         2    ;  uncertainty k = 0.544002
         6        28        29        30     9        0.000000        1.355669         3    ;  uncertainty k = 0.349766
         6        28        29        30     9      180.000000        1.696486         4    ;  uncertainty k = 0.237430
         7         6         5        36     9        0.000000       -0.291936         1    ;  uncertainty k = 0.233190
         7         6         5        36     9      180.000000        7.944711         2    ;  uncertainty k = 0.164350
         7         6         5        36     9        0.000000        0.918004         3    ;  uncertainty k = 0.228756
         7         6         5        36     9      180.000000        1.083856         4    ;  uncertainty k = 0.164907
         7         6        28        29     9        0.000000        0.148911         1    ;  uncertainty k = 0.574988
         7         6        28        29     9      180.000000        9.899588         2    ;  uncertainty k = 0.247388
         7         6        28        29     9        0.000000        1.000997         3    ;  uncertainty k = 0.351814
         7         6        28        29     9      180.000000        1.610986         4    ;  uncertainty k = 0.137508
         7         6        28        49     9        0.000000       -0.272934         1    ;  uncertainty k = 0.329125
         7         6        28        49     9      180.000000        7.865305         2    ;  uncertainty k = 0.242076
         7         6        28        49     9        0.000000        0.914516         3    ;  uncertainty k = 0.283703
         7         6        28        49     9      180.000000        1.068016         4    ;  uncertainty k = 0.243003
         7         8         9        10     9        0.000000        1.093749         1    ;  uncertainty k = 1.036215
         7         8         9        10     9      180.000000       17.904277         2    ;  uncertainty k = 0.458529
         7         8         9        10     9        0.000000        2.916476         3    ;  uncertainty k = 0.276349
         7         8         9        10     9      180.000000        1.662492         4    ;  uncertainty k = 0.298464
         7         8        16        12     9        0.000000       -0.953522         1    ;  uncertainty k = 0.960772
         7         8        16        12     9      180.000000        5.426483         2    ;  uncertainty k = 0.732995
         7         8        16        12     9        0.000000        0.463830         3    ;  uncertainty k = 0.276198
         7         8        16        12     9      180.000000        0.425035         4    ;  uncertainty k = 0.145521
         7         8        16        15     9        0.000000       -0.723785         1    ;  uncertainty k = 0.708754
         7         8        16        15     9      180.000000        4.584250         2    ;  uncertainty k = 1.077487
         7         8        16        15     9        0.000000        0.569780         3    ;  uncertainty k = 0.418447
         7         8        16        15     9      180.000000        0.322209         4    ;  uncertainty k = 0.225420
         8         7         6        28     9        0.000000        1.597949         1    ;  uncertainty k = 0.980885
         8         7         6        28     9      180.000000        5.574010         2    ;  uncertainty k = 0.231880
         8         7         6        28     9        0.000000        0.917733         3    ;  uncertainty k = 0.237919
         8         7         6        28     9      180.000000        0.218590         4    ;  uncertainty k = 0.147859
         8         9        10        11     9        0.000000        0.939473         1    ;  uncertainty k = 1.501292
         8         9        10        11     9      180.000000        5.478745         2    ;  uncertainty k = 1.436527
         8         9        10        11     9        0.000000        1.155133         3    ;  uncertainty k = 0.833321
         8         9        10        11     9      180.000000        0.505236         4    ;  uncertainty k = 0.531950
         8         9        10        17     9        0.000000        0.869112         1    ;  uncertainty k = 1.278641
         8         9        10        17     9      180.000000        9.102924         2    ;  uncertainty k = 0.743132
         8         9        10        17     9        0.000000        1.542602         3    ;  uncertainty k = 0.542954
         8         9        10        17     9      180.000000        0.431903         4    ;  uncertainty k = 0.298765
         8        16        12        11     9        0.000000       -0.074403         1    ;  uncertainty k = 0.950775
         8        16        12        11     9      180.000000        5.131695         2    ;  uncertainty k = 1.540544
         8        16        12        11     9        0.000000        1.364864         3    ;  uncertainty k = 0.461387
         8        16        12        11     9      180.000000        0.396564         4    ;  uncertainty k = 0.312989
         8        16        12        13     9        0.000000        0.340421         1    ;  uncertainty k = 0.792595
         8        16        12        13     9      180.000000        6.024515         2    ;  uncertainty k = 0.492566
         8        16        12        13     9        0.000000        0.209998         3    ;  uncertainty k = 0.527723
         8        16        12        13     9      180.000000        0.585310         4    ;  uncertainty k = 0.374830
         8        16        15        14     9        0.000000       -0.258736         1    ;  uncertainty k = 0.813751
         8        16        15        14     9      180.000000       16.417004         2    ;  uncertainty k = 0.455553
         8        16        15        14     9        0.000000        0.694004         3    ;  uncertainty k = 0.637623
         8        16        15        14     9      180.000000        1.345365         4    ;  uncertainty k = 0.597909
         9         8         7        37     9        0.000000        8.922955         1    ;  uncertainty k = 0.590684
         9         8         7        37     9      180.000000        9.664259         2    ;  uncertainty k = 0.294391
         9         8         7        37     9        0.000000        1.087484         3    ;  uncertainty k = 0.311608
         9         8         7        37     9      180.000000       -0.057210         4    ;  uncertainty k = 0.149117
         9         8        16        12     9        0.000000       -0.501338         1    ;  uncertainty k = 0.640960
         9         8        16        12     9      180.000000        6.017651         2    ;  uncertainty k = 0.720253
         9         8        16        12     9        0.000000       -0.364995         3    ;  uncertainty k = 0.314830
         9         8        16        12     9      180.000000        0.566313         4    ;  uncertainty k = 0.158573
         9         8        16        15     9        0.000000       -1.422782         1    ;  uncertainty k = 2.244569
         9         8        16        15     9      180.000000        4.485013         2    ;  uncertainty k = 0.589709
         9         8        16        15     9        0.000000        0.451575         3    ;  uncertainty k = 0.408180
         9         8        16        15     9      180.000000        0.387928         4    ;  uncertainty k = 0.297232
         9        10        11        12     9        0.000000        0.000363         1    ;  uncertainty k = 0.567485
         9        10        11        12     9      180.000000       21.321779         2    ;  uncertainty k = 0.622601
         9        10        11        12     9        0.000000        0.535648         3    ;  uncertainty k = 0.315066
         9        10        11        12     9      180.000000        0.534100         4    ;  uncertainty k = 0.517790
         9        10        11        38     9        0.000000        0.400301         1    ;  uncertainty k = 0.999409
         9        10        11        38     9      180.000000       12.773519         2    ;  uncertainty k = 0.371019
         9        10        11        38     9        0.000000        1.630574         3    ;  uncertainty k = 0.622599
         9        10        11        38     9      180.000000        1.089831         4    ;  uncertainty k = 0.430456
         9        10        17        18     9        0.000000       -0.626403         1    ;  uncertainty k = 1.573765
         9        10        17        18     9      180.000000        4.819334         2    ;  uncertainty k = 0.134303
         9        10        17        18     9        0.000000        0.409794         3    ;  uncertainty k = 0.188828
         9        10        17        18     9      180.000000        0.091651         4    ;  uncertainty k = 0.114304
         9        10        17        24     9        0.000000       -0.076298         1    ;  uncertainty k = 1.402763
         9        10        17        24     9      180.000000        4.787035         2    ;  uncertainty k = 0.227247
         9        10        17        24     9        0.000000        0.329844         3    ;  uncertainty k = 0.135832
         9        10        17        24     9      180.000000        0.071338         4    ;  uncertainty k = 0.123920
        10         9         8        16     9        0.000000       -0.079278         1    ;  uncertainty k = 2.218226
        10         9         8        16     9      180.000000       13.592964         2    ;  uncertainty k = 0.610320
        10         9         8        16     9        0.000000        2.514815         3    ;  uncertainty k = 0.854000
        10         9         8        16     9      180.000000        1.355385         4    ;  uncertainty k = 0.396240
        10        11        12        13     9        0.000000        0.426659         1    ;  uncertainty k = 1.499796
        10        11        12        13     9      180.000000        4.652439         2    ;  uncertainty k = 0.599161
        10        11        12        13     9        0.000000        0.715391         3    ;  uncertainty k = 0.332561
        10        11        12        13     9      180.000000        0.335558         4    ;  uncertainty k = 0.092544
        10        11        12        16     9        0.000000       -0.092029         1    ;  uncertainty k = 1.657469
        10        11        12        16     9      180.000000        6.297307         2    ;  uncertainty k = 0.496588
        10        11        12        16     9        0.000000       -0.827331         3    ;  uncertainty k = 0.837728
        10        11        12        16     9      180.000000        0.591428         4    ;  uncertainty k = 0.145931
        10        17        18        19     9        0.000000        0.088086         1    ;  uncertainty k = 0.196650
        10        17        18        19     9      180.000000        9.073631         2    ;  uncertainty k = 0.533924
        10        17        18        19     9        0.000000        1.139511         3    ;  uncertainty k = 0.275530
        10        17        18        19     9      180.000000        1.723009         4    ;  uncertainty k = 0.189082
        10        17        18        41     9        0.000000        0.005019         1    ;  uncertainty k = 0.212972
        10        17        18        41     9      180.000000        6.965671         2    ;  uncertainty k = 0.307687
        10        17        18        41     9        0.000000        0.694735         3    ;  uncertainty k = 0.278952
        10        17        18        41     9      180.000000        1.120950         4    ;  uncertainty k = 0.159585
        10        17        24        23     9        0.000000        0.221589         1    ;  uncertainty k = 0.339457
        10        17        24        23     9      180.000000        8.341012         2    ;  uncertainty k = 0.403358
        10        17        24        23     9        0.000000        1.090164         3    ;  uncertainty k = 0.132740
        10        17        24        23     9      180.000000        1.762228         4    ;  uncertainty k = 0.178021
        10        17        24        46     9        0.000000        0.105355         1    ;  uncertainty k = 0.275839
        10        17        24        46     9      180.000000        7.194222         2    ;  uncertainty k = 0.141147
        10        17        24        46     9        0.000000        0.736542         3    ;  uncertainty k = 0.220883
        10        17        24        46     9      180.000000        1.259995         4    ;  uncertainty k = 0.172871
        11        10        17        18     9        0.000000       -0.053105         1    ;  uncertainty k = 0.411810
        11        10        17        18     9      180.000000        3.828107         2    ;  uncertainty k = 0.307719
        11        10        17        18     9        0.000000        0.773098         3    ;  uncertainty k = 0.172532
        11        10        17        18     9      180.000000       -0.337043         4    ;  uncertainty k = 0.145109
        11        10        17        24     9        0.000000       -0.289529         1    ;  uncertainty k = 0.534530
        11        10        17        24     9      180.000000        3.756748         2    ;  uncertainty k = 0.308528
        11        10        17        24     9        0.000000        0.933930         3    ;  uncertainty k = 0.175015
        11        10        17        24     9      180.000000       -0.313168         4    ;  uncertainty k = 0.144046
        11        12        13        14     9        0.000000        0.230793         1    ;  uncertainty k = 1.269739
        11        12        13        14     9      180.000000        9.569834         2    ;  uncertainty k = 0.766860
        11        12        13        14     9        0.000000        0.431848         3    ;  uncertainty k = 0.749472
        11        12        13        14     9      180.000000        0.562970         4    ;  uncertainty k = 0.317996
        11        12        13        39     9        0.000000        0.582736         1    ;  uncertainty k = 1.282917
        11        12        13        39     9      180.000000        2.797133         2    ;  uncertainty k = 1.416069
        11        12        13        39     9        0.000000        1.235338         3    ;  uncertainty k = 0.396603
        11        12        13        39     9      180.000000        0.134009         4    ;  uncertainty k = 0.120872
        11        12        16        15     9        0.000000        0.339778         1    ;  uncertainty k = 0.557633
        11        12        16        15     9      180.000000        8.702718         2    ;  uncertainty k = 0.552036
        11        12        16        15     9        0.000000        0.461034         3    ;  uncertainty k = 0.395644
        11        12        16        15     9      180.000000        0.883729         4    ;  uncertainty k = 0.214014
        12        11        10        17     9        0.000000        0.566865         1    ;  uncertainty k = 0.286267
        12        11        10        17     9      180.000000       17.824232         2    ;  uncertainty k = 0.386869
        12        11        10        17     9        0.000000        1.832549         3    ;  uncertainty k = 0.452479
        12        11        10        17     9      180.000000        0.739629         4    ;  uncertainty k = 0.210653
        12        13        14        15     9        0.000000       -0.424259         1    ;  uncertainty k = 0.720471
        12        13        14        15     9      180.000000       21.948844         2    ;  uncertainty k = 0.272817
        12        13        14        15     9        0.000000       -9.453916         3    ;  uncertainty k = 0.408148
        12        13        14        15     9      180.000000        1.578950         4    ;  uncertainty k = 0.654473
        12        13        14        40     9        0.000000        0.427383         1    ;  uncertainty k = 0.828520
        12        13        14        40     9      180.000000       13.870596         2    ;  uncertainty k = 0.182398
        12        13        14        40     9        0.000000        1.815389         3    ;  uncertainty k = 0.320274
        12        13        14        40     9      180.000000        0.903574         4    ;  uncertainty k = 0.223947
        12        16        15        14     9        0.000000       -0.698106         1    ;  uncertainty k = 0.543243
        12        16        15        14     9      180.000000       23.970051         2    ;  uncertainty k = 0.495895
        12        16        15        14     9        0.000000      -11.206153         3    ;  uncertainty k = 1.161985
        12        16        15        14     9      180.000000        1.981051         4    ;  uncertainty k = 0.603215
        13        12        11        38     9        0.000000        1.227127         1    ;  uncertainty k = 1.232866
        13        12        11        38     9      180.000000        2.938476         2    ;  uncertainty k = 1.102518
        13        12        11        38     9        0.000000        1.033215         3    ;  uncertainty k = 0.512498
        13        12        11        38     9      180.000000        0.184974         4    ;  uncertainty k = 0.169272
        13        12        16        15     9        0.000000       -0.600194         1    ;  uncertainty k = 0.427509
        13        12        16        15     9      180.000000       12.032075         2    ;  uncertainty k = 0.540572
        13        12        16        15     9        0.000000       -4.884606         3    ;  uncertainty k = 1.243656
        13        12        16        15     9      180.000000        1.176890         4    ;  uncertainty k = 0.463084
        13        14        15        16     9        0.000000       -0.719371         1    ;  uncertainty k = 0.806440
        13        14        15        16     9      180.000000       16.306391         2    ;  uncertainty k = 0.372137
        13        14        15        16     9        0.000000       -5.546726         3    ;  uncertainty k = 0.784851
        13        14        15        16     9      180.000000        2.138755         4    ;  uncertainty k = 0.319469
        14        13        12        16     9        0.000000        0.425340         1    ;  uncertainty k = 0.911889
        14        13        12        16     9      180.000000       13.121731         2    ;  uncertainty k = 1.266973
        14        13        12        16     9        0.000000      -13.119121         3    ;  uncertainty k = 1.817832
        14        13        12        16     9      180.000000        1.693366         4    ;  uncertainty k = 0.377703
        15        14        13        39     9        0.000000       -0.210816         1    ;  uncertainty k = 0.409317
        15        14        13        39     9      180.000000       14.525462         2    ;  uncertainty k = 0.474526
        15        14        13        39     9        0.000000        1.399988         3    ;  uncertainty k = 0.472591
        15        14        13        39     9      180.000000        0.597840         4    ;  uncertainty k = 0.116226
        16         8         7        37     9        0.000000        5.299478         1    ;  uncertainty k = 1.071663
        16         8         7        37     9      180.000000        6.121003         2    ;  uncertainty k = 0.320629
        16         8         7        37     9        0.000000        1.371092         3    ;  uncertainty k = 0.426496
        16         8         7        37     9      180.000000       -0.017304         4    ;  uncertainty k = 0.216319
        16        12        11        38     9        0.000000        1.224013         1    ;  uncertainty k = 1.441620
        16        12        11        38     9      180.000000        4.285564         2    ;  uncertainty k = 0.541130
        16        12        11        38     9        0.000000        1.126046         3    ;  uncertainty k = 0.359170
        16        12        11        38     9      180.000000        0.200397         4    ;  uncertainty k = 0.127762
        16        12        13        39     9        0.000000        0.337817         1    ;  uncertainty k = 0.998522
        16        12        13        39     9      180.000000        7.392009         2    ;  uncertainty k = 0.385665
        16        12        13        39     9        0.000000        1.061986         3    ;  uncertainty k = 0.365239
        16        12        13        39     9      180.000000        0.171583         4    ;  uncertainty k = 0.281010
        16        15        14        40     9        0.000000       -0.095582         1    ;  uncertainty k = 0.393923
        16        15        14        40     9      180.000000       14.177386         2    ;  uncertainty k = 0.352374
        16        15        14        40     9        0.000000        1.588169         3    ;  uncertainty k = 0.688228
        16        15        14        40     9      180.000000        0.904862         4    ;  uncertainty k = 0.448977
        17        10        11        38     9        0.000000       -0.224559         1    ;  uncertainty k = 0.396139
        17        10        11        38     9      180.000000        9.474759         2    ;  uncertainty k = 0.512069
        17        10        11        38     9        0.000000        1.505536         3    ;  uncertainty k = 0.324140
        17        10        11        38     9      180.000000        1.010862         4    ;  uncertainty k = 0.139352
        17        18        19        20     9        0.000000        0.080512         1    ;  uncertainty k = 0.395061
        17        18        19        20     9      180.000000       12.924433         2    ;  uncertainty k = 0.422023
        17        18        19        20     9        0.000000       -0.592718         3    ;  uncertainty k = 0.187065
        17        18        19        20     9      180.000000        0.973955         4    ;  uncertainty k = 0.332966
        17        18        19        42     9        0.000000        0.126489         1    ;  uncertainty k = 0.203960
        17        18        19        42     9      180.000000        8.115471         2    ;  uncertainty k = 0.444266
        17        18        19        42     9        0.000000        1.325677         3    ;  uncertainty k = 0.247868
        17        18        19        42     9      180.000000        1.876056         4    ;  uncertainty k = 0.174859
        17        24        23        20     9        0.000000        0.082886         1    ;  uncertainty k = 0.219323
        17        24        23        20     9      180.000000        9.868986         2    ;  uncertainty k = 0.429618
        17        24        23        20     9        0.000000        0.455243         3    ;  uncertainty k = 0.143368
        17        24        23        20     9      180.000000        1.378448         4    ;  uncertainty k = 0.328415
        17        24        23        25     9        0.000000        0.491493         1    ;  uncertainty k = 0.337887
        17        24        23        25     9      180.000000        8.899996         2    ;  uncertainty k = 0.830906
        17        24        23        25     9        0.000000        1.705718         3    ;  uncertainty k = 0.377204
        17        24        23        25     9      180.000000        1.920635         4    ;  uncertainty k = 0.350314
        18        17        24        23     9        0.000000        0.216142         1    ;  uncertainty k = 0.309933
        18        17        24        23     9      180.000000        9.383853         2    ;  uncertainty k = 0.463137
        18        17        24        23     9        0.000000       -0.109759         3    ;  uncertainty k = 0.147984
        18        17        24        23     9      180.000000        1.153847         4    ;  uncertainty k = 0.205441
        18        17        24        46     9        0.000000        0.110705         1    ;  uncertainty k = 0.167262
        18        17        24        46     9      180.000000        7.112102         2    ;  uncertainty k = 0.482979
        18        17        24        46     9        0.000000        1.246952         3    ;  uncertainty k = 0.148358
        18        17        24        46     9      180.000000        1.621158         4    ;  uncertainty k = 0.261117
        18        19        20        21     9        0.000000        0.035908         1    ;  uncertainty k = 0.210837
        18        19        20        21     9      180.000000       11.140596         2    ;  uncertainty k = 0.346563
        18        19        20        21     9        0.000000        1.202310         3    ;  uncertainty k = 0.181507
        18        19        20        21     9      180.000000        1.668642         4    ;  uncertainty k = 0.106005
        18        19        20        23     9        0.000000        0.178800         1    ;  uncertainty k = 0.196339
        18        19        20        23     9      180.000000        7.107172         2    ;  uncertainty k = 0.890682
        18        19        20        23     9        0.000000        0.371272         3    ;  uncertainty k = 0.344348
        18        19        20        23     9      180.000000        1.391483         4    ;  uncertainty k = 0.298671
        19        18        17        24     9        0.000000       -0.023568         1    ;  uncertainty k = 0.200045
        19        18        17        24     9      180.000000       10.723079         2    ;  uncertainty k = 0.314777
        19        18        17        24     9        0.000000       -0.704324         3    ;  uncertainty k = 0.267000
        19        18        17        24     9      180.000000        0.968150         4    ;  uncertainty k = 0.178520
        19        20        21        22     9        0.000000        2.172893         1    ;  uncertainty k = 0.697650
        19        20        21        22     9      180.000000        7.242473         2    ;  uncertainty k = 0.159487
        19        20        21        22     9        0.000000       -0.224314         3    ;  uncertainty k = 0.123632
        19        20        21        22     9      180.000000        0.009424         4    ;  uncertainty k = 0.057444
        19        20        23        24     9        0.000000       -0.239256         1    ;  uncertainty k = 0.410757
        19        20        23        24     9      180.000000        5.820008         2    ;  uncertainty k = 0.387325
        19        20        23        24     9        0.000000        0.231878         3    ;  uncertainty k = 0.164243
        19        20        23        24     9      180.000000        1.290307         4    ;  uncertainty k = 0.175597
        19        20        23        25     9        0.000000        0.263300         1    ;  uncertainty k = 0.411759
        19        20        23        25     9      180.000000        5.812135         2    ;  uncertainty k = 0.498630
        19        20        23        25     9        0.000000        1.394763         3    ;  uncertainty k = 0.128857
        19        20        23        25     9      180.000000        1.587393         4    ;  uncertainty k = 0.184774
        20        19        18        41     9        0.000000        0.046605         1    ;  uncertainty k = 0.338992
        20        19        18        41     9      180.000000        7.631485         2    ;  uncertainty k = 0.350354
        20        19        18        41     9        0.000000        1.218718         3    ;  uncertainty k = 0.173320
        20        19        18        41     9      180.000000        1.770931         4    ;  uncertainty k = 0.136201
        20        21        22        43     9        0.000000        1.518560         1    ;  uncertainty k = 0.250618
        20        21        22        43     9      180.000000       -2.019169         2    ;  uncertainty k = 0.163020
        20        21        22        43     9        0.000000        0.752491         3    ;  uncertainty k = 0.113965
        20        21        22        43     9      180.000000        0.277751         4    ;  uncertainty k = 0.032151
        20        21        22        44     9        0.000000        1.518560         1    ;  uncertainty k = 0.250618
        20        21        22        44     9      180.000000       -2.019169         2    ;  uncertainty k = 0.163020
        20        21        22        44     9        0.000000        0.752491         3    ;  uncertainty k = 0.113965
        20        21        22        44     9      180.000000        0.277751         4    ;  uncertainty k = 0.032151
        20        21        22        45     9        0.000000        1.518560         1    ;  uncertainty k = 0.250618
        20        21        22        45     9      180.000000       -2.019169         2    ;  uncertainty k = 0.163020
        20        21        22        45     9        0.000000        0.752491         3    ;  uncertainty k = 0.113965
        20        21        22        45     9      180.000000        0.277751         4    ;  uncertainty k = 0.032151
        20        23        24        46     9        0.000000        0.257122         1    ;  uncertainty k = 0.623025
        20        23        24        46     9      180.000000        8.019928         2    ;  uncertainty k = 0.226328
        20        23        24        46     9        0.000000        1.244625         3    ;  uncertainty k = 0.133809
        20        23        24        46     9      180.000000        1.706116         4    ;  uncertainty k = 0.196936
        20        23        25        26     9        0.000000       -4.762749         1    ;  uncertainty k = 0.700223
        20        23        25        26     9      180.000000        4.196176         2    ;  uncertainty k = 0.595006
        20        23        25        26     9        0.000000        0.965536         3    ;  uncertainty k = 0.256088
        20        23        25        26     9      180.000000        0.164380         4    ;  uncertainty k = 0.104138
        20        23        25        27     9        0.000000        1.478453         1    ;  uncertainty k = 0.907867
        20        23        25        27     9      180.000000        3.417522         2    ;  uncertainty k = 0.262872
        20        23        25        27     9        0.000000        0.151429         3    ;  uncertainty k = 0.188979
        20        23        25        27     9      180.000000        0.171486         4    ;  uncertainty k = 0.101350
        21        20        19        42     9        0.000000       -0.210530         1    ;  uncertainty k = 0.193742
        21        20        19        42     9      180.000000        9.224263         2    ;  uncertainty k = 0.415622
        21        20        19        42     9        0.000000        0.707089         3    ;  uncertainty k = 0.185803
        21        20        19        42     9      180.000000        1.193031         4    ;  uncertainty k = 0.340884
        21        20        23        24     9        0.000000        0.294534         1    ;  uncertainty k = 0.240439
        21        20        23        24     9      180.000000        9.383800         2    ;  uncertainty k = 0.553544
        21        20        23        24     9        0.000000        1.153284         3    ;  uncertainty k = 0.349316
        21        20        23        24     9      180.000000        1.559810         4    ;  uncertainty k = 0.214893
        21        20        23        25     9        0.000000       -0.238874         1    ;  uncertainty k = 1.189480
        21        20        23        25     9      180.000000        9.507566         2    ;  uncertainty k = 0.565480
        21        20        23        25     9        0.000000        1.212880         3    ;  uncertainty k = 0.224783
        21        20        23        25     9      180.000000        1.359576         4    ;  uncertainty k = 0.344270
        22        21        20        23     9        0.000000       -2.096443         1    ;  uncertainty k = 1.044804
        22        21        20        23     9      180.000000        7.612732         2    ;  uncertainty k = 0.242303
        22        21        20        23     9        0.000000        0.292338         3    ;  uncertainty k = 0.358008
        22        21        20        23     9      180.000000        0.491755         4    ;  uncertainty k = 0.203380
        23        20        19        42     9        0.000000        0.264150         1    ;  uncertainty k = 0.538339
        23        20        19        42     9      180.000000        5.587751         2    ;  uncertainty k = 0.326484
        23        20        19        42     9        0.000000        1.539976         3    ;  uncertainty k = 0.206811
        23        20        19        42     9      180.000000        1.678179         4    ;  uncertainty k = 0.116857
        23        25        27        47     9        0.000000        2.525671         1    ;  uncertainty k = 0.740372
        23        25        27        47     9      180.000000        7.974910         2    ;  uncertainty k = 0.387566
        23        25        27        47     9        0.000000        2.746139         3    ;  uncertainty k = 0.388736
        23        25        27        47     9      180.000000       -0.298261         4    ;  uncertainty k = 0.342074
        23        25        27        48     9        0.000000        2.525671         1    ;  uncertainty k = 0.740372
        23        25        27        48     9      180.000000        7.974910         2    ;  uncertainty k = 0.387566
        23        25        27        48     9        0.000000        2.746139         3    ;  uncertainty k = 0.388736
        23        25        27        48     9      180.000000       -0.298261         4    ;  uncertainty k = 0.342074
        24        17        18        41     9        0.000000        0.175304         1    ;  uncertainty k = 0.087724
        24        17        18        41     9      180.000000        6.728620         2    ;  uncertainty k = 0.426859
        24        17        18        41     9        0.000000        1.238094         3    ;  uncertainty k = 0.254084
        24        17        18        41     9      180.000000        1.602521         4    ;  uncertainty k = 0.236182
        24        23        25        26     9        0.000000       -1.128292         1    ;  uncertainty k = 0.364085
        24        23        25        26     9      180.000000        3.503814         2    ;  uncertainty k = 0.241107
        24        23        25        26     9        0.000000        0.274099         3    ;  uncertainty k = 0.324366
        24        23        25        26     9      180.000000        0.065110         4    ;  uncertainty k = 0.077971
        24        23        25        27     9        0.000000        0.446527         1    ;  uncertainty k = 1.336547
        24        23        25        27     9      180.000000        3.443950         2    ;  uncertainty k = 0.364191
        24        23        25        27     9        0.000000        0.711483         3    ;  uncertainty k = 0.387107
        24        23        25        27     9      180.000000       -0.071370         4    ;  uncertainty k = 0.156413
        25        23        24        46     9        0.000000       -0.054986         1    ;  uncertainty k = 0.454933
        25        23        24        46     9      180.000000        8.383830         2    ;  uncertainty k = 0.583294
        25        23        24        46     9        0.000000        1.135015         3    ;  uncertainty k = 0.269375
        25        23        24        46     9      180.000000        1.359984         4    ;  uncertainty k = 0.350722
        26        25        27        47     9        0.000000        3.939133         1    ;  uncertainty k = 1.192063
        26        25        27        47     9      180.000000       12.224740         2    ;  uncertainty k = 0.248703
        26        25        27        47     9        0.000000        2.073174         3    ;  uncertainty k = 0.139162
        26        25        27        47     9      180.000000        0.286107         4    ;  uncertainty k = 0.243119
        26        25        27        48     9        0.000000        3.939133         1    ;  uncertainty k = 1.192063
        26        25        27        48     9      180.000000       12.224740         2    ;  uncertainty k = 0.248703
        26        25        27        48     9        0.000000        2.073174         3    ;  uncertainty k = 0.139162
        26        25        27        48     9      180.000000        0.286107         4    ;  uncertainty k = 0.243119
        28         6         5        36     9        0.000000        0.060116         1    ;  uncertainty k = 0.285327
        28         6         5        36     9      180.000000        6.705137         2    ;  uncertainty k = 0.811645
        28         6         5        36     9        0.000000        1.254749         3    ;  uncertainty k = 0.282861
        28         6         5        36     9      180.000000        1.489480         4    ;  uncertainty k = 0.123486
        28         6         7        37     9        0.000000        3.766903         1    ;  uncertainty k = 0.282406
        28         6         7        37     9      180.000000        4.224135         2    ;  uncertainty k = 0.219472
        28         6         7        37     9        0.000000        0.731781         3    ;  uncertainty k = 0.239894
        28         6         7        37     9      180.000000        0.435986         4    ;  uncertainty k = 0.107235
        28        29        30        31     9        0.000000        1.341409         1    ;  uncertainty k = 0.791973
        28        29        30        31     9      180.000000        6.361826         2    ;  uncertainty k = 0.220151
        28        29        30        31     9        0.000000       -0.225719         3    ;  uncertainty k = 0.095998
        28        29        30        31     9      180.000000        0.006631         4    ;  uncertainty k = 0.110606
        29         3         4        35     9        0.000000       -0.032441         1    ;  uncertainty k = 0.368382
        29         3         4        35     9      180.000000        5.959632         2    ;  uncertainty k = 0.432853
        29         3         4        35     9        0.000000        1.321132         3    ;  uncertainty k = 0.261791
        29         3         4        35     9      180.000000        1.598351         4    ;  uncertainty k = 0.068542
        29        30        31        50     9        0.000000        1.110243         1    ;  uncertainty k = 0.221947
        29        30        31        50     9      180.000000       -2.083404         2    ;  uncertainty k = 0.117430
        29        30        31        50     9        0.000000        1.033193         3    ;  uncertainty k = 0.049823
        29        30        31        50     9      180.000000        0.223294         4    ;  uncertainty k = 0.039928
        29        30        31        51     9        0.000000        1.110243         1    ;  uncertainty k = 0.221947
        29        30        31        51     9      180.000000       -2.083404         2    ;  uncertainty k = 0.117430
        29        30        31        51     9        0.000000        1.033193         3    ;  uncertainty k = 0.049823
        29        30        31        51     9      180.000000        0.223294         4    ;  uncertainty k = 0.039928
        29        30        31        52     9        0.000000        1.110243         1    ;  uncertainty k = 0.221947
        29        30        31        52     9      180.000000       -2.083404         2    ;  uncertainty k = 0.117430
        29        30        31        52     9        0.000000        1.033193         3    ;  uncertainty k = 0.049823
        29        30        31        52     9      180.000000        0.223294         4    ;  uncertainty k = 0.039928
        30        29        28        49     9        0.000000       -0.013362         1    ;  uncertainty k = 0.227812
        30        29        28        49     9      180.000000        9.629865         2    ;  uncertainty k = 0.341224
        30        29        28        49     9        0.000000        0.885574         3    ;  uncertainty k = 0.134168
        30        29        28        49     9      180.000000        1.294493         4    ;  uncertainty k = 0.314813
        35         4         5        36     9        0.000000       -0.108356         1    ;  uncertainty k = 0.187628
        35         4         5        36     9      180.000000        7.451232         2    ;  uncertainty k = 0.478631
        35         4         5        36     9        0.000000       -0.297348         3    ;  uncertainty k = 0.298879
        35         4         5        36     9      180.000000        0.257401         4    ;  uncertainty k = 0.173209
        39        13        14        40     9        0.000000       -0.311075         1    ;  uncertainty k = 0.492453
        39        13        14        40     9      180.000000        5.384358         2    ;  uncertainty k = 0.598235
        39        13        14        40     9        0.000000        1.243313         3    ;  uncertainty k = 0.430719
        39        13        14        40     9      180.000000        0.271791         4    ;  uncertainty k = 0.092256
        41        18        19        42     9        0.000000       -0.113440         1    ;  uncertainty k = 0.228406
        41        18        19        42     9      180.000000        7.921782         2    ;  uncertainty k = 0.443546
        41        18        19        42     9        0.000000       -0.420012         3    ;  uncertainty k = 0.281211
        41        18        19        42     9      180.000000        0.254364         4    ;  uncertainty k = 0.211460

[ dihedrals ] ; impropers
;       ai        aj        ak        al funct           phase               k        pn
         3         2         4        29     4      180.000000       15.206029         2    ;  uncertainty k = 0.074967
         3         4        29         2     4      180.000000       15.206029         2    ;  uncertainty k = 0.074967
         3        29         2         4     4      180.000000       15.206029         2    ;  uncertainty k = 0.074967
         4         3         5        35     4      180.000000        2.008335         2    ;  uncertainty k = 0.230964
         4         5        35         3     4      180.000000        2.008335         2    ;  uncertainty k = 0.230964
         4        35         3         5     4      180.000000        2.008335         2    ;  uncertainty k = 0.230964
         5         4         6        36     4      180.000000        2.607477         2    ;  uncertainty k = 0.379217
         5         6        36         4     4      180.000000        2.607477         2    ;  uncertainty k = 0.379217
         5        36         4         6     4      180.000000        2.607477         2    ;  uncertainty k = 0.379217
         6         5         7        28     4      180.000000       17.507517         2    ;  uncertainty k = 0.057196
         6         7        28         5     4      180.000000       17.507517         2    ;  uncertainty k = 0.057196
         6        28         5         7     4      180.000000       17.507517         2    ;  uncertainty k = 0.057196
         7         6         8        37     4      180.000000        1.622505         2    ;  uncertainty k = 0.666333
         7         8        37         6     4      180.000000        1.622505         2    ;  uncertainty k = 0.666333
         7        37         6         8     4      180.000000        1.622505         2    ;  uncertainty k = 0.666333
         8         7         9        16     4      180.000000       28.356151         2    ;  uncertainty k = 0.063061
         8         9        16         7     4      180.000000       28.356151         2    ;  uncertainty k = 0.063061
         8        16         7         9     4      180.000000       28.356151         2    ;  uncertainty k = 0.063061
        10         9        11        17     4      180.000000       19.413981         2    ;  uncertainty k = 0.088150
        10        11        17         9     4      180.000000       19.413981         2    ;  uncertainty k = 0.088150
        10        17         9        11     4      180.000000       19.413981         2    ;  uncertainty k = 0.088150
        11        10        12        38     4      180.000000        1.395890         2    ;  uncertainty k = 1.170220
        11        12        38        10     4      180.000000        1.395890         2    ;  uncertainty k = 1.170220
        11        38        10        12     4      180.000000        1.395890         2    ;  uncertainty k = 1.170220
        12        11        13        16     4      180.000000        1.589327         2    ;  uncertainty k = 1.390534
        12        13        16        11     4      180.000000        1.589327         2    ;  uncertainty k = 1.390534
        12        16        11        13     4      180.000000        1.589327         2    ;  uncertainty k = 1.390534
        13        12        14        39     4      180.000000        0.105195         2    ;  uncertainty k = 0.235223
        13        14        39        12     4      180.000000        0.105195         2    ;  uncertainty k = 0.235223
        13        39        12        14     4      180.000000        0.105195         2    ;  uncertainty k = 0.235223
        14        13        15        40     4      180.000000        1.779599         2    ;  uncertainty k = 0.230150
        14        15        40        13     4      180.000000        1.779599         2    ;  uncertainty k = 0.230150
        14        40        13        15     4      180.000000        1.779599         2    ;  uncertainty k = 0.230150
        16         8        12        15     4      180.000000        2.165381         2    ;  uncertainty k = 0.627947
        16        12        15         8     4      180.000000        2.165381         2    ;  uncertainty k = 0.627947
        16        15         8        12     4      180.000000        2.165381         2    ;  uncertainty k = 0.627947
        17        10        18        24     4      180.000000        9.964742         2    ;  uncertainty k = 0.137256
        17        18        24        10     4      180.000000        9.964742         2    ;  uncertainty k = 0.137256
        17        24        10        18     4      180.000000        9.964742         2    ;  uncertainty k = 0.137256
        18        17        19        41     4      180.000000        4.330031         2    ;  uncertainty k = 0.046156
        18        19        41        17     4      180.000000        4.330031         2    ;  uncertainty k = 0.046156
        18        41        17        19     4      180.000000        4.330031         2    ;  uncertainty k = 0.046156
        19        18        20        42     4      180.000000        1.480279         2    ;  uncertainty k = 0.491606
        19        20        42        18     4      180.000000        1.480279         2    ;  uncertainty k = 0.491606
        19        42        18        20     4      180.000000        1.480279         2    ;  uncertainty k = 0.491606
        20        19        21        23     4      180.000000       21.510035         2    ;  uncertainty k = 0.210241
        20        21        23        19     4      180.000000       21.510035         2    ;  uncertainty k = 0.210241
        20        23        19        21     4      180.000000       21.510035         2    ;  uncertainty k = 0.210241
        23        20        24        25     4      180.000000        8.174968         2    ;  uncertainty k = 0.404940
        23        24        25        20     4      180.000000        8.174968         2    ;  uncertainty k = 0.404940
        23        25        20        24     4      180.000000        8.174968         2    ;  uncertainty k = 0.404940
        24        17        23        46     4      180.000000        4.934930         2    ;  uncertainty k = 0.210317
        24        23        46        17     4      180.000000        4.934930         2    ;  uncertainty k = 0.210317
        24        46        17        23     4      180.000000        4.934930         2    ;  uncertainty k = 0.210317
        25        23        26        27     4      180.000000       54.296103         2    ;  uncertainty k = 0.028618
        25        26        27        23     4      180.000000       54.296103         2    ;  uncertainty k = 0.028618
        25        27        23        26     4      180.000000       54.296103         2    ;  uncertainty k = 0.028618
        28         6        29        49     4      180.000000        1.689049         2    ;  uncertainty k = 0.529654
        28        29        49         6     4      180.000000        1.689049         2    ;  uncertainty k = 0.529654
        28        49         6        29     4      180.000000        1.689049         2    ;  uncertainty k = 0.529654
        29         3        28        30     4      180.000000       16.672261         2    ;  uncertainty k = 0.075717
        29        28        30         3     4      180.000000       16.672261         2    ;  uncertainty k = 0.075717
        29        30         3        28     4      180.000000       16.672261         2    ;  uncertainty k = 0.075717

[ pairs ]
;       ai        aj funct
         1         4     1
         1        29     1
         2         5     1
         2        28     1
         2        30     1
         2        35     1
         3         6     1
         3        31     1
         3        32     1
         3        33     1
         3        34     1
         3        36     1
         3        49     1
         4         7     1
         4        28     1
         4        30     1
         5         8     1
         5        29     1
         5        37     1
         5        49     1
         6         9     1
         6        16     1
         6        30     1
         6        35     1
         7        10     1
         7        12     1
         7        15     1
         7        29     1
         7        36     1
         7        49     1
         8        11     1
         8        13     1
         8        14     1
         8        17     1
         8        28     1
         9        12     1
         9        15     1
         9        18     1
         9        24     1
         9        37     1
         9        38     1
        10        13     1
        10        16     1
        10        19     1
        10        23     1
        10        41     1
        10        46     1
        11        14     1
        11        15     1
        11        18     1
        11        24     1
        11        39     1
        12        17     1
        12        40     1
        13        38     1
        15        39     1
        16        37     1
        16        38     1
        16        39     1
        16        40     1
        17        20     1
        17        25     1
        17        38     1
        17        42     1
        18        21     1
        18        23     1
        18        46     1
        19        22     1
        19        24     1
        19        25     1
        20        26     1
        20        27     1
        20        41     1
        20        43     1
        20        44     1
        20        45     1
        20        46     1
        21        24     1
        21        25     1
        21        42     1
        22        23     1
        23        42     1
        23        47     1
        23        48     1
        24        26     1
        24        27     1
        24        41     1
        25        46     1
        26        47     1
        26        48     1
        28        31     1
        28        36     1
        28        37     1
        29        35     1
        29        50     1
        29        51     1
        29        52     1
        30        49     1
        35        36     1
        39        40     1
        41        42     1
