; ITP file created by ByteFF-joint-25, 2026-02-17 09:37:04.440123

[ atomtypes ]
;name           bonded.type        at.num        mass        charge   ptype           sigma         epsilon
 c0bf                                   6      0.0000       0.00000       A     3.39774e-01     4.50890e-01    ;  uncertainty sigma = 0.000006, epsilon = 0.000514
 o1bf                                   8      0.0000       0.00000       A     3.15641e-01     3.03850e-01    ;  uncertainty sigma = 0.000015, epsilon = 0.000455
 c2bf                                   6      0.0000       0.00000       A     3.31526e-01     4.13474e-01    ;  uncertainty sigma = 0.000006, epsilon = 0.000721
 c3bf                                   6      0.0000       0.00000       A     3.31529e-01     4.13640e-01    ;  uncertainty sigma = 0.000005, epsilon = 0.000792
 c4bf                                   6      0.0000       0.00000       A     3.31525e-01     4.13354e-01    ;  uncertainty sigma = 0.000006, epsilon = 0.000662
 c5bf                                   6      0.0000       0.00000       A     3.31528e-01     4.13588e-01    ;  uncertainty sigma = 0.000010, epsilon = 0.000818
 n6bf                                   7      0.0000       0.00000       A     3.27852e-01     6.46169e-01    ;  uncertainty sigma = 0.000043, epsilon = 0.003219
 c7bf                                   6      0.0000       0.00000       A     3.31526e-01     4.13887e-01    ;  uncertainty sigma = 0.000017, epsilon = 0.001682
 n8bf                                   7      0.0000       0.00000       A     3.38466e-01     3.93319e-01    ;  uncertainty sigma = 0.000031, epsilon = 0.000671
 c9bf                                   6      0.0000       0.00000       A     3.31551e-01     4.13409e-01    ;  uncertainty sigma = 0.000023, epsilon = 0.000748
 c10bf                                  6      0.0000       0.00000       A     3.31559e-01     4.13603e-01    ;  uncertainty sigma = 0.000013, epsilon = 0.001559
 n11bf                                  7      0.0000       0.00000       A     3.20547e-01     8.53303e-01    ;  uncertainty sigma = 0.000017, epsilon = 0.000844
 c12bf                                  6      0.0000       0.00000       A     3.31503e-01     4.12978e-01    ;  uncertainty sigma = 0.000012, epsilon = 0.001136
 c13bf                                  6      0.0000       0.00000       A     3.31531e-01     4.13187e-01    ;  uncertainty sigma = 0.000008, epsilon = 0.000699
 n14bf                                  7      0.0000       0.00000       A     3.38427e-01     3.92895e-01    ;  uncertainty sigma = 0.000039, epsilon = 0.000415
 c15bf                                  6      0.0000       0.00000       A     3.31554e-01     4.12537e-01    ;  uncertainty sigma = 0.000015, epsilon = 0.000432
 c16bf                                  6      0.0000       0.00000       A     3.31511e-01     4.13158e-01    ;  uncertainty sigma = 0.000013, epsilon = 0.000567
 c17bf                                  6      0.0000       0.00000       A     3.31509e-01     4.13381e-01    ;  uncertainty sigma = 0.000005, epsilon = 0.000488
 c18bf                                  6      0.0000       0.00000       A     3.31515e-01     4.13490e-01    ;  uncertainty sigma = 0.000003, epsilon = 0.000920
 c19bf                                  6      0.0000       0.00000       A     3.31506e-01     4.13108e-01    ;  uncertainty sigma = 0.000012, epsilon = 0.001475
 c20bf                                  6      0.0000       0.00000       A     3.31530e-01     4.12767e-01    ;  uncertainty sigma = 0.000029, epsilon = 0.000925
 o21bf                                  8      0.0000       0.00000       A     3.04794e-01     6.12196e-01    ;  uncertainty sigma = 0.000022, epsilon = 0.001603
 n22bf                                  7      0.0000       0.00000       A     3.35995e-01     3.54451e-01    ;  uncertainty sigma = 0.000048, epsilon = 0.003042
 c23bf                                  6      0.0000       0.00000       A     3.31528e-01     4.13041e-01    ;  uncertainty sigma = 0.000011, epsilon = 0.001184
 f24bf                                  9      0.0000       0.00000       A     3.03406e-01     3.48042e-01    ;  uncertainty sigma = 0.000024, epsilon = 0.000868
 c25bf                                  6      0.0000       0.00000       A     3.31520e-01     4.13502e-01    ;  uncertainty sigma = 0.000010, epsilon = 0.000825
 c26bf                                  6      0.0000       0.00000       A     3.31516e-01     4.13129e-01    ;  uncertainty sigma = 0.000010, epsilon = 0.000957
 c27bf                                  6      0.0000       0.00000       A     3.31531e-01     4.13728e-01    ;  uncertainty sigma = 0.000008, epsilon = 0.001049
 o28bf                                  8      0.0000       0.00000       A     3.15636e-01     3.03949e-01    ;  uncertainty sigma = 0.000015, epsilon = 0.000670
 c29bf                                  6      0.0000       0.00000       A     3.39774e-01     4.50890e-01    ;  uncertainty sigma = 0.000006, epsilon = 0.000514
 h30bf                                  1      0.0000       0.00000       A     2.42205e-01     8.67538e-02    ;  uncertainty sigma = 0.000015, epsilon = 0.000624
 h31bf                                  1      0.0000       0.00000       A     2.42205e-01     8.67538e-02    ;  uncertainty sigma = 0.000015, epsilon = 0.000624
 h32bf                                  1      0.0000       0.00000       A     2.42205e-01     8.67538e-02    ;  uncertainty sigma = 0.000015, epsilon = 0.000624
 h33bf                                  1      0.0000       0.00000       A     2.62570e-01     6.70700e-02    ;  uncertainty sigma = 0.000012, epsilon = 0.000330
 h34bf                                  1      0.0000       0.00000       A     2.62564e-01     6.70248e-02    ;  uncertainty sigma = 0.000015, epsilon = 0.000426
 h35bf                                  1      0.0000       0.00000       A     1.10708e-01     4.06502e-02    ;  uncertainty sigma = 0.000118, epsilon = 0.000465
 h36bf                                  1      0.0000       0.00000       A     2.53612e-01     6.73648e-02    ;  uncertainty sigma = 0.000081, epsilon = 0.000889
 h37bf                                  1      0.0000       0.00000       A     2.53649e-01     6.68496e-02    ;  uncertainty sigma = 0.000023, epsilon = 0.000657
 h38bf                                  1      0.0000       0.00000       A     2.53645e-01     6.69492e-02    ;  uncertainty sigma = 0.000020, epsilon = 0.000834
 h39bf                                  1      0.0000       0.00000       A     2.62565e-01     6.70447e-02    ;  uncertainty sigma = 0.000011, epsilon = 0.000506
 h40bf                                  1      0.0000       0.00000       A     2.62569e-01     6.72133e-02    ;  uncertainty sigma = 0.000007, epsilon = 0.000704
 h41bf                                  1      0.0000       0.00000       A     1.10644e-01     4.14127e-02    ;  uncertainty sigma = 0.000051, epsilon = 0.000340
 h42bf                                  1      0.0000       0.00000       A     1.10644e-01     4.14127e-02    ;  uncertainty sigma = 0.000051, epsilon = 0.000340
 h43bf                                  1      0.0000       0.00000       A     2.62561e-01     6.70526e-02    ;  uncertainty sigma = 0.000015, epsilon = 0.000622
 h44bf                                  1      0.0000       0.00000       A     2.62560e-01     6.71373e-02    ;  uncertainty sigma = 0.000017, epsilon = 0.000539
 h45bf                                  1      0.0000       0.00000       A     2.42205e-01     8.67537e-02    ;  uncertainty sigma = 0.000015, epsilon = 0.000624
 h46bf                                  1      0.0000       0.00000       A     2.42205e-01     8.67537e-02    ;  uncertainty sigma = 0.000015, epsilon = 0.000624
 h47bf                                  1      0.0000       0.00000       A     2.42205e-01     8.67537e-02    ;  uncertainty sigma = 0.000015, epsilon = 0.000624

[ moleculetype ]
;name             nrexcl
 MOL                   3

[ atoms ]
;       nr            type      resi   res      atom      cgnr      charge          mass ; qtot
         1            c0bf         1   UNL        c0         1     0.11960       12.0110 ; qtot    0.120
         2            o1bf         1   UNL        o1         2    -0.32010       15.9990 ; qtot   -0.201
         3            c2bf         1   UNL        c2         3     0.07584       12.0110 ; qtot   -0.125
         4            c3bf         1   UNL        c3         4    -0.15014       12.0110 ; qtot   -0.275
         5            c4bf         1   UNL        c4         5    -0.15106       12.0110 ; qtot   -0.426
         6            c5bf         1   UNL        c5         6     0.16694       12.0110 ; qtot   -0.259
         7            n6bf         1   UNL        n6         7    -0.73903       14.0070 ; qtot   -0.998
         8            c7bf         1   UNL        c7         8     0.75065       12.0110 ; qtot   -0.247
         9            n8bf         1   UNL        n8         9    -0.76892       14.0070 ; qtot   -1.016
        10            c9bf         1   UNL        c9        10     0.47207       12.0110 ; qtot   -0.544
        11           c10bf         1   UNL       c10        11    -0.21456       12.0110 ; qtot   -0.759
        12           n11bf         1   UNL       n11        12     0.05302       14.0070 ; qtot   -0.706
        13           c12bf         1   UNL       c12        13    -0.21243       12.0110 ; qtot   -0.918
        14           c13bf         1   UNL       c13        14     0.01175       12.0110 ; qtot   -0.906
        15           n14bf         1   UNL       n14        15    -0.27543       14.0070 ; qtot   -1.182
        16           c15bf         1   UNL       c15        16    -0.18460       12.0110 ; qtot   -1.366
        17           c16bf         1   UNL       c16        17    -0.07757       12.0110 ; qtot   -1.444
        18           c17bf         1   UNL       c17        18    -0.12622       12.0110 ; qtot   -1.570
        19           c18bf         1   UNL       c18        19    -0.06726       12.0110 ; qtot   -1.637
        20           c19bf         1   UNL       c19        20    -0.17592       12.0110 ; qtot   -1.813
        21           c20bf         1   UNL       c20        21     0.67766       12.0110 ; qtot   -1.136
        22           o21bf         1   UNL       o21        22    -0.59168       15.9990 ; qtot   -1.727
        23           n22bf         1   UNL       n22        23    -0.66185       14.0070 ; qtot   -2.389
        24           c23bf         1   UNL       c23        24     0.16262       12.0110 ; qtot   -2.227
        25           f24bf         1   UNL       f24        25    -0.13888       18.9980 ; qtot   -2.365
        26           c25bf         1   UNL       c25        26    -0.15041       12.0110 ; qtot   -2.516
        27           c26bf         1   UNL       c26        27    -0.20840       12.0110 ; qtot   -2.724
        28           c27bf         1   UNL       c27        28     0.11790       12.0110 ; qtot   -2.606
        29           o28bf         1   UNL       o28        29    -0.31927       15.9990 ; qtot   -2.926
        30           c29bf         1   UNL       c29        30     0.11995       12.0110 ; qtot   -2.806
        31           h30bf         1   UNL       h30        31     0.04337        1.0080 ; qtot   -2.762
        32           h31bf         1   UNL       h31        32     0.04337        1.0080 ; qtot   -2.719
        33           h32bf         1   UNL       h32        33     0.04337        1.0080 ; qtot   -2.676
        34           h33bf         1   UNL       h33        34     0.14091        1.0080 ; qtot   -2.535
        35           h34bf         1   UNL       h34        35     0.15302        1.0080 ; qtot   -2.382
        36           h35bf         1   UNL       h35        36     0.46165        1.0080 ; qtot   -1.920
        37           h36bf         1   UNL       h36        37     0.17424        1.0080 ; qtot   -1.746
        38           h37bf         1   UNL       h37        38     0.18619        1.0080 ; qtot   -1.560
        39           h38bf         1   UNL       h38        39     0.17120        1.0080 ; qtot   -1.388
        40           h39bf         1   UNL       h39        40     0.15001        1.0080 ; qtot   -1.238
        41           h40bf         1   UNL       h40        41     0.15749        1.0080 ; qtot   -1.081
        42           h41bf         1   UNL       h41        42     0.31587        1.0080 ; qtot   -0.765
        43           h42bf         1   UNL       h42        43     0.31587        1.0080 ; qtot   -0.449
        44           h43bf         1   UNL       h43        44     0.16342        1.0080 ; qtot   -0.286
        45           h44bf         1   UNL       h44        45     0.15565        1.0080 ; qtot   -0.130
        46           h45bf         1   UNL       h45        46     0.04337        1.0080 ; qtot   -0.087
        47           h46bf         1   UNL       h46        47     0.04337        1.0080 ; qtot   -0.043
        48           h47bf         1   UNL       h47        48     0.04336        1.0080 ; qtot    0.000

[ bonds ]
;       ai        aj funct               r               k
         1         2     1        0.142504   247060.424561    ;  uncertainty r = 0.000030, k = 4.357279
         1        31     1        0.109559   311162.501807    ;  uncertainty r = 0.000020, k = 1.272505
         1        32     1        0.109559   311162.501807    ;  uncertainty r = 0.000020, k = 1.272505
         1        33     1        0.109559   311162.501807    ;  uncertainty r = 0.000020, k = 1.272505
         2         3     1        0.136892   321113.062012    ;  uncertainty r = 0.000059, k = 4.532937
         3         4     1        0.139488   349133.425439    ;  uncertainty r = 0.000031, k = 2.724656
         3        28     1        0.140227   349402.969629    ;  uncertainty r = 0.000054, k = 7.584627
         4         5     1        0.139369   369864.655127    ;  uncertainty r = 0.000071, k = 2.574425
         4        34     1        0.108705   336290.634375    ;  uncertainty r = 0.000024, k = 1.905467
         5         6     1        0.139713   352891.517529    ;  uncertainty r = 0.000095, k = 4.859039
         5        35     1        0.108700   336152.248779    ;  uncertainty r = 0.000031, k = 1.798265
         6         7     1        0.141333   346668.455957    ;  uncertainty r = 0.000119, k = 12.315044
         6        27     1        0.140236   355873.307031    ;  uncertainty r = 0.000083, k = 5.100092
         7         8     1        0.137988   330814.533252    ;  uncertainty r = 0.000224, k = 31.605630
         7        36     1        0.102091   426736.870264    ;  uncertainty r = 0.000039, k = 5.302920
         8         9     1        0.132294   443005.770996    ;  uncertainty r = 0.000186, k = 13.577353
         8        16     1        0.143016   286566.945654    ;  uncertainty r = 0.000095, k = 10.976562
         9        10     1        0.137454   260995.871924    ;  uncertainty r = 0.000227, k = 24.996015
        10        11     1        0.136919   381606.898926    ;  uncertainty r = 0.000111, k = 12.990293
        10        17     1        0.147209   265284.829443    ;  uncertainty r = 0.000151, k = 11.301211
        11        12     1        0.137882   325401.789697    ;  uncertainty r = 0.000063, k = 6.041351
        11        37     1        0.108486   340798.853516    ;  uncertainty r = 0.000072, k = 2.317266
        12        13     1        0.137812   342777.341064    ;  uncertainty r = 0.000099, k = 5.087994
        12        16     1        0.139016   307421.213135    ;  uncertainty r = 0.000151, k = 23.940608
        13        14     1        0.138713   413349.321582    ;  uncertainty r = 0.000044, k = 11.515297
        13        38     1        0.108153   341281.121826    ;  uncertainty r = 0.000029, k = 4.725656
        14        15     1        0.136694   264650.921777    ;  uncertainty r = 0.000104, k = 21.676773
        14        39     1        0.108374   336399.652295    ;  uncertainty r = 0.000052, k = 2.763013
        15        16     1        0.133277   447135.785547    ;  uncertainty r = 0.000097, k = 11.841721
        17        18     1        0.139798   346314.256250    ;  uncertainty r = 0.000097, k = 4.830002
        17        26     1        0.139570   357402.137158    ;  uncertainty r = 0.000051, k = 5.670838
        18        19     1        0.138917   359663.575879    ;  uncertainty r = 0.000073, k = 5.398645
        18        40     1        0.108737   333094.052246    ;  uncertainty r = 0.000033, k = 1.089303
        19        20     1        0.139922   355726.008984    ;  uncertainty r = 0.000088, k = 5.728296
        19        41     1        0.108610   330794.205713    ;  uncertainty r = 0.000029, k = 1.179390
        20        21     1        0.149943   235227.600635    ;  uncertainty r = 0.000106, k = 15.859706
        20        24     1        0.139629   327636.005859    ;  uncertainty r = 0.000072, k = 5.610321
        21        22     1        0.124036   890449.380859    ;  uncertainty r = 0.000096, k = 10.252633
        21        23     1        0.138914   490095.485645    ;  uncertainty r = 0.000155, k = 13.333237
        23        42     1        0.101647   427852.535498    ;  uncertainty r = 0.000060, k = 3.116580
        23        43     1        0.101647   427852.535498    ;  uncertainty r = 0.000060, k = 3.116580
        24        25     1        0.136039   332381.924414    ;  uncertainty r = 0.000132, k = 4.586875
        24        26     1        0.138705   349590.360938    ;  uncertainty r = 0.000132, k = 6.071082
        26        44     1        0.108745   335831.221777    ;  uncertainty r = 0.000030, k = 0.180058
        27        28     1        0.139270   345625.520410    ;  uncertainty r = 0.000054, k = 5.224456
        27        45     1        0.108746   339222.268994    ;  uncertainty r = 0.000057, k = 2.203703
        28        29     1        0.136641   322875.224707    ;  uncertainty r = 0.000095, k = 4.764590
        29        30     1        0.142472   247648.314355    ;  uncertainty r = 0.000036, k = 5.188422
        30        46     1        0.109559   311162.501807    ;  uncertainty r = 0.000020, k = 1.272491
        30        47     1        0.109559   311162.501807    ;  uncertainty r = 0.000020, k = 1.272497
        30        48     1        0.109559   311162.501807    ;  uncertainty r = 0.000020, k = 1.272491

[ angles ]
;       ai        aj        ak funct           theta             cth
         1         2         3     1      110.612503      514.276204    ;  uncertainty theta = 0.001142, k = 0.053109
         2         1        31     1      108.817703      445.633093    ;  uncertainty theta = 0.001397, k = 0.017155
         2         1        32     1      108.817703      445.633093    ;  uncertainty theta = 0.001397, k = 0.017155
         2         1        33     1      108.817703      445.633093    ;  uncertainty theta = 0.001397, k = 0.017155
         2         3         4     1      120.713829      429.663653    ;  uncertainty theta = 0.002887, k = 0.102450
         2         3        28     1      116.739212      371.002135    ;  uncertainty theta = 0.004292, k = 0.133275
         3         4         5     1      122.308617      511.833707    ;  uncertainty theta = 0.002874, k = 0.098838
         3         4        34     1      117.399475      269.501128    ;  uncertainty theta = 0.000644, k = 0.068639
         3        28        27     1      122.924828      372.294473    ;  uncertainty theta = 0.004880, k = 0.131595
         3        28        29     1      116.892052      375.388038    ;  uncertainty theta = 0.003912, k = 0.086739
         4         3        28     1      121.473427      368.904773    ;  uncertainty theta = 0.004194, k = 0.139265
         4         5         6     1      119.248634      497.970121    ;  uncertainty theta = 0.001680, k = 0.102369
         4         5        35     1      121.012962      296.103549    ;  uncertainty theta = 0.002653, k = 0.108838
         5         4        34     1      120.002708      276.762860    ;  uncertainty theta = 0.000635, k = 0.063553
         5         6         7     1      120.412048      523.951864    ;  uncertainty theta = 0.002787, k = 0.145671
         5         6        27     1      119.564781      370.288948    ;  uncertainty theta = 0.004616, k = 0.068311
         6         5        35     1      119.526833      271.877771    ;  uncertainty theta = 0.001413, k = 0.081499
         6         7         8     1      116.303787      381.015013    ;  uncertainty theta = 0.002927, k = 0.210540
         6         7        36     1      114.186111      355.760727    ;  uncertainty theta = 0.005751, k = 0.200139
         6        27        28     1      121.379723      503.759991    ;  uncertainty theta = 0.003678, k = 0.097545
         6        27        45     1      119.577965      269.429783    ;  uncertainty theta = 0.003301, k = 0.060634
         7         6        27     1      119.861717      533.495177    ;  uncertainty theta = 0.003869, k = 0.077420
         7         8         9     1      122.084122      743.704340    ;  uncertainty theta = 0.005979, k = 0.187139
         7         8        16     1      118.339066      493.433486    ;  uncertainty theta = 0.006804, k = 0.121645
         8         7        36     1      117.061234      430.294771    ;  uncertainty theta = 0.006370, k = 0.198641
         8         9        10     1      121.098312      436.519090    ;  uncertainty theta = 0.009637, k = 0.246642
         8        16        12     1      111.142784      333.997874    ;  uncertainty theta = 0.012736, k = 0.456018
         8        16        15     1      125.515465      293.448009    ;  uncertainty theta = 0.008643, k = 0.324338
         9         8        16     1      122.397110      559.508873    ;  uncertainty theta = 0.006110, k = 0.249098
         9        10        11     1      124.635864      548.785969    ;  uncertainty theta = 0.002936, k = 0.233946
         9        10        17     1      116.990135      450.857506    ;  uncertainty theta = 0.001638, k = 0.104741
        10        11        12     1      117.537155      533.170218    ;  uncertainty theta = 0.004160, k = 0.197515
        10        11        37     1      124.555130      233.998353    ;  uncertainty theta = 0.008706, k = 0.221443
        10        17        18     1      120.244644      404.409495    ;  uncertainty theta = 0.001348, k = 0.154427
        10        17        26     1      119.511147      406.155084    ;  uncertainty theta = 0.001942, k = 0.148786
        11        10        17     1      121.084106      377.005878    ;  uncertainty theta = 0.004603, k = 0.107557
        11        12        13     1      129.664673      428.594510    ;  uncertainty theta = 0.002270, k = 0.326701
        11        12        16     1      117.420059      429.560738    ;  uncertainty theta = 0.007263, k = 0.178528
        12        11        37     1      117.417358      315.021791    ;  uncertainty theta = 0.003619, k = 0.132846
        12        13        14     1      105.324829      767.668044    ;  uncertainty theta = 0.004981, k = 0.189091
        12        13        38     1      119.539230      282.399762    ;  uncertainty theta = 0.002926, k = 0.163946
        12        16        15     1      114.523727      791.406958    ;  uncertainty theta = 0.003446, k = 0.159720
        13        12        16     1      106.195152      846.636320    ;  uncertainty theta = 0.003800, k = 0.266753
        13        14        15     1      111.223167      865.900238    ;  uncertainty theta = 0.003390, k = 0.157111
        13        14        39     1      125.339600      238.965624    ;  uncertainty theta = 0.004247, k = 0.092338
        14        13        38     1      130.781433      240.351858    ;  uncertainty theta = 0.003259, k = 0.025087
        14        15        16     1      106.065872      820.721453    ;  uncertainty theta = 0.001716, k = 0.145916
        15        14        39     1      119.156937      297.238833    ;  uncertainty theta = 0.004129, k = 0.152925
        17        18        19     1      120.718689      519.912723    ;  uncertainty theta = 0.002263, k = 0.071363
        17        18        40     1      118.926926      270.186512    ;  uncertainty theta = 0.003024, k = 0.068436
        17        26        24     1      120.514915      487.430541    ;  uncertainty theta = 0.002412, k = 0.099521
        17        26        44     1      120.350853      264.545300    ;  uncertainty theta = 0.002202, k = 0.061614
        18        17        26     1      119.709938      409.298095    ;  uncertainty theta = 0.001972, k = 0.228588
        18        19        20     1      123.420143      508.118313    ;  uncertainty theta = 0.002138, k = 0.054358
        18        19        41     1      120.468605      274.993617    ;  uncertainty theta = 0.002016, k = 0.072670
        19        18        40     1      120.393982      284.416810    ;  uncertainty theta = 0.002847, k = 0.064849
        19        20        21     1      118.339844      393.220155    ;  uncertainty theta = 0.004211, k = 0.231155
        19        20        24     1      120.089806      430.386417    ;  uncertainty theta = 0.004153, k = 0.095985
        20        19        41     1      117.151451      256.224193    ;  uncertainty theta = 0.002821, k = 0.117206
        20        21        22     1      123.622574      488.471977    ;  uncertainty theta = 0.005417, k = 0.088506
        20        21        23     1      113.840698      445.878089    ;  uncertainty theta = 0.004953, k = 0.121204
        20        24        25     1      116.381836      486.204281    ;  uncertainty theta = 0.003288, k = 0.138847
        20        24        26     1      126.725418      387.668387    ;  uncertainty theta = 0.004974, k = 0.141076
        21        20        24     1      121.403442      371.163849    ;  uncertainty theta = 0.004927, k = 0.119929
        21        23        42     1      116.391190      323.230791    ;  uncertainty theta = 0.001333, k = 0.079917
        21        23        43     1      116.391190      323.230791    ;  uncertainty theta = 0.001333, k = 0.079917
        22        21        23     1      127.238548      904.143783    ;  uncertainty theta = 0.001849, k = 0.097530
        24        26        44     1      120.156479      280.439150    ;  uncertainty theta = 0.004218, k = 0.038199
        25        24        26     1      117.795227      521.619049    ;  uncertainty theta = 0.003853, k = 0.117502
        27        28        29     1      119.984230      446.391321    ;  uncertainty theta = 0.002825, k = 0.109279
        28        27        45     1      118.198837      267.442262    ;  uncertainty theta = 0.001362, k = 0.058522
        28        29        30     1      110.584335      514.931710    ;  uncertainty theta = 0.000760, k = 0.054259
        29        30        46     1      108.804810      446.467230    ;  uncertainty theta = 0.001256, k = 0.017592
        29        30        47     1      108.804810      446.467230    ;  uncertainty theta = 0.001256, k = 0.017592
        29        30        48     1      108.804810      446.467230    ;  uncertainty theta = 0.001256, k = 0.017592
        31         1        32     1      109.159256      331.008596    ;  uncertainty theta = 0.001734, k = 0.015289
        31         1        33     1      109.159256      331.008596    ;  uncertainty theta = 0.001734, k = 0.015289
        32         1        33     1      109.159256      331.008596    ;  uncertainty theta = 0.001734, k = 0.015289
        42        23        43     1      109.893188      264.743420    ;  uncertainty theta = 0.001735, k = 0.097683
        46        30        47     1      109.159256      331.008596    ;  uncertainty theta = 0.001734, k = 0.015290
        46        30        48     1      109.159256      331.008596    ;  uncertainty theta = 0.001734, k = 0.015290
        47        30        48     1      109.159256      331.008628    ;  uncertainty theta = 0.001734, k = 0.015290

[ dihedrals ] ; propers for gromacs 4.5 or higher, use funct 9
;       ai        aj        ak        al funct           phase               k        pn
         1         2         3         4     9        0.000000        1.161590         1    ;  uncertainty k = 0.424580
         1         2         3         4     9      180.000000        5.978609         2    ;  uncertainty k = 0.113714
         1         2         3         4     9        0.000000       -0.081692         3    ;  uncertainty k = 0.147719
         1         2         3         4     9      180.000000        0.002725         4    ;  uncertainty k = 0.132587
         1         2         3        28     9        0.000000        0.710048         1    ;  uncertainty k = 0.461814
         1         2         3        28     9      180.000000        5.168557         2    ;  uncertainty k = 0.168705
         1         2         3        28     9        0.000000        1.522737         3    ;  uncertainty k = 0.085019
         1         2         3        28     9      180.000000        0.086569         4    ;  uncertainty k = 0.079161
         2         3         4         5     9        0.000000        0.075453         1    ;  uncertainty k = 0.391184
         2         3         4         5     9      180.000000       11.200366         2    ;  uncertainty k = 0.281957
         2         3         4         5     9        0.000000        1.350673         3    ;  uncertainty k = 0.315697
         2         3         4         5     9      180.000000        1.737822         4    ;  uncertainty k = 0.262819
         2         3         4        34     9        0.000000       -0.165175         1    ;  uncertainty k = 0.217547
         2         3         4        34     9      180.000000        9.159951         2    ;  uncertainty k = 0.396817
         2         3         4        34     9        0.000000        0.851185         3    ;  uncertainty k = 0.126617
         2         3         4        34     9      180.000000        1.218800         4    ;  uncertainty k = 0.309716
         2         3        28        27     9        0.000000        0.515556         1    ;  uncertainty k = 0.299239
         2         3        28        27     9      180.000000        7.954903         2    ;  uncertainty k = 0.736958
         2         3        28        27     9        0.000000        1.164308         3    ;  uncertainty k = 0.363484
         2         3        28        27     9      180.000000        1.614907         4    ;  uncertainty k = 0.248125
         2         3        28        29     9        0.000000       -0.341456         1    ;  uncertainty k = 1.859913
         2         3        28        29     9      180.000000       13.064537         2    ;  uncertainty k = 0.569185
         2         3        28        29     9        0.000000        0.817588         3    ;  uncertainty k = 0.428631
         2         3        28        29     9      180.000000        1.204285         4    ;  uncertainty k = 0.526598
         3         2         1        31     9        0.000000        1.112847         1    ;  uncertainty k = 0.103175
         3         2         1        31     9      180.000000       -2.022644         2    ;  uncertainty k = 0.082864
         3         2         1        31     9        0.000000        1.040477         3    ;  uncertainty k = 0.039004
         3         2         1        31     9      180.000000        0.229250         4    ;  uncertainty k = 0.034227
         3         2         1        32     9        0.000000        1.112847         1    ;  uncertainty k = 0.103175
         3         2         1        32     9      180.000000       -2.022644         2    ;  uncertainty k = 0.082864
         3         2         1        32     9        0.000000        1.040477         3    ;  uncertainty k = 0.039004
         3         2         1        32     9      180.000000        0.229250         4    ;  uncertainty k = 0.034227
         3         2         1        33     9        0.000000        1.112847         1    ;  uncertainty k = 0.103175
         3         2         1        33     9      180.000000       -2.022644         2    ;  uncertainty k = 0.082864
         3         2         1        33     9        0.000000        1.040477         3    ;  uncertainty k = 0.039004
         3         2         1        33     9      180.000000        0.229250         4    ;  uncertainty k = 0.034227
         3         4         5         6     9        0.000000        0.022057         1    ;  uncertainty k = 0.194405
         3         4         5         6     9      180.000000       12.959076         2    ;  uncertainty k = 0.175269
         3         4         5         6     9        0.000000       -0.661284         3    ;  uncertainty k = 0.452963
         3         4         5         6     9      180.000000        0.977500         4    ;  uncertainty k = 0.267395
         3         4         5        35     9        0.000000        0.089133         1    ;  uncertainty k = 0.324049
         3         4         5        35     9      180.000000        7.832723         2    ;  uncertainty k = 0.398222
         3         4         5        35     9        0.000000        1.298747         3    ;  uncertainty k = 0.324375
         3         4         5        35     9      180.000000        1.779745         4    ;  uncertainty k = 0.055930
         3        28        27         6     9        0.000000        0.071802         1    ;  uncertainty k = 0.106893
         3        28        27         6     9      180.000000        8.578020         2    ;  uncertainty k = 0.448413
         3        28        27         6     9        0.000000        0.405195         3    ;  uncertainty k = 0.328173
         3        28        27         6     9      180.000000        1.390162         4    ;  uncertainty k = 0.291061
         3        28        27        45     9        0.000000        0.127329         1    ;  uncertainty k = 0.442115
         3        28        27        45     9      180.000000        6.705908         2    ;  uncertainty k = 0.374607
         3        28        27        45     9        0.000000        1.449705         3    ;  uncertainty k = 0.216502
         3        28        27        45     9      180.000000        1.651952         4    ;  uncertainty k = 0.099448
         3        28        29        30     9        0.000000        0.964833         1    ;  uncertainty k = 0.487894
         3        28        29        30     9      180.000000        5.588064         2    ;  uncertainty k = 0.185698
         3        28        29        30     9        0.000000        1.649424         3    ;  uncertainty k = 0.107622
         3        28        29        30     9      180.000000        0.043020         4    ;  uncertainty k = 0.050223
         4         3        28        27     9        0.000000       -0.246361         1    ;  uncertainty k = 0.323015
         4         3        28        27     9      180.000000        5.364289         2    ;  uncertainty k = 1.281071
         4         3        28        27     9        0.000000        0.277799         3    ;  uncertainty k = 0.286511
         4         3        28        27     9      180.000000        1.297118         4    ;  uncertainty k = 0.309451
         4         3        28        29     9        0.000000        0.651705         1    ;  uncertainty k = 0.176594
         4         3        28        29     9      180.000000        7.590394         2    ;  uncertainty k = 0.603024
         4         3        28        29     9        0.000000        1.174713         3    ;  uncertainty k = 0.330890
         4         3        28        29     9      180.000000        1.724084         4    ;  uncertainty k = 0.232454
         4         5         6         7     9        0.000000        0.058897         1    ;  uncertainty k = 0.517002
         4         5         6         7     9      180.000000        9.907040         2    ;  uncertainty k = 0.506714
         4         5         6         7     9        0.000000        0.979239         3    ;  uncertainty k = 0.327123
         4         5         6         7     9      180.000000        1.580944         4    ;  uncertainty k = 0.224706
         4         5         6        27     9        0.000000       -0.065841         1    ;  uncertainty k = 0.278588
         4         5         6        27     9      180.000000        9.979296         2    ;  uncertainty k = 0.397780
         4         5         6        27     9        0.000000       -0.194578         3    ;  uncertainty k = 0.190668
         4         5         6        27     9      180.000000        1.171069         4    ;  uncertainty k = 0.255361
         5         4         3        28     9        0.000000        0.085734         1    ;  uncertainty k = 0.237541
         5         4         3        28     9      180.000000        8.042168         2    ;  uncertainty k = 0.816838
         5         4         3        28     9        0.000000        0.289471         3    ;  uncertainty k = 0.178601
         5         4         3        28     9      180.000000        1.427392         4    ;  uncertainty k = 0.249188
         5         6         7         8     9        0.000000        1.717569         1    ;  uncertainty k = 0.660151
         5         6         7         8     9      180.000000        5.521741         2    ;  uncertainty k = 0.179949
         5         6         7         8     9        0.000000        0.912155         3    ;  uncertainty k = 0.268355
         5         6         7         8     9      180.000000        0.224590         4    ;  uncertainty k = 0.108908
         5         6         7        36     9        0.000000        2.355176         1    ;  uncertainty k = 0.449212
         5         6         7        36     9      180.000000        4.348203         2    ;  uncertainty k = 0.302695
         5         6         7        36     9        0.000000        0.613845         3    ;  uncertainty k = 0.145998
         5         6         7        36     9      180.000000        0.455801         4    ;  uncertainty k = 0.028343
         5         6        27        28     9        0.000000        0.019455         1    ;  uncertainty k = 0.133757
         5         6        27        28     9      180.000000        8.784468         2    ;  uncertainty k = 0.478984
         5         6        27        28     9        0.000000        0.119276         3    ;  uncertainty k = 0.283810
         5         6        27        28     9      180.000000        1.288078         4    ;  uncertainty k = 0.208847
         5         6        27        45     9        0.000000        0.155297         1    ;  uncertainty k = 0.281422
         5         6        27        45     9      180.000000        6.373831         2    ;  uncertainty k = 0.633801
         5         6        27        45     9        0.000000        1.253627         3    ;  uncertainty k = 0.220579
         5         6        27        45     9      180.000000        1.460767         4    ;  uncertainty k = 0.207379
         6         5         4        34     9        0.000000       -0.099823         1    ;  uncertainty k = 0.241524
         6         5         4        34     9      180.000000        7.800452         2    ;  uncertainty k = 0.321389
         6         5         4        34     9        0.000000        1.212039         3    ;  uncertainty k = 0.364603
         6         5         4        34     9      180.000000        1.643100         4    ;  uncertainty k = 0.155684
         6         7         8         9     9        0.000000        4.371472         1    ;  uncertainty k = 1.288133
         6         7         8         9     9      180.000000       10.778641         2    ;  uncertainty k = 0.228702
         6         7         8         9     9        0.000000        0.680673         3    ;  uncertainty k = 0.311323
         6         7         8         9     9      180.000000       -0.507606         4    ;  uncertainty k = 0.056382
         6         7         8        16     9        0.000000        7.039559         1    ;  uncertainty k = 0.599174
         6         7         8        16     9      180.000000        8.681781         2    ;  uncertainty k = 0.097887
         6         7         8        16     9        0.000000        0.920441         3    ;  uncertainty k = 0.381757
         6         7         8        16     9      180.000000       -0.164553         4    ;  uncertainty k = 0.221364
         6        27        28        29     9        0.000000        0.152072         1    ;  uncertainty k = 0.236865
         6        27        28        29     9      180.000000       11.350413         2    ;  uncertainty k = 0.544002
         6        27        28        29     9        0.000000        1.355669         3    ;  uncertainty k = 0.349766
         6        27        28        29     9      180.000000        1.696486         4    ;  uncertainty k = 0.237430
         7         6         5        35     9        0.000000       -0.291936         1    ;  uncertainty k = 0.233190
         7         6         5        35     9      180.000000        7.944711         2    ;  uncertainty k = 0.164350
         7         6         5        35     9        0.000000        0.918004         3    ;  uncertainty k = 0.228756
         7         6         5        35     9      180.000000        1.083856         4    ;  uncertainty k = 0.164907
         7         6        27        28     9        0.000000        0.148911         1    ;  uncertainty k = 0.574988
         7         6        27        28     9      180.000000        9.899588         2    ;  uncertainty k = 0.247388
         7         6        27        28     9        0.000000        1.000997         3    ;  uncertainty k = 0.351814
         7         6        27        28     9      180.000000        1.610986         4    ;  uncertainty k = 0.137508
         7         6        27        45     9        0.000000       -0.272934         1    ;  uncertainty k = 0.329125
         7         6        27        45     9      180.000000        7.865305         2    ;  uncertainty k = 0.242076
         7         6        27        45     9        0.000000        0.914516         3    ;  uncertainty k = 0.283703
         7         6        27        45     9      180.000000        1.068016         4    ;  uncertainty k = 0.243003
         7         8         9        10     9        0.000000        1.098272         1    ;  uncertainty k = 1.049954
         7         8         9        10     9      180.000000       17.958088         2    ;  uncertainty k = 0.442905
         7         8         9        10     9        0.000000        2.943538         3    ;  uncertainty k = 0.266826
         7         8         9        10     9      180.000000        1.658077         4    ;  uncertainty k = 0.294778
         7         8        16        12     9        0.000000       -0.953522         1    ;  uncertainty k = 0.960772
         7         8        16        12     9      180.000000        5.426483         2    ;  uncertainty k = 0.732995
         7         8        16        12     9        0.000000        0.463830         3    ;  uncertainty k = 0.276198
         7         8        16        12     9      180.000000        0.425035         4    ;  uncertainty k = 0.145521
         7         8        16        15     9        0.000000       -0.723785         1    ;  uncertainty k = 0.708754
         7         8        16        15     9      180.000000        4.584250         2    ;  uncertainty k = 1.077487
         7         8        16        15     9        0.000000        0.569780         3    ;  uncertainty k = 0.418447
         7         8        16        15     9      180.000000        0.322209         4    ;  uncertainty k = 0.225420
         8         7         6        27     9        0.000000        1.597949         1    ;  uncertainty k = 0.980885
         8         7         6        27     9      180.000000        5.574010         2    ;  uncertainty k = 0.231880
         8         7         6        27     9        0.000000        0.917733         3    ;  uncertainty k = 0.237919
         8         7         6        27     9      180.000000        0.218590         4    ;  uncertainty k = 0.147859
         8         9        10        11     9        0.000000        0.932836         1    ;  uncertainty k = 1.517300
         8         9        10        11     9      180.000000        5.557191         2    ;  uncertainty k = 1.427283
         8         9        10        11     9        0.000000        1.175752         3    ;  uncertainty k = 0.831596
         8         9        10        11     9      180.000000        0.509043         4    ;  uncertainty k = 0.534101
         8         9        10        17     9        0.000000        0.913817         1    ;  uncertainty k = 1.266496
         8         9        10        17     9      180.000000        9.001427         2    ;  uncertainty k = 0.832658
         8         9        10        17     9        0.000000        1.571676         3    ;  uncertainty k = 0.544759
         8         9        10        17     9      180.000000        0.435274         4    ;  uncertainty k = 0.363327
         8        16        12        11     9        0.000000       -0.074403         1    ;  uncertainty k = 0.950775
         8        16        12        11     9      180.000000        5.131695         2    ;  uncertainty k = 1.540544
         8        16        12        11     9        0.000000        1.364864         3    ;  uncertainty k = 0.461387
         8        16        12        11     9      180.000000        0.396564         4    ;  uncertainty k = 0.312989
         8        16        12        13     9        0.000000        0.340421         1    ;  uncertainty k = 0.792595
         8        16        12        13     9      180.000000        6.024515         2    ;  uncertainty k = 0.492566
         8        16        12        13     9        0.000000        0.209998         3    ;  uncertainty k = 0.527723
         8        16        12        13     9      180.000000        0.585310         4    ;  uncertainty k = 0.374830
         8        16        15        14     9        0.000000       -0.258736         1    ;  uncertainty k = 0.813751
         8        16        15        14     9      180.000000       16.417004         2    ;  uncertainty k = 0.455553
         8        16        15        14     9        0.000000        0.694004         3    ;  uncertainty k = 0.637623
         8        16        15        14     9      180.000000        1.345365         4    ;  uncertainty k = 0.597909
         9         8         7        36     9        0.000000        8.922955         1    ;  uncertainty k = 0.590684
         9         8         7        36     9      180.000000        9.664259         2    ;  uncertainty k = 0.294391
         9         8         7        36     9        0.000000        1.087484         3    ;  uncertainty k = 0.311608
         9         8         7        36     9      180.000000       -0.057210         4    ;  uncertainty k = 0.149117
         9         8        16        12     9        0.000000       -0.501338         1    ;  uncertainty k = 0.640960
         9         8        16        12     9      180.000000        6.017651         2    ;  uncertainty k = 0.720253
         9         8        16        12     9        0.000000       -0.364995         3    ;  uncertainty k = 0.314830
         9         8        16        12     9      180.000000        0.566313         4    ;  uncertainty k = 0.158573
         9         8        16        15     9        0.000000       -1.422782         1    ;  uncertainty k = 2.244569
         9         8        16        15     9      180.000000        4.485013         2    ;  uncertainty k = 0.589709
         9         8        16        15     9        0.000000        0.451575         3    ;  uncertainty k = 0.408180
         9         8        16        15     9      180.000000        0.387928         4    ;  uncertainty k = 0.297232
         9        10        11        12     9        0.000000        0.018357         1    ;  uncertainty k = 0.573024
         9        10        11        12     9      180.000000       21.362001         2    ;  uncertainty k = 0.613281
         9        10        11        12     9        0.000000        0.532906         3    ;  uncertainty k = 0.286701
         9        10        11        12     9      180.000000        0.533433         4    ;  uncertainty k = 0.515635
         9        10        11        37     9        0.000000        0.419935         1    ;  uncertainty k = 0.974421
         9        10        11        37     9      180.000000       12.840955         2    ;  uncertainty k = 0.363280
         9        10        11        37     9        0.000000        1.627203         3    ;  uncertainty k = 0.617989
         9        10        11        37     9      180.000000        1.092093         4    ;  uncertainty k = 0.435235
         9        10        17        18     9        0.000000       -0.318366         1    ;  uncertainty k = 1.612940
         9        10        17        18     9      180.000000        4.998158         2    ;  uncertainty k = 0.331032
         9        10        17        18     9        0.000000        0.436661         3    ;  uncertainty k = 0.123360
         9        10        17        18     9      180.000000        0.125594         4    ;  uncertainty k = 0.142420
         9        10        17        26     9        0.000000       -1.014687         1    ;  uncertainty k = 1.751520
         9        10        17        26     9      180.000000        4.942178         2    ;  uncertainty k = 0.269629
         9        10        17        26     9        0.000000        0.398215         3    ;  uncertainty k = 0.153253
         9        10        17        26     9      180.000000        0.103910         4    ;  uncertainty k = 0.142009
        10         9         8        16     9        0.000000       -0.082786         1    ;  uncertainty k = 2.182836
        10         9         8        16     9      180.000000       13.581568         2    ;  uncertainty k = 0.621929
        10         9         8        16     9        0.000000        2.533487         3    ;  uncertainty k = 0.837482
        10         9         8        16     9      180.000000        1.364092         4    ;  uncertainty k = 0.400290
        10        11        12        13     9        0.000000        0.386920         1    ;  uncertainty k = 1.471082
        10        11        12        13     9      180.000000        4.699710         2    ;  uncertainty k = 0.604839
        10        11        12        13     9        0.000000        0.728667         3    ;  uncertainty k = 0.333862
        10        11        12        13     9      180.000000        0.333834         4    ;  uncertainty k = 0.097844
        10        11        12        16     9        0.000000       -0.115270         1    ;  uncertainty k = 1.699650
        10        11        12        16     9      180.000000        6.307648         2    ;  uncertainty k = 0.481536
        10        11        12        16     9        0.000000       -0.832657         3    ;  uncertainty k = 0.863034
        10        11        12        16     9      180.000000        0.594037         4    ;  uncertainty k = 0.148701
        10        17        18        19     9        0.000000        0.076572         1    ;  uncertainty k = 0.112922
        10        17        18        19     9      180.000000        8.523577         2    ;  uncertainty k = 0.517684
        10        17        18        19     9        0.000000        1.340474         3    ;  uncertainty k = 0.289087
        10        17        18        19     9      180.000000        1.734101         4    ;  uncertainty k = 0.147696
        10        17        18        40     9        0.000000       -0.035232         1    ;  uncertainty k = 0.143704
        10        17        18        40     9      180.000000        6.925939         2    ;  uncertainty k = 0.310949
        10        17        18        40     9        0.000000        0.654390         3    ;  uncertainty k = 0.221070
        10        17        18        40     9      180.000000        1.127729         4    ;  uncertainty k = 0.199022
        10        17        26        24     9        0.000000        0.213121         1    ;  uncertainty k = 0.243617
        10        17        26        24     9      180.000000        8.357083         2    ;  uncertainty k = 0.361428
        10        17        26        24     9        0.000000        1.391936         3    ;  uncertainty k = 0.260424
        10        17        26        24     9      180.000000        1.764436         4    ;  uncertainty k = 0.102692
        10        17        26        44     9        0.000000       -0.137144         1    ;  uncertainty k = 0.186479
        10        17        26        44     9      180.000000        6.976254         2    ;  uncertainty k = 0.298558
        10        17        26        44     9        0.000000        0.628077         3    ;  uncertainty k = 0.250169
        10        17        26        44     9      180.000000        1.127862         4    ;  uncertainty k = 0.219536
        11        10        17        18     9        0.000000       -0.241598         1    ;  uncertainty k = 0.460158
        11        10        17        18     9      180.000000        3.856608         2    ;  uncertainty k = 0.362523
        11        10        17        18     9        0.000000        0.746556         3    ;  uncertainty k = 0.150071
        11        10        17        18     9      180.000000       -0.344432         4    ;  uncertainty k = 0.165822
        11        10        17        26     9        0.000000       -0.024372         1    ;  uncertainty k = 0.213750
        11        10        17        26     9      180.000000        3.759700         2    ;  uncertainty k = 0.346822
        11        10        17        26     9        0.000000        0.682135         3    ;  uncertainty k = 0.122951
        11        10        17        26     9      180.000000       -0.319947         4    ;  uncertainty k = 0.128185
        11        12        13        14     9        0.000000        0.230793         1    ;  uncertainty k = 1.269739
        11        12        13        14     9      180.000000        9.569834         2    ;  uncertainty k = 0.766860
        11        12        13        14     9        0.000000        0.431848         3    ;  uncertainty k = 0.749472
        11        12        13        14     9      180.000000        0.562970         4    ;  uncertainty k = 0.317996
        11        12        13        38     9        0.000000        0.582735         1    ;  uncertainty k = 1.282918
        11        12        13        38     9      180.000000        2.797133         2    ;  uncertainty k = 1.416072
        11        12        13        38     9        0.000000        1.235337         3    ;  uncertainty k = 0.396602
        11        12        13        38     9      180.000000        0.134008         4    ;  uncertainty k = 0.120872
        11        12        16        15     9        0.000000        0.339778         1    ;  uncertainty k = 0.557633
        11        12        16        15     9      180.000000        8.702718         2    ;  uncertainty k = 0.552036
        11        12        16        15     9        0.000000        0.461034         3    ;  uncertainty k = 0.395644
        11        12        16        15     9      180.000000        0.883729         4    ;  uncertainty k = 0.214014
        12        11        10        17     9        0.000000        0.643059         1    ;  uncertainty k = 0.320448
        12        11        10        17     9      180.000000       17.718195         2    ;  uncertainty k = 0.480478
        12        11        10        17     9        0.000000        1.932284         3    ;  uncertainty k = 0.419556
        12        11        10        17     9      180.000000        0.745058         4    ;  uncertainty k = 0.257575
        12        13        14        15     9        0.000000       -0.424259         1    ;  uncertainty k = 0.720471
        12        13        14        15     9      180.000000       21.948844         2    ;  uncertainty k = 0.272817
        12        13        14        15     9        0.000000       -9.453916         3    ;  uncertainty k = 0.408148
        12        13        14        15     9      180.000000        1.578950         4    ;  uncertainty k = 0.654473
        12        13        14        39     9        0.000000        0.427383         1    ;  uncertainty k = 0.828520
        12        13        14        39     9      180.000000       13.870596         2    ;  uncertainty k = 0.182398
        12        13        14        39     9        0.000000        1.815389         3    ;  uncertainty k = 0.320274
        12        13        14        39     9      180.000000        0.903574         4    ;  uncertainty k = 0.223947
        12        16        15        14     9        0.000000       -0.698106         1    ;  uncertainty k = 0.543243
        12        16        15        14     9      180.000000       23.970051         2    ;  uncertainty k = 0.495895
        12        16        15        14     9        0.000000      -11.206153         3    ;  uncertainty k = 1.161985
        12        16        15        14     9      180.000000        1.981051         4    ;  uncertainty k = 0.603215
        13        12        11        37     9        0.000000        1.227128         1    ;  uncertainty k = 1.232867
        13        12        11        37     9      180.000000        2.938475         2    ;  uncertainty k = 1.102516
        13        12        11        37     9        0.000000        1.033215         3    ;  uncertainty k = 0.512498
        13        12        11        37     9      180.000000        0.184975         4    ;  uncertainty k = 0.169272
        13        12        16        15     9        0.000000       -0.600194         1    ;  uncertainty k = 0.427509
        13        12        16        15     9      180.000000       12.032075         2    ;  uncertainty k = 0.540572
        13        12        16        15     9        0.000000       -4.884606         3    ;  uncertainty k = 1.243656
        13        12        16        15     9      180.000000        1.176890         4    ;  uncertainty k = 0.463084
        13        14        15        16     9        0.000000       -0.719371         1    ;  uncertainty k = 0.806440
        13        14        15        16     9      180.000000       16.306391         2    ;  uncertainty k = 0.372137
        13        14        15        16     9        0.000000       -5.546726         3    ;  uncertainty k = 0.784851
        13        14        15        16     9      180.000000        2.138755         4    ;  uncertainty k = 0.319469
        14        13        12        16     9        0.000000        0.425340         1    ;  uncertainty k = 0.911889
        14        13        12        16     9      180.000000       13.121731         2    ;  uncertainty k = 1.266973
        14        13        12        16     9        0.000000      -13.119121         3    ;  uncertainty k = 1.817832
        14        13        12        16     9      180.000000        1.693366         4    ;  uncertainty k = 0.377703
        15        14        13        38     9        0.000000       -0.210816         1    ;  uncertainty k = 0.409318
        15        14        13        38     9      180.000000       14.525460         2    ;  uncertainty k = 0.474526
        15        14        13        38     9        0.000000        1.399987         3    ;  uncertainty k = 0.472591
        15        14        13        38     9      180.000000        0.597840         4    ;  uncertainty k = 0.116226
        16         8         7        36     9        0.000000        5.299478         1    ;  uncertainty k = 1.071663
        16         8         7        36     9      180.000000        6.121003         2    ;  uncertainty k = 0.320629
        16         8         7        36     9        0.000000        1.371092         3    ;  uncertainty k = 0.426496
        16         8         7        36     9      180.000000       -0.017304         4    ;  uncertainty k = 0.216319
        16        12        11        37     9        0.000000        1.224015         1    ;  uncertainty k = 1.441618
        16        12        11        37     9      180.000000        4.285563         2    ;  uncertainty k = 0.541130
        16        12        11        37     9        0.000000        1.126047         3    ;  uncertainty k = 0.359169
        16        12        11        37     9      180.000000        0.200397         4    ;  uncertainty k = 0.127762
        16        12        13        38     9        0.000000        0.337817         1    ;  uncertainty k = 0.998519
        16        12        13        38     9      180.000000        7.392009         2    ;  uncertainty k = 0.385665
        16        12        13        38     9        0.000000        1.061986         3    ;  uncertainty k = 0.365240
        16        12        13        38     9      180.000000        0.171584         4    ;  uncertainty k = 0.281011
        16        15        14        39     9        0.000000       -0.095582         1    ;  uncertainty k = 0.393923
        16        15        14        39     9      180.000000       14.177386         2    ;  uncertainty k = 0.352374
        16        15        14        39     9        0.000000        1.588169         3    ;  uncertainty k = 0.688228
        16        15        14        39     9      180.000000        0.904862         4    ;  uncertainty k = 0.448977
        17        10        11        37     9        0.000000       -0.145917         1    ;  uncertainty k = 0.385980
        17        10        11        37     9      180.000000        9.388329         2    ;  uncertainty k = 0.472539
        17        10        11        37     9        0.000000        1.518799         3    ;  uncertainty k = 0.253904
        17        10        11        37     9      180.000000        1.008155         4    ;  uncertainty k = 0.103087
        17        18        19        20     9        0.000000       -0.213487         1    ;  uncertainty k = 0.232865
        17        18        19        20     9      180.000000       12.137135         2    ;  uncertainty k = 0.390045
        17        18        19        20     9        0.000000       -0.526802         3    ;  uncertainty k = 0.278480
        17        18        19        20     9      180.000000        0.908448         4    ;  uncertainty k = 0.259429
        17        18        19        41     9        0.000000        0.033935         1    ;  uncertainty k = 0.178391
        17        18        19        41     9      180.000000        7.893528         2    ;  uncertainty k = 0.425035
        17        18        19        41     9        0.000000        1.310599         3    ;  uncertainty k = 0.281239
        17        18        19        41     9      180.000000        1.819227         4    ;  uncertainty k = 0.209073
        17        26        24        20     9        0.000000        0.026867         1    ;  uncertainty k = 0.300461
        17        26        24        20     9      180.000000        7.477274         2    ;  uncertainty k = 0.526249
        17        26        24        20     9        0.000000        0.328676         3    ;  uncertainty k = 0.251343
        17        26        24        20     9      180.000000        1.329664         4    ;  uncertainty k = 0.259634
        17        26        24        25     9        0.000000       -0.134856         1    ;  uncertainty k = 0.173195
        17        26        24        25     9      180.000000       12.947632         2    ;  uncertainty k = 0.212374
        17        26        24        25     9        0.000000        1.341542         3    ;  uncertainty k = 0.199937
        17        26        24        25     9      180.000000        1.526273         4    ;  uncertainty k = 0.083334
        18        17        26        24     9        0.000000        0.208760         1    ;  uncertainty k = 0.124065
        18        17        26        24     9      180.000000       10.925101         2    ;  uncertainty k = 0.368931
        18        17        26        24     9        0.000000       -0.373212         3    ;  uncertainty k = 0.282423
        18        17        26        24     9      180.000000        1.100466         4    ;  uncertainty k = 0.212481
        18        17        26        44     9        0.000000        0.225305         1    ;  uncertainty k = 0.212486
        18        17        26        44     9      180.000000        6.876173         2    ;  uncertainty k = 0.561908
        18        17        26        44     9        0.000000        1.334482         3    ;  uncertainty k = 0.167671
        18        17        26        44     9      180.000000        1.638183         4    ;  uncertainty k = 0.253132
        18        19        20        21     9        0.000000        0.244023         1    ;  uncertainty k = 0.117059
        18        19        20        21     9      180.000000        8.499747         2    ;  uncertainty k = 0.774137
        18        19        20        21     9        0.000000        1.626064         3    ;  uncertainty k = 0.246502
        18        19        20        21     9      180.000000        1.819665         4    ;  uncertainty k = 0.297761
        18        19        20        24     9        0.000000        0.001313         1    ;  uncertainty k = 0.125537
        18        19        20        24     9      180.000000       10.550325         2    ;  uncertainty k = 0.458783
        18        19        20        24     9        0.000000       -0.125120         3    ;  uncertainty k = 0.204001
        18        19        20        24     9      180.000000        1.151838         4    ;  uncertainty k = 0.330916
        19        18        17        26     9        0.000000       -0.041940         1    ;  uncertainty k = 0.240922
        19        18        17        26     9      180.000000       10.746340         2    ;  uncertainty k = 0.222463
        19        18        17        26     9        0.000000       -0.512829         3    ;  uncertainty k = 0.170570
        19        18        17        26     9      180.000000        0.939974         4    ;  uncertainty k = 0.191398
        19        20        21        22     9        0.000000       -0.851840         1    ;  uncertainty k = 0.326783
        19        20        21        22     9      180.000000        3.655926         2    ;  uncertainty k = 0.128465
        19        20        21        22     9        0.000000        0.399413         3    ;  uncertainty k = 0.208549
        19        20        21        22     9      180.000000       -0.037075         4    ;  uncertainty k = 0.045544
        19        20        21        23     9        0.000000        0.217353         1    ;  uncertainty k = 0.699689
        19        20        21        23     9      180.000000        3.296269         2    ;  uncertainty k = 0.134069
        19        20        21        23     9        0.000000        0.677965         3    ;  uncertainty k = 0.332481
        19        20        21        23     9      180.000000       -0.080651         4    ;  uncertainty k = 0.145308
        19        20        24        25     9        0.000000        0.304255         1    ;  uncertainty k = 0.316499
        19        20        24        25     9      180.000000       10.071914         2    ;  uncertainty k = 0.288612
        19        20        24        25     9        0.000000        1.511809         3    ;  uncertainty k = 0.219603
        19        20        24        25     9      180.000000        1.605040         4    ;  uncertainty k = 0.179260
        19        20        24        26     9        0.000000       -0.195050         1    ;  uncertainty k = 0.294863
        19        20        24        26     9      180.000000        6.068529         2    ;  uncertainty k = 0.673683
        19        20        24        26     9        0.000000        0.189919         3    ;  uncertainty k = 0.293660
        19        20        24        26     9      180.000000        1.271012         4    ;  uncertainty k = 0.323005
        20        19        18        40     9        0.000000       -0.046141         1    ;  uncertainty k = 0.113941
        20        19        18        40     9      180.000000        8.005414         2    ;  uncertainty k = 0.243002
        20        19        18        40     9        0.000000        1.346427         3    ;  uncertainty k = 0.106944
        20        19        18        40     9      180.000000        1.849245         4    ;  uncertainty k = 0.156521
        20        21        23        42     9        0.000000        1.383426         1    ;  uncertainty k = 1.000388
        20        21        23        42     9      180.000000        8.531814         2    ;  uncertainty k = 0.337998
        20        21        23        42     9        0.000000        2.996660         3    ;  uncertainty k = 0.297567
        20        21        23        42     9      180.000000       -0.414343         4    ;  uncertainty k = 0.270167
        20        21        23        43     9        0.000000        1.383426         1    ;  uncertainty k = 1.000388
        20        21        23        43     9      180.000000        8.531814         2    ;  uncertainty k = 0.337998
        20        21        23        43     9        0.000000        2.996660         3    ;  uncertainty k = 0.297567
        20        21        23        43     9      180.000000       -0.414343         4    ;  uncertainty k = 0.270167
        20        24        26        44     9        0.000000       -0.091375         1    ;  uncertainty k = 0.523345
        20        24        26        44     9      180.000000        5.283247         2    ;  uncertainty k = 0.508860
        20        24        26        44     9        0.000000        1.319590         3    ;  uncertainty k = 0.287085
        20        24        26        44     9      180.000000        1.686187         4    ;  uncertainty k = 0.113287
        21        20        19        41     9        0.000000       -0.239973         1    ;  uncertainty k = 0.409475
        21        20        19        41     9      180.000000        8.085153         2    ;  uncertainty k = 0.431520
        21        20        19        41     9        0.000000        1.019105         3    ;  uncertainty k = 0.281123
        21        20        19        41     9      180.000000        1.178222         4    ;  uncertainty k = 0.164303
        21        20        24        25     9        0.000000       -0.122572         1    ;  uncertainty k = 0.463610
        21        20        24        25     9      180.000000        9.892214         2    ;  uncertainty k = 0.405844
        21        20        24        25     9        0.000000        1.592381         3    ;  uncertainty k = 0.238265
        21        20        24        25     9      180.000000        1.351901         4    ;  uncertainty k = 0.202531
        21        20        24        26     9        0.000000        0.067410         1    ;  uncertainty k = 0.633514
        21        20        24        26     9      180.000000        5.867693         2    ;  uncertainty k = 0.276987
        21        20        24        26     9        0.000000        1.457448         3    ;  uncertainty k = 0.168294
        21        20        24        26     9      180.000000        1.640796         4    ;  uncertainty k = 0.224749
        22        21        20        24     9        0.000000       -2.278097         1    ;  uncertainty k = 0.433280
        22        21        20        24     9      180.000000        4.048139         2    ;  uncertainty k = 0.413522
        22        21        20        24     9        0.000000        0.603833         3    ;  uncertainty k = 0.238066
        22        21        20        24     9      180.000000        0.053646         4    ;  uncertainty k = 0.109172
        22        21        23        42     9        0.000000        3.944975         1    ;  uncertainty k = 1.164226
        22        21        23        42     9      180.000000       12.082630         2    ;  uncertainty k = 0.225249
        22        21        23        42     9        0.000000        2.078972         3    ;  uncertainty k = 0.117293
        22        21        23        42     9      180.000000        0.271250         4    ;  uncertainty k = 0.282511
        22        21        23        43     9        0.000000        3.944975         1    ;  uncertainty k = 1.164226
        22        21        23        43     9      180.000000       12.082630         2    ;  uncertainty k = 0.225249
        22        21        23        43     9        0.000000        2.078972         3    ;  uncertainty k = 0.117293
        22        21        23        43     9      180.000000        0.271250         4    ;  uncertainty k = 0.282511
        23        21        20        24     9        0.000000        0.717556         1    ;  uncertainty k = 0.903936
        23        21        20        24     9      180.000000        3.014617         2    ;  uncertainty k = 0.363261
        23        21        20        24     9        0.000000        0.212325         3    ;  uncertainty k = 0.249625
        23        21        20        24     9      180.000000        0.036828         4    ;  uncertainty k = 0.060797
        24        20        19        41     9        0.000000        0.181656         1    ;  uncertainty k = 0.434833
        24        20        19        41     9      180.000000        7.157595         2    ;  uncertainty k = 0.366516
        24        20        19        41     9        0.000000        1.238622         3    ;  uncertainty k = 0.250394
        24        20        19        41     9      180.000000        1.654051         4    ;  uncertainty k = 0.185437
        25        24        26        44     9        0.000000       -0.250993         1    ;  uncertainty k = 0.370590
        25        24        26        44     9      180.000000        9.818718         2    ;  uncertainty k = 0.483235
        25        24        26        44     9        0.000000        0.858563         3    ;  uncertainty k = 0.093315
        25        24        26        44     9      180.000000        1.222651         4    ;  uncertainty k = 0.332307
        26        17        18        40     9        0.000000        0.058661         1    ;  uncertainty k = 0.136928
        26        17        18        40     9      180.000000        6.820962         2    ;  uncertainty k = 0.538723
        26        17        18        40     9        0.000000        1.355598         3    ;  uncertainty k = 0.122220
        26        17        18        40     9      180.000000        1.638295         4    ;  uncertainty k = 0.247133
        27         6         5        35     9        0.000000        0.060116         1    ;  uncertainty k = 0.285327
        27         6         5        35     9      180.000000        6.705137         2    ;  uncertainty k = 0.811645
        27         6         5        35     9        0.000000        1.254749         3    ;  uncertainty k = 0.282861
        27         6         5        35     9      180.000000        1.489480         4    ;  uncertainty k = 0.123486
        27         6         7        36     9        0.000000        3.766903         1    ;  uncertainty k = 0.282406
        27         6         7        36     9      180.000000        4.224135         2    ;  uncertainty k = 0.219472
        27         6         7        36     9        0.000000        0.731781         3    ;  uncertainty k = 0.239894
        27         6         7        36     9      180.000000        0.435986         4    ;  uncertainty k = 0.107235
        27        28        29        30     9        0.000000        1.341409         1    ;  uncertainty k = 0.791973
        27        28        29        30     9      180.000000        6.361826         2    ;  uncertainty k = 0.220151
        27        28        29        30     9        0.000000       -0.225719         3    ;  uncertainty k = 0.095998
        27        28        29        30     9      180.000000        0.006631         4    ;  uncertainty k = 0.110606
        28         3         4        34     9        0.000000       -0.032441         1    ;  uncertainty k = 0.368382
        28         3         4        34     9      180.000000        5.959632         2    ;  uncertainty k = 0.432853
        28         3         4        34     9        0.000000        1.321132         3    ;  uncertainty k = 0.261791
        28         3         4        34     9      180.000000        1.598351         4    ;  uncertainty k = 0.068542
        28        29        30        46     9        0.000000        1.110243         1    ;  uncertainty k = 0.221947
        28        29        30        46     9      180.000000       -2.083404         2    ;  uncertainty k = 0.117430
        28        29        30        46     9        0.000000        1.033193         3    ;  uncertainty k = 0.049823
        28        29        30        46     9      180.000000        0.223294         4    ;  uncertainty k = 0.039928
        28        29        30        47     9        0.000000        1.110243         1    ;  uncertainty k = 0.221947
        28        29        30        47     9      180.000000       -2.083404         2    ;  uncertainty k = 0.117430
        28        29        30        47     9        0.000000        1.033193         3    ;  uncertainty k = 0.049823
        28        29        30        47     9      180.000000        0.223294         4    ;  uncertainty k = 0.039928
        28        29        30        48     9        0.000000        1.110243         1    ;  uncertainty k = 0.221947
        28        29        30        48     9      180.000000       -2.083404         2    ;  uncertainty k = 0.117430
        28        29        30        48     9        0.000000        1.033193         3    ;  uncertainty k = 0.049823
        28        29        30        48     9      180.000000        0.223294         4    ;  uncertainty k = 0.039928
        29        28        27        45     9        0.000000       -0.013362         1    ;  uncertainty k = 0.227812
        29        28        27        45     9      180.000000        9.629865         2    ;  uncertainty k = 0.341224
        29        28        27        45     9        0.000000        0.885574         3    ;  uncertainty k = 0.134168
        29        28        27        45     9      180.000000        1.294493         4    ;  uncertainty k = 0.314813
        34         4         5        35     9        0.000000       -0.108356         1    ;  uncertainty k = 0.187628
        34         4         5        35     9      180.000000        7.451232         2    ;  uncertainty k = 0.478631
        34         4         5        35     9        0.000000       -0.297348         3    ;  uncertainty k = 0.298879
        34         4         5        35     9      180.000000        0.257401         4    ;  uncertainty k = 0.173209
        38        13        14        39     9        0.000000       -0.311075         1    ;  uncertainty k = 0.492453
        38        13        14        39     9      180.000000        5.384359         2    ;  uncertainty k = 0.598234
        38        13        14        39     9        0.000000        1.243313         3    ;  uncertainty k = 0.430720
        38        13        14        39     9      180.000000        0.271791         4    ;  uncertainty k = 0.092255
        40        18        19        41     9        0.000000       -0.164496         1    ;  uncertainty k = 0.322294
        40        18        19        41     9      180.000000        8.174233         2    ;  uncertainty k = 0.475680
        40        18        19        41     9        0.000000       -0.282390         3    ;  uncertainty k = 0.207049
        40        18        19        41     9      180.000000        0.366946         4    ;  uncertainty k = 0.218655

[ dihedrals ] ; impropers
;       ai        aj        ak        al funct           phase               k        pn
         3         2         4        28     4      180.000000       15.206029         2    ;  uncertainty k = 0.074967
         3         4        28         2     4      180.000000       15.206029         2    ;  uncertainty k = 0.074967
         3        28         2         4     4      180.000000       15.206029         2    ;  uncertainty k = 0.074967
         4         3         5        34     4      180.000000        2.008335         2    ;  uncertainty k = 0.230964
         4         5        34         3     4      180.000000        2.008335         2    ;  uncertainty k = 0.230964
         4        34         3         5     4      180.000000        2.008335         2    ;  uncertainty k = 0.230964
         5         4         6        35     4      180.000000        2.607477         2    ;  uncertainty k = 0.379217
         5         6        35         4     4      180.000000        2.607477         2    ;  uncertainty k = 0.379217
         5        35         4         6     4      180.000000        2.607477         2    ;  uncertainty k = 0.379217
         6         5         7        27     4      180.000000       17.507517         2    ;  uncertainty k = 0.057196
         6         7        27         5     4      180.000000       17.507517         2    ;  uncertainty k = 0.057196
         6        27         5         7     4      180.000000       17.507517         2    ;  uncertainty k = 0.057196
         7         6         8        36     4      180.000000        1.622505         2    ;  uncertainty k = 0.666333
         7         8        36         6     4      180.000000        1.622505         2    ;  uncertainty k = 0.666333
         7        36         6         8     4      180.000000        1.622505         2    ;  uncertainty k = 0.666333
         8         7         9        16     4      180.000000       28.356151         2    ;  uncertainty k = 0.063061
         8         9        16         7     4      180.000000       28.356151         2    ;  uncertainty k = 0.063061
         8        16         7         9     4      180.000000       28.356151         2    ;  uncertainty k = 0.063061
        10         9        11        17     4      180.000000       18.992823         2    ;  uncertainty k = 0.093442
        10        11        17         9     4      180.000000       18.992823         2    ;  uncertainty k = 0.093442
        10        17         9        11     4      180.000000       18.992823         2    ;  uncertainty k = 0.093442
        11        10        12        37     4      180.000000        1.460233         2    ;  uncertainty k = 1.144713
        11        12        37        10     4      180.000000        1.460233         2    ;  uncertainty k = 1.144713
        11        37        10        12     4      180.000000        1.460233         2    ;  uncertainty k = 1.144713
        12        11        13        16     4      180.000000        1.589327         2    ;  uncertainty k = 1.390534
        12        13        16        11     4      180.000000        1.589327         2    ;  uncertainty k = 1.390534
        12        16        11        13     4      180.000000        1.589327         2    ;  uncertainty k = 1.390534
        13        12        14        38     4      180.000000        0.105195         2    ;  uncertainty k = 0.235223
        13        14        38        12     4      180.000000        0.105195         2    ;  uncertainty k = 0.235223
        13        38        12        14     4      180.000000        0.105195         2    ;  uncertainty k = 0.235223
        14        13        15        39     4      180.000000        1.779599         2    ;  uncertainty k = 0.230150
        14        15        39        13     4      180.000000        1.779599         2    ;  uncertainty k = 0.230150
        14        39        13        15     4      180.000000        1.779599         2    ;  uncertainty k = 0.230150
        16         8        12        15     4      180.000000        2.165381         2    ;  uncertainty k = 0.627947
        16        12        15         8     4      180.000000        2.165381         2    ;  uncertainty k = 0.627947
        16        15         8        12     4      180.000000        2.165381         2    ;  uncertainty k = 0.627947
        17        10        18        26     4      180.000000       12.367917         2    ;  uncertainty k = 0.090825
        17        18        26        10     4      180.000000       12.367917         2    ;  uncertainty k = 0.090825
        17        26        10        18     4      180.000000       12.367917         2    ;  uncertainty k = 0.090825
        18        17        19        40     4      180.000000        3.098542         2    ;  uncertainty k = 0.155294
        18        19        40        17     4      180.000000        3.098542         2    ;  uncertainty k = 0.155294
        18        40        17        19     4      180.000000        3.098542         2    ;  uncertainty k = 0.155294
        19        18        20        41     4      180.000000        4.573025         2    ;  uncertainty k = 0.137050
        19        20        41        18     4      180.000000        4.573025         2    ;  uncertainty k = 0.137050
        19        41        18        20     4      180.000000        4.573025         2    ;  uncertainty k = 0.137050
        20        19        21        24     4      180.000000        7.822591         2    ;  uncertainty k = 0.216627
        20        21        24        19     4      180.000000        7.822591         2    ;  uncertainty k = 0.216627
        20        24        19        21     4      180.000000        7.822591         2    ;  uncertainty k = 0.216627
        21        20        22        23     4      180.000000       54.216810         2    ;  uncertainty k = 0.013856
        21        22        23        20     4      180.000000       54.216810         2    ;  uncertainty k = 0.013856
        21        23        20        22     4      180.000000       54.216810         2    ;  uncertainty k = 0.013856
        24        20        25        26     4      180.000000       17.037221         2    ;  uncertainty k = 0.105564
        24        25        26        20     4      180.000000       17.037221         2    ;  uncertainty k = 0.105564
        24        26        20        25     4      180.000000       17.037221         2    ;  uncertainty k = 0.105564
        26        17        24        44     4      180.000000        1.774632         2    ;  uncertainty k = 0.272393
        26        24        44        17     4      180.000000        1.774632         2    ;  uncertainty k = 0.272393
        26        44        17        24     4      180.000000        1.774632         2    ;  uncertainty k = 0.272393
        27         6        28        45     4      180.000000        1.689049         2    ;  uncertainty k = 0.529654
        27        28        45         6     4      180.000000        1.689049         2    ;  uncertainty k = 0.529654
        27        45         6        28     4      180.000000        1.689049         2    ;  uncertainty k = 0.529654
        28         3        27        29     4      180.000000       16.672261         2    ;  uncertainty k = 0.075717
        28        27        29         3     4      180.000000       16.672261         2    ;  uncertainty k = 0.075717
        28        29         3        27     4      180.000000       16.672261         2    ;  uncertainty k = 0.075717

[ pairs ]
;       ai        aj funct
         1         4     1
         1        28     1
         2         5     1
         2        27     1
         2        29     1
         2        34     1
         3         6     1
         3        30     1
         3        31     1
         3        32     1
         3        33     1
         3        35     1
         3        45     1
         4         7     1
         4        27     1
         4        29     1
         5         8     1
         5        28     1
         5        36     1
         5        45     1
         6         9     1
         6        16     1
         6        29     1
         6        34     1
         7        10     1
         7        12     1
         7        15     1
         7        28     1
         7        35     1
         7        45     1
         8        11     1
         8        13     1
         8        14     1
         8        17     1
         8        27     1
         9        12     1
         9        15     1
         9        18     1
         9        26     1
         9        36     1
         9        37     1
        10        13     1
        10        16     1
        10        19     1
        10        24     1
        10        40     1
        10        44     1
        11        14     1
        11        15     1
        11        18     1
        11        26     1
        11        38     1
        12        17     1
        12        39     1
        13        37     1
        15        38     1
        16        36     1
        16        37     1
        16        38     1
        16        39     1
        17        20     1
        17        25     1
        17        37     1
        17        41     1
        18        21     1
        18        24     1
        18        44     1
        19        22     1
        19        23     1
        19        25     1
        19        26     1
        20        40     1
        20        42     1
        20        43     1
        20        44     1
        21        25     1
        21        26     1
        21        41     1
        22        24     1
        22        42     1
        22        43     1
        23        24     1
        24        41     1
        25        44     1
        26        40     1
        27        30     1
        27        35     1
        27        36     1
        28        34     1
        28        46     1
        28        47     1
        28        48     1
        29        45     1
        34        35     1
        38        39     1
        40        41     1
