; ITP file created by ByteFF-joint-25, 2026-02-17 09:44:23.357227

[ atomtypes ]
;name           bonded.type        at.num        mass        charge   ptype           sigma         epsilon
 c0bf                                   6      0.0000       0.00000       A     3.39774e-01     4.50890e-01    ;  uncertainty sigma = 0.000006, epsilon = 0.000514
 o1bf                                   8      0.0000       0.00000       A     3.15641e-01     3.03850e-01    ;  uncertainty sigma = 0.000015, epsilon = 0.000455
 c2bf                                   6      0.0000       0.00000       A     3.31526e-01     4.13474e-01    ;  uncertainty sigma = 0.000006, epsilon = 0.000721
 c3bf                                   6      0.0000       0.00000       A     3.31529e-01     4.13640e-01    ;  uncertainty sigma = 0.000005, epsilon = 0.000792
 c4bf                                   6      0.0000       0.00000       A     3.31525e-01     4.13354e-01    ;  uncertainty sigma = 0.000006, epsilon = 0.000662
 c5bf                                   6      0.0000       0.00000       A     3.31528e-01     4.13588e-01    ;  uncertainty sigma = 0.000010, epsilon = 0.000818
 n6bf                                   7      0.0000       0.00000       A     3.27852e-01     6.46169e-01    ;  uncertainty sigma = 0.000043, epsilon = 0.003219
 c7bf                                   6      0.0000       0.00000       A     3.31526e-01     4.13887e-01    ;  uncertainty sigma = 0.000017, epsilon = 0.001682
 n8bf                                   7      0.0000       0.00000       A     3.38464e-01     3.93259e-01    ;  uncertainty sigma = 0.000031, epsilon = 0.000673
 c9bf                                   6      0.0000       0.00000       A     3.31552e-01     4.13495e-01    ;  uncertainty sigma = 0.000024, epsilon = 0.000765
 c10bf                                  6      0.0000       0.00000       A     3.31560e-01     4.13634e-01    ;  uncertainty sigma = 0.000013, epsilon = 0.001540
 n11bf                                  7      0.0000       0.00000       A     3.20547e-01     8.53303e-01    ;  uncertainty sigma = 0.000017, epsilon = 0.000844
 c12bf                                  6      0.0000       0.00000       A     3.31503e-01     4.12978e-01    ;  uncertainty sigma = 0.000012, epsilon = 0.001136
 c13bf                                  6      0.0000       0.00000       A     3.31531e-01     4.13187e-01    ;  uncertainty sigma = 0.000008, epsilon = 0.000699
 n14bf                                  7      0.0000       0.00000       A     3.38427e-01     3.92895e-01    ;  uncertainty sigma = 0.000039, epsilon = 0.000415
 c15bf                                  6      0.0000       0.00000       A     3.31554e-01     4.12537e-01    ;  uncertainty sigma = 0.000015, epsilon = 0.000432
 c16bf                                  6      0.0000       0.00000       A     3.31487e-01     4.12757e-01    ;  uncertainty sigma = 0.000022, epsilon = 0.000898
 c17bf                                  6      0.0000       0.00000       A     3.31518e-01     4.13294e-01    ;  uncertainty sigma = 0.000007, epsilon = 0.000527
 c18bf                                  6      0.0000       0.00000       A     3.31520e-01     4.13230e-01    ;  uncertainty sigma = 0.000005, epsilon = 0.000770
 c19bf                                  6      0.0000       0.00000       A     3.31513e-01     4.13610e-01    ;  uncertainty sigma = 0.000009, epsilon = 0.000422
 o20bf                                  8      0.0000       0.00000       A     3.15650e-01     3.04977e-01    ;  uncertainty sigma = 0.000025, epsilon = 0.001937
 c21bf                                  6      0.0000       0.00000       A     3.39756e-01     4.50901e-01    ;  uncertainty sigma = 0.000008, epsilon = 0.001346
 c22bf                                  6      0.0000       0.00000       A     3.31511e-01     4.13527e-01    ;  uncertainty sigma = 0.000012, epsilon = 0.000797
 o23bf                                  8      0.0000       0.00000       A     3.04830e-01     6.12418e-01    ;  uncertainty sigma = 0.000026, epsilon = 0.001243
 n24bf                                  7      0.0000       0.00000       A     3.27022e-01     4.91101e-01    ;  uncertainty sigma = 0.000023, epsilon = 0.002156
 c25bf                                  6      0.0000       0.00000       A     3.31547e-01     4.13399e-01    ;  uncertainty sigma = 0.000017, epsilon = 0.001143
 c26bf                                  6      0.0000       0.00000       A     3.31536e-01     4.12741e-01    ;  uncertainty sigma = 0.000012, epsilon = 0.000434
 c27bf                                  6      0.0000       0.00000       A     3.31516e-01     4.13129e-01    ;  uncertainty sigma = 0.000010, epsilon = 0.000957
 c28bf                                  6      0.0000       0.00000       A     3.31531e-01     4.13728e-01    ;  uncertainty sigma = 0.000008, epsilon = 0.001049
 o29bf                                  8      0.0000       0.00000       A     3.15636e-01     3.03949e-01    ;  uncertainty sigma = 0.000015, epsilon = 0.000670
 c30bf                                  6      0.0000       0.00000       A     3.39774e-01     4.50890e-01    ;  uncertainty sigma = 0.000006, epsilon = 0.000514
 h31bf                                  1      0.0000       0.00000       A     2.42205e-01     8.67538e-02    ;  uncertainty sigma = 0.000015, epsilon = 0.000624
 h32bf                                  1      0.0000       0.00000       A     2.42205e-01     8.67538e-02    ;  uncertainty sigma = 0.000015, epsilon = 0.000624
 h33bf                                  1      0.0000       0.00000       A     2.42205e-01     8.67538e-02    ;  uncertainty sigma = 0.000015, epsilon = 0.000624
 h34bf                                  1      0.0000       0.00000       A     2.62570e-01     6.70700e-02    ;  uncertainty sigma = 0.000012, epsilon = 0.000330
 h35bf                                  1      0.0000       0.00000       A     2.62564e-01     6.70248e-02    ;  uncertainty sigma = 0.000015, epsilon = 0.000426
 h36bf                                  1      0.0000       0.00000       A     1.10708e-01     4.06502e-02    ;  uncertainty sigma = 0.000118, epsilon = 0.000465
 h37bf                                  1      0.0000       0.00000       A     2.53612e-01     6.73649e-02    ;  uncertainty sigma = 0.000081, epsilon = 0.000889
 h38bf                                  1      0.0000       0.00000       A     2.53649e-01     6.68496e-02    ;  uncertainty sigma = 0.000023, epsilon = 0.000657
 h39bf                                  1      0.0000       0.00000       A     2.53645e-01     6.69492e-02    ;  uncertainty sigma = 0.000020, epsilon = 0.000834
 h40bf                                  1      0.0000       0.00000       A     2.62562e-01     6.71926e-02    ;  uncertainty sigma = 0.000010, epsilon = 0.000548
 h41bf                                  1      0.0000       0.00000       A     2.62564e-01     6.68227e-02    ;  uncertainty sigma = 0.000011, epsilon = 0.000583
 h42bf                                  1      0.0000       0.00000       A     2.42181e-01     8.72845e-02    ;  uncertainty sigma = 0.000040, epsilon = 0.000685
 h43bf                                  1      0.0000       0.00000       A     2.42181e-01     8.72845e-02    ;  uncertainty sigma = 0.000040, epsilon = 0.000685
 h44bf                                  1      0.0000       0.00000       A     1.10680e-01     4.08704e-02    ;  uncertainty sigma = 0.000035, epsilon = 0.000690
 h45bf                                  1      0.0000       0.00000       A     2.62559e-01     6.71594e-02    ;  uncertainty sigma = 0.000020, epsilon = 0.000538
 h46bf                                  1      0.0000       0.00000       A     2.62560e-01     6.71373e-02    ;  uncertainty sigma = 0.000017, epsilon = 0.000539
 h47bf                                  1      0.0000       0.00000       A     2.42205e-01     8.67537e-02    ;  uncertainty sigma = 0.000015, epsilon = 0.000624
 h48bf                                  1      0.0000       0.00000       A     2.42205e-01     8.67538e-02    ;  uncertainty sigma = 0.000015, epsilon = 0.000624
 h49bf                                  1      0.0000       0.00000       A     2.42205e-01     8.67538e-02    ;  uncertainty sigma = 0.000015, epsilon = 0.000624

[ moleculetype ]
;name             nrexcl
 MOL                   3

[ atoms ]
;       nr            type      resi   res      atom      cgnr      charge          mass ; qtot
         1            c0bf         1   UNL        c0         1     0.11960       12.0110 ; qtot    0.120
         2            o1bf         1   UNL        o1         2    -0.32010       15.9990 ; qtot   -0.201
         3            c2bf         1   UNL        c2         3     0.07584       12.0110 ; qtot   -0.125
         4            c3bf         1   UNL        c3         4    -0.15014       12.0110 ; qtot   -0.275
         5            c4bf         1   UNL        c4         5    -0.15106       12.0110 ; qtot   -0.426
         6            c5bf         1   UNL        c5         6     0.16694       12.0110 ; qtot   -0.259
         7            n6bf         1   UNL        n6         7    -0.73903       14.0070 ; qtot   -0.998
         8            c7bf         1   UNL        c7         8     0.75081       12.0110 ; qtot   -0.247
         9            n8bf         1   UNL        n8         9    -0.76982       14.0070 ; qtot   -1.017
        10            c9bf         1   UNL        c9        10     0.47607       12.0110 ; qtot   -0.541
        11           c10bf         1   UNL       c10        11    -0.21819       12.0110 ; qtot   -0.759
        12           n11bf         1   UNL       n11        12     0.05331       14.0070 ; qtot   -0.706
        13           c12bf         1   UNL       c12        13    -0.21243       12.0110 ; qtot   -0.918
        14           c13bf         1   UNL       c13        14     0.01175       12.0110 ; qtot   -0.906
        15           n14bf         1   UNL       n14        15    -0.27543       14.0070 ; qtot   -1.182
        16           c15bf         1   UNL       c15        16    -0.18460       12.0110 ; qtot   -1.366
        17           c16bf         1   UNL       c16        17    -0.11873       12.0110 ; qtot   -1.485
        18           c17bf         1   UNL       c17        18    -0.10409       12.0110 ; qtot   -1.589
        19           c18bf         1   UNL       c18        19    -0.12317       12.0110 ; qtot   -1.712
        20           c19bf         1   UNL       c19        20     0.08850       12.0110 ; qtot   -1.624
        21           o20bf         1   UNL       o20        21    -0.30742       15.9990 ; qtot   -1.931
        22           c21bf         1   UNL       c21        22     0.05411       12.0110 ; qtot   -1.877
        23           c22bf         1   UNL       c22        23     0.68322       12.0110 ; qtot   -1.194
        24           o23bf         1   UNL       o23        24    -0.59770       15.9990 ; qtot   -1.792
        25           n24bf         1   UNL       n24        25    -0.47482       14.0070 ; qtot   -2.267
        26           c25bf         1   UNL       c25        26     0.01483       12.0110 ; qtot   -2.252
        27           c26bf         1   UNL       c26        27    -0.11958       12.0110 ; qtot   -2.371
        28           c27bf         1   UNL       c27        28    -0.20840       12.0110 ; qtot   -2.580
        29           c28bf         1   UNL       c28        29     0.11790       12.0110 ; qtot   -2.462
        30           o29bf         1   UNL       o29        30    -0.31927       15.9990 ; qtot   -2.781
        31           c30bf         1   UNL       c30        31     0.11995       12.0110 ; qtot   -2.661
        32           h31bf         1   UNL       h31        32     0.04337        1.0080 ; qtot   -2.618
        33           h32bf         1   UNL       h32        33     0.04337        1.0080 ; qtot   -2.574
        34           h33bf         1   UNL       h33        34     0.04337        1.0080 ; qtot   -2.531
        35           h34bf         1   UNL       h34        35     0.14091        1.0080 ; qtot   -2.390
        36           h35bf         1   UNL       h35        36     0.15302        1.0080 ; qtot   -2.237
        37           h36bf         1   UNL       h36        37     0.46165        1.0080 ; qtot   -1.775
        38           h37bf         1   UNL       h37        38     0.17436        1.0080 ; qtot   -1.601
        39           h38bf         1   UNL       h38        39     0.18619        1.0080 ; qtot   -1.415
        40           h39bf         1   UNL       h39        40     0.17120        1.0080 ; qtot   -1.244
        41           h40bf         1   UNL       h40        41     0.14773        1.0080 ; qtot   -1.096
        42           h41bf         1   UNL       h41        42     0.14998        1.0080 ; qtot   -0.946
        43           h42bf         1   UNL       h42        43     0.08731        1.0080 ; qtot   -0.859
        44           h43bf         1   UNL       h43        44     0.08731        1.0080 ; qtot   -0.771
        45           h44bf         1   UNL       h44        45     0.33530        1.0080 ; qtot   -0.436
        46           h45bf         1   UNL       h45        46     0.15034        1.0080 ; qtot   -0.286
        47           h46bf         1   UNL       h46        47     0.15565        1.0080 ; qtot   -0.130
        48           h47bf         1   UNL       h47        48     0.04337        1.0080 ; qtot   -0.087
        49           h48bf         1   UNL       h48        49     0.04337        1.0080 ; qtot   -0.043
        50           h49bf         1   UNL       h49        50     0.04335        1.0080 ; qtot   -0.000

[ bonds ]
;       ai        aj funct               r               k
         1         2     1        0.142504   247060.424561    ;  uncertainty r = 0.000030, k = 4.357279
         1        32     1        0.109559   311162.501807    ;  uncertainty r = 0.000020, k = 1.272505
         1        33     1        0.109559   311162.501807    ;  uncertainty r = 0.000020, k = 1.272505
         1        34     1        0.109559   311162.501807    ;  uncertainty r = 0.000020, k = 1.272505
         2         3     1        0.136892   321113.062012    ;  uncertainty r = 0.000059, k = 4.532937
         3         4     1        0.139488   349133.425439    ;  uncertainty r = 0.000031, k = 2.724656
         3        29     1        0.140227   349402.969629    ;  uncertainty r = 0.000054, k = 7.584627
         4         5     1        0.139369   369864.655127    ;  uncertainty r = 0.000071, k = 2.574425
         4        35     1        0.108705   336290.634375    ;  uncertainty r = 0.000024, k = 1.905467
         5         6     1        0.139713   352891.517529    ;  uncertainty r = 0.000095, k = 4.859039
         5        36     1        0.108700   336152.248779    ;  uncertainty r = 0.000031, k = 1.798265
         6         7     1        0.141333   346668.455957    ;  uncertainty r = 0.000119, k = 12.315044
         6        28     1        0.140236   355873.307031    ;  uncertainty r = 0.000083, k = 5.100092
         7         8     1        0.137988   330814.533252    ;  uncertainty r = 0.000224, k = 31.605630
         7        37     1        0.102091   426736.870264    ;  uncertainty r = 0.000039, k = 5.302920
         8         9     1        0.132299   443077.019531    ;  uncertainty r = 0.000191, k = 13.204157
         8        16     1        0.143016   286566.945654    ;  uncertainty r = 0.000095, k = 10.976562
         9        10     1        0.137526   259825.301904    ;  uncertainty r = 0.000218, k = 24.352294
        10        11     1        0.136966   380248.529004    ;  uncertainty r = 0.000113, k = 12.691481
        10        17     1        0.147172   265759.334473    ;  uncertainty r = 0.000170, k = 12.434915
        11        12     1        0.137882   325077.442871    ;  uncertainty r = 0.000063, k = 6.431296
        11        38     1        0.108486   340803.731104    ;  uncertainty r = 0.000071, k = 2.327724
        12        13     1        0.137812   342777.341064    ;  uncertainty r = 0.000099, k = 5.087994
        12        16     1        0.139016   307421.213135    ;  uncertainty r = 0.000151, k = 23.940608
        13        14     1        0.138713   413349.321582    ;  uncertainty r = 0.000044, k = 11.515297
        13        39     1        0.108153   341281.121826    ;  uncertainty r = 0.000029, k = 4.725656
        14        15     1        0.136694   264650.947314    ;  uncertainty r = 0.000104, k = 21.676776
        14        40     1        0.108374   336399.626758    ;  uncertainty r = 0.000052, k = 2.763000
        15        16     1        0.133277   447135.785547    ;  uncertainty r = 0.000097, k = 11.841721
        17        18     1        0.140188   345781.935205    ;  uncertainty r = 0.000036, k = 3.958198
        17        27     1        0.139921   350649.180566    ;  uncertainty r = 0.000075, k = 3.502315
        18        19     1        0.139224   369667.304346    ;  uncertainty r = 0.000060, k = 2.552472
        18        41     1        0.108668   333345.260791    ;  uncertainty r = 0.000017, k = 1.555949
        19        20     1        0.139321   358494.997754    ;  uncertainty r = 0.000046, k = 6.448722
        19        42     1        0.108805   336772.851611    ;  uncertainty r = 0.000015, k = 1.658769
        20        21     1        0.137238   321248.485303    ;  uncertainty r = 0.000035, k = 5.835236
        20        26     1        0.140070   348049.426221    ;  uncertainty r = 0.000030, k = 5.325149
        21        22     1        0.143225   257723.751025    ;  uncertainty r = 0.000081, k = 11.270704
        22        23     1        0.152103   223330.550879    ;  uncertainty r = 0.000099, k = 6.065706
        22        43     1        0.109578   315701.007959    ;  uncertainty r = 0.000040, k = 4.973042
        22        44     1        0.109578   315701.007959    ;  uncertainty r = 0.000040, k = 4.973042
        23        24     1        0.122783   776676.757617    ;  uncertainty r = 0.000037, k = 9.765910
        23        25     1        0.137297   361311.817529    ;  uncertainty r = 0.000058, k = 9.720507
        25        26     1        0.140639   333123.700830    ;  uncertainty r = 0.000093, k = 4.875311
        25        45     1        0.101738   425682.494092    ;  uncertainty r = 0.000066, k = 1.673552
        26        27     1        0.139369   353419.037598    ;  uncertainty r = 0.000098, k = 5.629209
        27        46     1        0.108847   337117.117383    ;  uncertainty r = 0.000053, k = 2.752762
        28        29     1        0.139270   345625.520410    ;  uncertainty r = 0.000054, k = 5.224456
        28        47     1        0.108746   339222.268994    ;  uncertainty r = 0.000057, k = 2.203703
        29        30     1        0.136641   322875.224707    ;  uncertainty r = 0.000095, k = 4.764590
        30        31     1        0.142472   247648.314355    ;  uncertainty r = 0.000036, k = 5.188422
        31        48     1        0.109559   311162.501807    ;  uncertainty r = 0.000020, k = 1.272500
        31        49     1        0.109559   311162.501807    ;  uncertainty r = 0.000020, k = 1.272491
        31        50     1        0.109559   311162.501807    ;  uncertainty r = 0.000020, k = 1.272497

[ angles ]
;       ai        aj        ak funct           theta             cth
         1         2         3     1      110.612503      514.276204    ;  uncertainty theta = 0.001142, k = 0.053109
         2         1        32     1      108.817703      445.633093    ;  uncertainty theta = 0.001397, k = 0.017155
         2         1        33     1      108.817703      445.633093    ;  uncertainty theta = 0.001397, k = 0.017155
         2         1        34     1      108.817703      445.633093    ;  uncertainty theta = 0.001397, k = 0.017155
         2         3         4     1      120.713829      429.663653    ;  uncertainty theta = 0.002887, k = 0.102450
         2         3        29     1      116.739212      371.002135    ;  uncertainty theta = 0.004292, k = 0.133275
         3         4         5     1      122.308617      511.833707    ;  uncertainty theta = 0.002874, k = 0.098838
         3         4        35     1      117.399475      269.501128    ;  uncertainty theta = 0.000644, k = 0.068639
         3        29        28     1      122.924828      372.294473    ;  uncertainty theta = 0.004880, k = 0.131595
         3        29        30     1      116.892052      375.388038    ;  uncertainty theta = 0.003912, k = 0.086739
         4         3        29     1      121.473427      368.904773    ;  uncertainty theta = 0.004194, k = 0.139265
         4         5         6     1      119.248634      497.970121    ;  uncertainty theta = 0.001680, k = 0.102369
         4         5        36     1      121.012962      296.103549    ;  uncertainty theta = 0.002653, k = 0.108838
         5         4        35     1      120.002708      276.762860    ;  uncertainty theta = 0.000635, k = 0.063553
         5         6         7     1      120.412048      523.951864    ;  uncertainty theta = 0.002787, k = 0.145671
         5         6        28     1      119.564781      370.288948    ;  uncertainty theta = 0.004616, k = 0.068311
         6         5        36     1      119.526833      271.877771    ;  uncertainty theta = 0.001413, k = 0.081499
         6         7         8     1      116.303787      381.015013    ;  uncertainty theta = 0.002927, k = 0.210540
         6         7        37     1      114.186111      355.760727    ;  uncertainty theta = 0.005751, k = 0.200139
         6        28        29     1      121.379723      503.759991    ;  uncertainty theta = 0.003678, k = 0.097545
         6        28        47     1      119.577965      269.429783    ;  uncertainty theta = 0.003301, k = 0.060634
         7         6        28     1      119.861717      533.495177    ;  uncertainty theta = 0.003869, k = 0.077420
         7         8         9     1      122.093460      743.912723    ;  uncertainty theta = 0.005955, k = 0.186993
         7         8        16     1      118.339066      493.433486    ;  uncertainty theta = 0.006804, k = 0.121645
         8         7        37     1      117.061234      430.294771    ;  uncertainty theta = 0.006370, k = 0.198641
         8         9        10     1      121.126122      436.480593    ;  uncertainty theta = 0.009430, k = 0.247652
         8        16        12     1      111.142784      333.997874    ;  uncertainty theta = 0.012736, k = 0.456017
         8        16        15     1      125.515465      293.447945    ;  uncertainty theta = 0.008643, k = 0.324339
         9         8        16     1      122.411903      559.581718    ;  uncertainty theta = 0.006082, k = 0.248184
         9        10        11     1      124.571388      546.966258    ;  uncertainty theta = 0.003313, k = 0.240052
         9        10        17     1      117.067299      447.426245    ;  uncertainty theta = 0.000959, k = 0.097044
        10        11        12     1      117.544655      532.867092    ;  uncertainty theta = 0.004503, k = 0.195414
        10        11        38     1      124.602928      233.037359    ;  uncertainty theta = 0.008659, k = 0.230362
        10        17        18     1      119.903809      412.293662    ;  uncertainty theta = 0.002464, k = 0.161747
        10        17        27     1      119.283615      393.786951    ;  uncertainty theta = 0.002464, k = 0.222712
        11        10        17     1      121.286972      379.546373    ;  uncertainty theta = 0.005418, k = 0.095670
        11        12        13     1      129.651398      428.742370    ;  uncertainty theta = 0.002325, k = 0.325404
        11        12        16     1      117.440002      429.448183    ;  uncertainty theta = 0.007494, k = 0.179672
        12        11        38     1      117.408119      315.442387    ;  uncertainty theta = 0.003544, k = 0.139192
        12        13        14     1      105.324829      767.668044    ;  uncertainty theta = 0.004981, k = 0.189091
        12        13        39     1      119.539230      282.399762    ;  uncertainty theta = 0.002926, k = 0.163945
        12        16        15     1      114.523727      791.406958    ;  uncertainty theta = 0.003446, k = 0.159720
        13        12        16     1      106.195152      846.636320    ;  uncertainty theta = 0.003800, k = 0.266753
        13        14        15     1      111.223167      865.900238    ;  uncertainty theta = 0.003390, k = 0.157111
        13        14        40     1      125.339600      238.965624    ;  uncertainty theta = 0.004247, k = 0.092338
        14        13        39     1      130.781433      240.351858    ;  uncertainty theta = 0.003259, k = 0.025087
        14        15        16     1      106.065872      820.721453    ;  uncertainty theta = 0.001716, k = 0.145916
        15        14        40     1      119.156937      297.238833    ;  uncertainty theta = 0.004129, k = 0.152925
        17        18        19     1      121.128128      528.759703    ;  uncertainty theta = 0.001900, k = 0.130699
        17        18        41     1      118.769821      270.370666    ;  uncertainty theta = 0.002871, k = 0.068175
        17        27        26     1      121.686325      504.776400    ;  uncertainty theta = 0.003563, k = 0.166813
        17        27        46     1      119.344643      268.005004    ;  uncertainty theta = 0.003442, k = 0.115517
        18        17        27     1      121.101318      426.151630    ;  uncertainty theta = 0.004998, k = 0.146703
        18        19        20     1      120.390320      509.020124    ;  uncertainty theta = 0.002055, k = 0.119557
        18        19        42     1      121.129395      277.814191    ;  uncertainty theta = 0.000803, k = 0.055689
        19        18        41     1      119.859207      292.736992    ;  uncertainty theta = 0.001625, k = 0.066187
        19        20        21     1      120.315346      543.129690    ;  uncertainty theta = 0.002356, k = 0.065681
        19        20        26     1      119.872826      374.429790    ;  uncertainty theta = 0.003801, k = 0.160159
        20        19        42     1      119.825333      281.161978    ;  uncertainty theta = 0.000412, k = 0.112538
        20        21        22     1      115.507896      458.408287    ;  uncertainty theta = 0.005290, k = 0.163121
        20        26        25     1      116.856789      485.270645    ;  uncertainty theta = 0.005996, k = 0.585653
        20        26        27     1      120.618027      373.808185    ;  uncertainty theta = 0.006228, k = 0.154834
        21        20        26     1      121.716599      481.257807    ;  uncertainty theta = 0.002280, k = 0.119649
        21        22        23     1      113.168106      616.815551    ;  uncertainty theta = 0.005014, k = 0.291396
        21        22        43     1      107.829758      463.240195    ;  uncertainty theta = 0.002562, k = 0.100515
        21        22        44     1      107.829758      463.240195    ;  uncertainty theta = 0.002562, k = 0.100515
        22        23        24     1      123.722000      433.224803    ;  uncertainty theta = 0.003358, k = 0.188363
        22        23        25     1      111.362343      400.490378    ;  uncertainty theta = 0.007560, k = 0.183104
        23        22        43     1      108.756004      389.509421    ;  uncertainty theta = 0.004110, k = 0.104221
        23        22        44     1      108.756004      389.509421    ;  uncertainty theta = 0.004110, k = 0.104221
        23        25        26     1      116.883377      467.592740    ;  uncertainty theta = 0.007549, k = 0.264813
        23        25        45     1      114.634422      354.671569    ;  uncertainty theta = 0.001814, k = 0.120336
        24        23        25     1      125.683777      821.482906    ;  uncertainty theta = 0.002369, k = 0.125490
        25        26        27     1      122.090126      539.791479    ;  uncertainty theta = 0.004988, k = 0.118662
        26        25        45     1      114.606613      320.994410    ;  uncertainty theta = 0.002853, k = 0.066518
        26        27        46     1      118.716125      291.623319    ;  uncertainty theta = 0.003802, k = 0.063100
        28        29        30     1      119.984230      446.391321    ;  uncertainty theta = 0.002825, k = 0.109279
        29        28        47     1      118.198837      267.442262    ;  uncertainty theta = 0.001362, k = 0.058522
        29        30        31     1      110.584335      514.931710    ;  uncertainty theta = 0.000760, k = 0.054259
        30        31        48     1      108.804810      446.467230    ;  uncertainty theta = 0.001256, k = 0.017592
        30        31        49     1      108.804810      446.467230    ;  uncertainty theta = 0.001256, k = 0.017592
        30        31        50     1      108.804810      446.467230    ;  uncertainty theta = 0.001256, k = 0.017592
        32         1        33     1      109.159256      331.008596    ;  uncertainty theta = 0.001734, k = 0.015289
        32         1        34     1      109.159256      331.008596    ;  uncertainty theta = 0.001734, k = 0.015289
        33         1        34     1      109.159256      331.008596    ;  uncertainty theta = 0.001734, k = 0.015289
        43        22        44     1      107.540939      314.872974    ;  uncertainty theta = 0.001952, k = 0.136428
        48        31        49     1      109.159256      331.008596    ;  uncertainty theta = 0.001734, k = 0.015290
        48        31        50     1      109.159256      331.008596    ;  uncertainty theta = 0.001734, k = 0.015290
        49        31        50     1      109.159256      331.008596    ;  uncertainty theta = 0.001734, k = 0.015290

[ dihedrals ] ; propers for gromacs 4.5 or higher, use funct 9
;       ai        aj        ak        al funct           phase               k        pn
         1         2         3         4     9        0.000000        1.161590         1    ;  uncertainty k = 0.424580
         1         2         3         4     9      180.000000        5.978609         2    ;  uncertainty k = 0.113714
         1         2         3         4     9        0.000000       -0.081692         3    ;  uncertainty k = 0.147719
         1         2         3         4     9      180.000000        0.002725         4    ;  uncertainty k = 0.132587
         1         2         3        29     9        0.000000        0.710048         1    ;  uncertainty k = 0.461814
         1         2         3        29     9      180.000000        5.168557         2    ;  uncertainty k = 0.168705
         1         2         3        29     9        0.000000        1.522737         3    ;  uncertainty k = 0.085019
         1         2         3        29     9      180.000000        0.086569         4    ;  uncertainty k = 0.079161
         2         3         4         5     9        0.000000        0.075453         1    ;  uncertainty k = 0.391184
         2         3         4         5     9      180.000000       11.200366         2    ;  uncertainty k = 0.281957
         2         3         4         5     9        0.000000        1.350673         3    ;  uncertainty k = 0.315697
         2         3         4         5     9      180.000000        1.737822         4    ;  uncertainty k = 0.262819
         2         3         4        35     9        0.000000       -0.165175         1    ;  uncertainty k = 0.217547
         2         3         4        35     9      180.000000        9.159951         2    ;  uncertainty k = 0.396817
         2         3         4        35     9        0.000000        0.851185         3    ;  uncertainty k = 0.126617
         2         3         4        35     9      180.000000        1.218800         4    ;  uncertainty k = 0.309716
         2         3        29        28     9        0.000000        0.515556         1    ;  uncertainty k = 0.299239
         2         3        29        28     9      180.000000        7.954903         2    ;  uncertainty k = 0.736958
         2         3        29        28     9        0.000000        1.164308         3    ;  uncertainty k = 0.363484
         2         3        29        28     9      180.000000        1.614907         4    ;  uncertainty k = 0.248125
         2         3        29        30     9        0.000000       -0.341456         1    ;  uncertainty k = 1.859913
         2         3        29        30     9      180.000000       13.064537         2    ;  uncertainty k = 0.569185
         2         3        29        30     9        0.000000        0.817588         3    ;  uncertainty k = 0.428631
         2         3        29        30     9      180.000000        1.204285         4    ;  uncertainty k = 0.526598
         3         2         1        32     9        0.000000        1.112847         1    ;  uncertainty k = 0.103175
         3         2         1        32     9      180.000000       -2.022644         2    ;  uncertainty k = 0.082864
         3         2         1        32     9        0.000000        1.040477         3    ;  uncertainty k = 0.039004
         3         2         1        32     9      180.000000        0.229250         4    ;  uncertainty k = 0.034227
         3         2         1        33     9        0.000000        1.112847         1    ;  uncertainty k = 0.103175
         3         2         1        33     9      180.000000       -2.022644         2    ;  uncertainty k = 0.082864
         3         2         1        33     9        0.000000        1.040477         3    ;  uncertainty k = 0.039004
         3         2         1        33     9      180.000000        0.229250         4    ;  uncertainty k = 0.034227
         3         2         1        34     9        0.000000        1.112847         1    ;  uncertainty k = 0.103175
         3         2         1        34     9      180.000000       -2.022644         2    ;  uncertainty k = 0.082864
         3         2         1        34     9        0.000000        1.040477         3    ;  uncertainty k = 0.039004
         3         2         1        34     9      180.000000        0.229250         4    ;  uncertainty k = 0.034227
         3         4         5         6     9        0.000000        0.022057         1    ;  uncertainty k = 0.194405
         3         4         5         6     9      180.000000       12.959076         2    ;  uncertainty k = 0.175269
         3         4         5         6     9        0.000000       -0.661284         3    ;  uncertainty k = 0.452963
         3         4         5         6     9      180.000000        0.977500         4    ;  uncertainty k = 0.267395
         3         4         5        36     9        0.000000        0.089133         1    ;  uncertainty k = 0.324049
         3         4         5        36     9      180.000000        7.832723         2    ;  uncertainty k = 0.398222
         3         4         5        36     9        0.000000        1.298747         3    ;  uncertainty k = 0.324375
         3         4         5        36     9      180.000000        1.779745         4    ;  uncertainty k = 0.055930
         3        29        28         6     9        0.000000        0.071802         1    ;  uncertainty k = 0.106893
         3        29        28         6     9      180.000000        8.578020         2    ;  uncertainty k = 0.448413
         3        29        28         6     9        0.000000        0.405195         3    ;  uncertainty k = 0.328173
         3        29        28         6     9      180.000000        1.390162         4    ;  uncertainty k = 0.291061
         3        29        28        47     9        0.000000        0.127329         1    ;  uncertainty k = 0.442115
         3        29        28        47     9      180.000000        6.705908         2    ;  uncertainty k = 0.374607
         3        29        28        47     9        0.000000        1.449705         3    ;  uncertainty k = 0.216502
         3        29        28        47     9      180.000000        1.651952         4    ;  uncertainty k = 0.099448
         3        29        30        31     9        0.000000        0.964833         1    ;  uncertainty k = 0.487894
         3        29        30        31     9      180.000000        5.588064         2    ;  uncertainty k = 0.185698
         3        29        30        31     9        0.000000        1.649424         3    ;  uncertainty k = 0.107622
         3        29        30        31     9      180.000000        0.043020         4    ;  uncertainty k = 0.050223
         4         3        29        28     9        0.000000       -0.246361         1    ;  uncertainty k = 0.323015
         4         3        29        28     9      180.000000        5.364289         2    ;  uncertainty k = 1.281071
         4         3        29        28     9        0.000000        0.277799         3    ;  uncertainty k = 0.286511
         4         3        29        28     9      180.000000        1.297118         4    ;  uncertainty k = 0.309451
         4         3        29        30     9        0.000000        0.651705         1    ;  uncertainty k = 0.176594
         4         3        29        30     9      180.000000        7.590394         2    ;  uncertainty k = 0.603024
         4         3        29        30     9        0.000000        1.174713         3    ;  uncertainty k = 0.330890
         4         3        29        30     9      180.000000        1.724084         4    ;  uncertainty k = 0.232454
         4         5         6         7     9        0.000000        0.058897         1    ;  uncertainty k = 0.517002
         4         5         6         7     9      180.000000        9.907040         2    ;  uncertainty k = 0.506714
         4         5         6         7     9        0.000000        0.979239         3    ;  uncertainty k = 0.327123
         4         5         6         7     9      180.000000        1.580944         4    ;  uncertainty k = 0.224706
         4         5         6        28     9        0.000000       -0.065841         1    ;  uncertainty k = 0.278588
         4         5         6        28     9      180.000000        9.979296         2    ;  uncertainty k = 0.397780
         4         5         6        28     9        0.000000       -0.194578         3    ;  uncertainty k = 0.190668
         4         5         6        28     9      180.000000        1.171069         4    ;  uncertainty k = 0.255361
         5         4         3        29     9        0.000000        0.085734         1    ;  uncertainty k = 0.237541
         5         4         3        29     9      180.000000        8.042168         2    ;  uncertainty k = 0.816838
         5         4         3        29     9        0.000000        0.289471         3    ;  uncertainty k = 0.178601
         5         4         3        29     9      180.000000        1.427392         4    ;  uncertainty k = 0.249188
         5         6         7         8     9        0.000000        1.717569         1    ;  uncertainty k = 0.660151
         5         6         7         8     9      180.000000        5.521741         2    ;  uncertainty k = 0.179949
         5         6         7         8     9        0.000000        0.912155         3    ;  uncertainty k = 0.268355
         5         6         7         8     9      180.000000        0.224590         4    ;  uncertainty k = 0.108908
         5         6         7        37     9        0.000000        2.355176         1    ;  uncertainty k = 0.449212
         5         6         7        37     9      180.000000        4.348203         2    ;  uncertainty k = 0.302695
         5         6         7        37     9        0.000000        0.613845         3    ;  uncertainty k = 0.145998
         5         6         7        37     9      180.000000        0.455801         4    ;  uncertainty k = 0.028343
         5         6        28        29     9        0.000000        0.019455         1    ;  uncertainty k = 0.133757
         5         6        28        29     9      180.000000        8.784468         2    ;  uncertainty k = 0.478984
         5         6        28        29     9        0.000000        0.119276         3    ;  uncertainty k = 0.283810
         5         6        28        29     9      180.000000        1.288078         4    ;  uncertainty k = 0.208847
         5         6        28        47     9        0.000000        0.155297         1    ;  uncertainty k = 0.281422
         5         6        28        47     9      180.000000        6.373831         2    ;  uncertainty k = 0.633801
         5         6        28        47     9        0.000000        1.253627         3    ;  uncertainty k = 0.220579
         5         6        28        47     9      180.000000        1.460767         4    ;  uncertainty k = 0.207379
         6         5         4        35     9        0.000000       -0.099823         1    ;  uncertainty k = 0.241524
         6         5         4        35     9      180.000000        7.800452         2    ;  uncertainty k = 0.321389
         6         5         4        35     9        0.000000        1.212039         3    ;  uncertainty k = 0.364603
         6         5         4        35     9      180.000000        1.643100         4    ;  uncertainty k = 0.155684
         6         7         8         9     9        0.000000        4.365590         1    ;  uncertainty k = 1.284017
         6         7         8         9     9      180.000000       10.791139         2    ;  uncertainty k = 0.230471
         6         7         8         9     9        0.000000        0.686869         3    ;  uncertainty k = 0.312207
         6         7         8         9     9      180.000000       -0.507667         4    ;  uncertainty k = 0.054192
         6         7         8        16     9        0.000000        7.039559         1    ;  uncertainty k = 0.599174
         6         7         8        16     9      180.000000        8.681781         2    ;  uncertainty k = 0.097887
         6         7         8        16     9        0.000000        0.920441         3    ;  uncertainty k = 0.381757
         6         7         8        16     9      180.000000       -0.164553         4    ;  uncertainty k = 0.221364
         6        28        29        30     9        0.000000        0.152072         1    ;  uncertainty k = 0.236865
         6        28        29        30     9      180.000000       11.350413         2    ;  uncertainty k = 0.544002
         6        28        29        30     9        0.000000        1.355669         3    ;  uncertainty k = 0.349766
         6        28        29        30     9      180.000000        1.696486         4    ;  uncertainty k = 0.237430
         7         6         5        36     9        0.000000       -0.291936         1    ;  uncertainty k = 0.233190
         7         6         5        36     9      180.000000        7.944711         2    ;  uncertainty k = 0.164350
         7         6         5        36     9        0.000000        0.918004         3    ;  uncertainty k = 0.228756
         7         6         5        36     9      180.000000        1.083856         4    ;  uncertainty k = 0.164907
         7         6        28        29     9        0.000000        0.148911         1    ;  uncertainty k = 0.574988
         7         6        28        29     9      180.000000        9.899588         2    ;  uncertainty k = 0.247388
         7         6        28        29     9        0.000000        1.000997         3    ;  uncertainty k = 0.351814
         7         6        28        29     9      180.000000        1.610986         4    ;  uncertainty k = 0.137508
         7         6        28        47     9        0.000000       -0.272934         1    ;  uncertainty k = 0.329125
         7         6        28        47     9      180.000000        7.865305         2    ;  uncertainty k = 0.242076
         7         6        28        47     9        0.000000        0.914516         3    ;  uncertainty k = 0.283703
         7         6        28        47     9      180.000000        1.068016         4    ;  uncertainty k = 0.243003
         7         8         9        10     9        0.000000        1.087993         1    ;  uncertainty k = 1.051960
         7         8         9        10     9      180.000000       17.978243         2    ;  uncertainty k = 0.461153
         7         8         9        10     9        0.000000        2.907706         3    ;  uncertainty k = 0.276387
         7         8         9        10     9      180.000000        1.658891         4    ;  uncertainty k = 0.301250
         7         8        16        12     9        0.000000       -0.953522         1    ;  uncertainty k = 0.960772
         7         8        16        12     9      180.000000        5.426483         2    ;  uncertainty k = 0.732995
         7         8        16        12     9        0.000000        0.463830         3    ;  uncertainty k = 0.276198
         7         8        16        12     9      180.000000        0.425035         4    ;  uncertainty k = 0.145521
         7         8        16        15     9        0.000000       -0.723785         1    ;  uncertainty k = 0.708754
         7         8        16        15     9      180.000000        4.584250         2    ;  uncertainty k = 1.077487
         7         8        16        15     9        0.000000        0.569780         3    ;  uncertainty k = 0.418447
         7         8        16        15     9      180.000000        0.322209         4    ;  uncertainty k = 0.225420
         8         7         6        28     9        0.000000        1.597949         1    ;  uncertainty k = 0.980885
         8         7         6        28     9      180.000000        5.574010         2    ;  uncertainty k = 0.231880
         8         7         6        28     9        0.000000        0.917733         3    ;  uncertainty k = 0.237919
         8         7         6        28     9      180.000000        0.218590         4    ;  uncertainty k = 0.147859
         8         9        10        11     9        0.000000        0.985689         1    ;  uncertainty k = 1.541724
         8         9        10        11     9      180.000000        5.460611         2    ;  uncertainty k = 1.444054
         8         9        10        11     9        0.000000        1.169062         3    ;  uncertainty k = 0.838033
         8         9        10        11     9      180.000000        0.502199         4    ;  uncertainty k = 0.531335
         8         9        10        17     9        0.000000        0.985816         1    ;  uncertainty k = 1.091946
         8         9        10        17     9      180.000000        8.863928         2    ;  uncertainty k = 0.904402
         8         9        10        17     9        0.000000        1.534322         3    ;  uncertainty k = 0.575661
         8         9        10        17     9      180.000000        0.421654         4    ;  uncertainty k = 0.354145
         8        16        12        11     9        0.000000       -0.067501         1    ;  uncertainty k = 0.936063
         8        16        12        11     9      180.000000        5.119795         2    ;  uncertainty k = 1.529719
         8        16        12        11     9        0.000000        1.366064         3    ;  uncertainty k = 0.465858
         8        16        12        11     9      180.000000        0.395997         4    ;  uncertainty k = 0.311948
         8        16        12        13     9        0.000000        0.340421         1    ;  uncertainty k = 0.792595
         8        16        12        13     9      180.000000        6.024515         2    ;  uncertainty k = 0.492566
         8        16        12        13     9        0.000000        0.209998         3    ;  uncertainty k = 0.527723
         8        16        12        13     9      180.000000        0.585310         4    ;  uncertainty k = 0.374830
         8        16        15        14     9        0.000000       -0.258736         1    ;  uncertainty k = 0.813751
         8        16        15        14     9      180.000000       16.417004         2    ;  uncertainty k = 0.455553
         8        16        15        14     9        0.000000        0.694004         3    ;  uncertainty k = 0.637623
         8        16        15        14     9      180.000000        1.345365         4    ;  uncertainty k = 0.597909
         9         8         7        37     9        0.000000        8.933603         1    ;  uncertainty k = 0.591170
         9         8         7        37     9      180.000000        9.674255         2    ;  uncertainty k = 0.292954
         9         8         7        37     9        0.000000        1.085023         3    ;  uncertainty k = 0.309254
         9         8         7        37     9      180.000000       -0.060329         4    ;  uncertainty k = 0.151618
         9         8        16        12     9        0.000000       -0.504024         1    ;  uncertainty k = 0.651786
         9         8        16        12     9      180.000000        6.012609         2    ;  uncertainty k = 0.716592
         9         8        16        12     9        0.000000       -0.361775         3    ;  uncertainty k = 0.316377
         9         8        16        12     9      180.000000        0.564756         4    ;  uncertainty k = 0.159616
         9         8        16        15     9        0.000000       -1.420614         1    ;  uncertainty k = 2.233000
         9         8        16        15     9      180.000000        4.477339         2    ;  uncertainty k = 0.591237
         9         8        16        15     9        0.000000        0.456520         3    ;  uncertainty k = 0.408587
         9         8        16        15     9      180.000000        0.387711         4    ;  uncertainty k = 0.295704
         9        10        11        12     9        0.000000        0.023988         1    ;  uncertainty k = 0.576984
         9        10        11        12     9      180.000000       21.342316         2    ;  uncertainty k = 0.619962
         9        10        11        12     9        0.000000        0.536597         3    ;  uncertainty k = 0.317748
         9        10        11        12     9      180.000000        0.526437         4    ;  uncertainty k = 0.521773
         9        10        11        38     9        0.000000        0.420060         1    ;  uncertainty k = 1.002433
         9        10        11        38     9      180.000000       12.813338         2    ;  uncertainty k = 0.370806
         9        10        11        38     9        0.000000        1.628678         3    ;  uncertainty k = 0.626098
         9        10        11        38     9      180.000000        1.084968         4    ;  uncertainty k = 0.441867
         9        10        17        18     9        0.000000       -0.442023         1    ;  uncertainty k = 1.285185
         9        10        17        18     9      180.000000        4.764436         2    ;  uncertainty k = 0.234295
         9        10        17        18     9        0.000000        0.425207         3    ;  uncertainty k = 0.165169
         9        10        17        18     9      180.000000        0.073948         4    ;  uncertainty k = 0.097942
         9        10        17        27     9        0.000000       -1.652297         1    ;  uncertainty k = 1.124550
         9        10        17        27     9      180.000000        4.943664         2    ;  uncertainty k = 0.202179
         9        10        17        27     9        0.000000        0.443861         3    ;  uncertainty k = 0.168306
         9        10        17        27     9      180.000000        0.117649         4    ;  uncertainty k = 0.080071
        10         9         8        16     9        0.000000       -0.082456         1    ;  uncertainty k = 2.198430
        10         9         8        16     9      180.000000       13.638513         2    ;  uncertainty k = 0.605313
        10         9         8        16     9        0.000000        2.507603         3    ;  uncertainty k = 0.846052
        10         9         8        16     9      180.000000        1.349972         4    ;  uncertainty k = 0.397065
        10        11        12        13     9        0.000000        0.413479         1    ;  uncertainty k = 1.486065
        10        11        12        13     9      180.000000        4.654921         2    ;  uncertainty k = 0.626730
        10        11        12        13     9        0.000000        0.726748         3    ;  uncertainty k = 0.331037
        10        11        12        13     9      180.000000        0.328713         4    ;  uncertainty k = 0.095517
        10        11        12        16     9        0.000000       -0.094280         1    ;  uncertainty k = 1.653270
        10        11        12        16     9      180.000000        6.303954         2    ;  uncertainty k = 0.517272
        10        11        12        16     9        0.000000       -0.853374         3    ;  uncertainty k = 0.837190
        10        11        12        16     9      180.000000        0.599500         4    ;  uncertainty k = 0.146722
        10        17        18        19     9        0.000000        0.011498         1    ;  uncertainty k = 0.245207
        10        17        18        19     9      180.000000        8.847169         2    ;  uncertainty k = 0.405922
        10        17        18        19     9        0.000000        1.134313         3    ;  uncertainty k = 0.268054
        10        17        18        19     9      180.000000        1.743373         4    ;  uncertainty k = 0.158010
        10        17        18        41     9        0.000000        0.000336         1    ;  uncertainty k = 0.166000
        10        17        18        41     9      180.000000        6.963979         2    ;  uncertainty k = 0.275330
        10        17        18        41     9        0.000000        0.674448         3    ;  uncertainty k = 0.197704
        10        17        18        41     9      180.000000        1.099808         4    ;  uncertainty k = 0.143863
        10        17        27        26     9        0.000000        0.113240         1    ;  uncertainty k = 0.286873
        10        17        27        26     9      180.000000        9.150431         2    ;  uncertainty k = 0.231384
        10        17        27        26     9        0.000000        1.366675         3    ;  uncertainty k = 0.161742
        10        17        27        26     9      180.000000        1.613132         4    ;  uncertainty k = 0.152011
        10        17        27        46     9        0.000000       -0.107766         1    ;  uncertainty k = 0.288468
        10        17        27        46     9      180.000000        7.233724         2    ;  uncertainty k = 0.228309
        10        17        27        46     9        0.000000        0.664837         3    ;  uncertainty k = 0.235227
        10        17        27        46     9      180.000000        1.101888         4    ;  uncertainty k = 0.227289
        11        10        17        18     9        0.000000       -0.046546         1    ;  uncertainty k = 0.246466
        11        10        17        18     9      180.000000        3.851774         2    ;  uncertainty k = 0.457185
        11        10        17        18     9        0.000000        0.762427         3    ;  uncertainty k = 0.169336
        11        10        17        18     9      180.000000       -0.360358         4    ;  uncertainty k = 0.152751
        11        10        17        27     9        0.000000        0.343226         1    ;  uncertainty k = 0.261893
        11        10        17        27     9      180.000000        3.713563         2    ;  uncertainty k = 0.368202
        11        10        17        27     9        0.000000        0.697087         3    ;  uncertainty k = 0.140178
        11        10        17        27     9      180.000000       -0.336738         4    ;  uncertainty k = 0.125099
        11        12        13        14     9        0.000000        0.235816         1    ;  uncertainty k = 1.271425
        11        12        13        14     9      180.000000        9.589390         2    ;  uncertainty k = 0.769503
        11        12        13        14     9        0.000000        0.417477         3    ;  uncertainty k = 0.753588
        11        12        13        14     9      180.000000        0.560076         4    ;  uncertainty k = 0.315873
        11        12        13        39     9        0.000000        0.581405         1    ;  uncertainty k = 1.268508
        11        12        13        39     9      180.000000        2.794503         2    ;  uncertainty k = 1.412426
        11        12        13        39     9        0.000000        1.233123         3    ;  uncertainty k = 0.396700
        11        12        13        39     9      180.000000        0.134685         4    ;  uncertainty k = 0.120183
        11        12        16        15     9        0.000000        0.326427         1    ;  uncertainty k = 0.556806
        11        12        16        15     9      180.000000        8.717461         2    ;  uncertainty k = 0.553352
        11        12        16        15     9        0.000000        0.454290         3    ;  uncertainty k = 0.402084
        11        12        16        15     9      180.000000        0.882202         4    ;  uncertainty k = 0.217822
        12        11        10        17     9        0.000000        0.616568         1    ;  uncertainty k = 0.282784
        12        11        10        17     9      180.000000       17.497570         2    ;  uncertainty k = 0.459320
        12        11        10        17     9        0.000000        1.901476         3    ;  uncertainty k = 0.445270
        12        11        10        17     9      180.000000        0.775046         4    ;  uncertainty k = 0.260282
        12        13        14        15     9        0.000000       -0.424259         1    ;  uncertainty k = 0.720471
        12        13        14        15     9      180.000000       21.948844         2    ;  uncertainty k = 0.272817
        12        13        14        15     9        0.000000       -9.453916         3    ;  uncertainty k = 0.408148
        12        13        14        15     9      180.000000        1.578950         4    ;  uncertainty k = 0.654473
        12        13        14        40     9        0.000000        0.427383         1    ;  uncertainty k = 0.828520
        12        13        14        40     9      180.000000       13.870596         2    ;  uncertainty k = 0.182398
        12        13        14        40     9        0.000000        1.815389         3    ;  uncertainty k = 0.320274
        12        13        14        40     9      180.000000        0.903574         4    ;  uncertainty k = 0.223947
        12        16        15        14     9        0.000000       -0.698106         1    ;  uncertainty k = 0.543243
        12        16        15        14     9      180.000000       23.970051         2    ;  uncertainty k = 0.495895
        12        16        15        14     9        0.000000      -11.206153         3    ;  uncertainty k = 1.161985
        12        16        15        14     9      180.000000        1.981051         4    ;  uncertainty k = 0.603215
        13        12        11        38     9        0.000000        1.217158         1    ;  uncertainty k = 1.228369
        13        12        11        38     9      180.000000        2.947603         2    ;  uncertainty k = 1.102774
        13        12        11        38     9        0.000000        1.031616         3    ;  uncertainty k = 0.514297
        13        12        11        38     9      180.000000        0.183690         4    ;  uncertainty k = 0.169835
        13        12        16        15     9        0.000000       -0.600194         1    ;  uncertainty k = 0.427509
        13        12        16        15     9      180.000000       12.032075         2    ;  uncertainty k = 0.540572
        13        12        16        15     9        0.000000       -4.884606         3    ;  uncertainty k = 1.243656
        13        12        16        15     9      180.000000        1.176890         4    ;  uncertainty k = 0.463084
        13        14        15        16     9        0.000000       -0.719371         1    ;  uncertainty k = 0.806440
        13        14        15        16     9      180.000000       16.306391         2    ;  uncertainty k = 0.372137
        13        14        15        16     9        0.000000       -5.546726         3    ;  uncertainty k = 0.784851
        13        14        15        16     9      180.000000        2.138755         4    ;  uncertainty k = 0.319469
        14        13        12        16     9        0.000000        0.425340         1    ;  uncertainty k = 0.911889
        14        13        12        16     9      180.000000       13.121731         2    ;  uncertainty k = 1.266973
        14        13        12        16     9        0.000000      -13.119121         3    ;  uncertainty k = 1.817832
        14        13        12        16     9      180.000000        1.693366         4    ;  uncertainty k = 0.377703
        15        14        13        39     9        0.000000       -0.210816         1    ;  uncertainty k = 0.409318
        15        14        13        39     9      180.000000       14.525460         2    ;  uncertainty k = 0.474526
        15        14        13        39     9        0.000000        1.399987         3    ;  uncertainty k = 0.472591
        15        14        13        39     9      180.000000        0.597840         4    ;  uncertainty k = 0.116226
        16         8         7        37     9        0.000000        5.299478         1    ;  uncertainty k = 1.071663
        16         8         7        37     9      180.000000        6.121003         2    ;  uncertainty k = 0.320629
        16         8         7        37     9        0.000000        1.371092         3    ;  uncertainty k = 0.426496
        16         8         7        37     9      180.000000       -0.017304         4    ;  uncertainty k = 0.216319
        16        12        11        38     9        0.000000        1.223729         1    ;  uncertainty k = 1.444460
        16        12        11        38     9      180.000000        4.301597         2    ;  uncertainty k = 0.541400
        16        12        11        38     9        0.000000        1.121892         3    ;  uncertainty k = 0.352013
        16        12        11        38     9      180.000000        0.198214         4    ;  uncertainty k = 0.126890
        16        12        13        39     9        0.000000        0.337817         1    ;  uncertainty k = 0.998519
        16        12        13        39     9      180.000000        7.392009         2    ;  uncertainty k = 0.385665
        16        12        13        39     9        0.000000        1.061986         3    ;  uncertainty k = 0.365240
        16        12        13        39     9      180.000000        0.171584         4    ;  uncertainty k = 0.281011
        16        15        14        40     9        0.000000       -0.095582         1    ;  uncertainty k = 0.393923
        16        15        14        40     9      180.000000       14.177386         2    ;  uncertainty k = 0.352374
        16        15        14        40     9        0.000000        1.588169         3    ;  uncertainty k = 0.688228
        16        15        14        40     9      180.000000        0.904862         4    ;  uncertainty k = 0.448977
        17        10        11        38     9        0.000000       -0.217106         1    ;  uncertainty k = 0.369060
        17        10        11        38     9      180.000000        9.294790         2    ;  uncertainty k = 0.463383
        17        10        11        38     9        0.000000        1.510051         3    ;  uncertainty k = 0.279351
        17        10        11        38     9      180.000000        0.987368         4    ;  uncertainty k = 0.112404
        17        18        19        20     9        0.000000       -0.038369         1    ;  uncertainty k = 0.116237
        17        18        19        20     9      180.000000       13.433576         2    ;  uncertainty k = 0.302332
        17        18        19        20     9        0.000000       -0.546922         3    ;  uncertainty k = 0.582811
        17        18        19        20     9      180.000000        0.924386         4    ;  uncertainty k = 0.276818
        17        18        19        42     9        0.000000        0.168594         1    ;  uncertainty k = 0.051382
        17        18        19        42     9      180.000000        7.780318         2    ;  uncertainty k = 0.339291
        17        18        19        42     9        0.000000        1.486182         3    ;  uncertainty k = 0.235866
        17        18        19        42     9      180.000000        1.860691         4    ;  uncertainty k = 0.159847
        17        27        26        20     9        0.000000       -0.159856         1    ;  uncertainty k = 0.523192
        17        27        26        20     9      180.000000        8.760740         2    ;  uncertainty k = 0.716471
        17        27        26        20     9        0.000000        0.075992         3    ;  uncertainty k = 0.377177
        17        27        26        20     9      180.000000        1.118090         4    ;  uncertainty k = 0.450486
        17        27        26        25     9        0.000000        0.237504         1    ;  uncertainty k = 0.259648
        17        27        26        25     9      180.000000       11.123811         2    ;  uncertainty k = 0.516481
        17        27        26        25     9        0.000000        1.252044         3    ;  uncertainty k = 0.275743
        17        27        26        25     9      180.000000        1.565407         4    ;  uncertainty k = 0.162692
        18        17        27        26     9        0.000000       -0.075104         1    ;  uncertainty k = 0.179426
        18        17        27        26     9      180.000000       11.336360         2    ;  uncertainty k = 0.295379
        18        17        27        26     9        0.000000       -0.240445         3    ;  uncertainty k = 0.448417
        18        17        27        26     9      180.000000        1.033680         4    ;  uncertainty k = 0.327361
        18        17        27        46     9        0.000000        0.148868         1    ;  uncertainty k = 0.156703
        18        17        27        46     9      180.000000        6.915047         2    ;  uncertainty k = 0.374464
        18        17        27        46     9        0.000000        1.412213         3    ;  uncertainty k = 0.126115
        18        17        27        46     9      180.000000        1.647087         4    ;  uncertainty k = 0.183862
        18        19        20        21     9        0.000000        0.247282         1    ;  uncertainty k = 0.144743
        18        19        20        21     9      180.000000       11.816124         2    ;  uncertainty k = 0.344610
        18        19        20        21     9        0.000000        1.577023         3    ;  uncertainty k = 0.323111
        18        19        20        21     9      180.000000        1.574805         4    ;  uncertainty k = 0.153508
        18        19        20        26     9        0.000000        0.017126         1    ;  uncertainty k = 0.300239
        18        19        20        26     9      180.000000        8.991058         2    ;  uncertainty k = 0.480857
        18        19        20        26     9        0.000000       -0.142480         3    ;  uncertainty k = 0.419798
        18        19        20        26     9      180.000000        1.145602         4    ;  uncertainty k = 0.284156
        19        18        17        27     9        0.000000       -0.095377         1    ;  uncertainty k = 0.295820
        19        18        17        27     9      180.000000       11.534134         2    ;  uncertainty k = 0.329914
        19        18        17        27     9        0.000000       -0.580101         3    ;  uncertainty k = 0.343343
        19        18        17        27     9      180.000000        0.976787         4    ;  uncertainty k = 0.241529
        19        20        21        22     9        0.000000       -0.565754         1    ;  uncertainty k = 0.814845
        19        20        21        22     9      180.000000        3.030099         2    ;  uncertainty k = 0.291687
        19        20        21        22     9        0.000000        0.796591         3    ;  uncertainty k = 0.240149
        19        20        21        22     9      180.000000        0.169687         4    ;  uncertainty k = 0.116810
        19        20        26        25     9        0.000000        0.387185         1    ;  uncertainty k = 0.364796
        19        20        26        25     9      180.000000        7.061212         2    ;  uncertainty k = 0.285371
        19        20        26        25     9        0.000000        1.006318         3    ;  uncertainty k = 0.388603
        19        20        26        25     9      180.000000        1.519059         4    ;  uncertainty k = 0.234294
        19        20        26        27     9        0.000000       -0.296535         1    ;  uncertainty k = 0.800816
        19        20        26        27     9      180.000000        5.766455         2    ;  uncertainty k = 1.137812
        19        20        26        27     9        0.000000        0.211730         3    ;  uncertainty k = 0.440177
        19        20        26        27     9      180.000000        1.229946         4    ;  uncertainty k = 0.440207
        20        19        18        41     9        0.000000        0.108917         1    ;  uncertainty k = 0.340402
        20        19        18        41     9      180.000000        8.517999         2    ;  uncertainty k = 0.409734
        20        19        18        41     9        0.000000        1.252014         3    ;  uncertainty k = 0.272460
        20        19        18        41     9      180.000000        1.733755         4    ;  uncertainty k = 0.194252
        20        21        22        23     9        0.000000       14.064244         1    ;  uncertainty k = 0.916187
        20        21        22        23     9      180.000000      -11.045871         2    ;  uncertainty k = 1.521991
        20        21        22        23     9        0.000000       -1.287664         3    ;  uncertainty k = 0.987673
        20        21        22        23     9      180.000000        1.158278         4    ;  uncertainty k = 0.477686
        20        21        22        43     9        0.000000        0.282491         1    ;  uncertainty k = 0.316212
        20        21        22        43     9      180.000000       -0.656300         2    ;  uncertainty k = 0.427616
        20        21        22        43     9        0.000000        0.502564         3    ;  uncertainty k = 0.233664
        20        21        22        43     9      180.000000        0.097869         4    ;  uncertainty k = 0.107607
        20        21        22        44     9        0.000000        0.282491         1    ;  uncertainty k = 0.316212
        20        21        22        44     9      180.000000       -0.656300         2    ;  uncertainty k = 0.427616
        20        21        22        44     9        0.000000        0.502564         3    ;  uncertainty k = 0.233664
        20        21        22        44     9      180.000000        0.097869         4    ;  uncertainty k = 0.107607
        20        26        25        23     9        0.000000        3.982539         1    ;  uncertainty k = 2.969736
        20        26        25        23     9      180.000000        0.211093         2    ;  uncertainty k = 1.265875
        20        26        25        23     9        0.000000        0.228706         3    ;  uncertainty k = 0.462053
        20        26        25        23     9      180.000000        0.246851         4    ;  uncertainty k = 0.257624
        20        26        25        45     9        0.000000        3.247918         1    ;  uncertainty k = 1.202197
        20        26        25        45     9      180.000000        2.730118         2    ;  uncertainty k = 0.972274
        20        26        25        45     9        0.000000        0.349118         3    ;  uncertainty k = 0.204354
        20        26        25        45     9      180.000000        0.083886         4    ;  uncertainty k = 0.204571
        20        26        27        46     9        0.000000        0.013019         1    ;  uncertainty k = 0.383338
        20        26        27        46     9      180.000000        6.833095         2    ;  uncertainty k = 0.752865
        20        26        27        46     9        0.000000        1.317911         3    ;  uncertainty k = 0.148774
        20        26        27        46     9      180.000000        1.478407         4    ;  uncertainty k = 0.111589
        21        20        19        42     9        0.000000       -0.164371         1    ;  uncertainty k = 0.547160
        21        20        19        42     9      180.000000        8.978383         2    ;  uncertainty k = 0.275325
        21        20        19        42     9        0.000000        0.777127         3    ;  uncertainty k = 0.294171
        21        20        19        42     9      180.000000        1.184249         4    ;  uncertainty k = 0.309409
        21        20        26        25     9        0.000000        0.057696         1    ;  uncertainty k = 0.290294
        21        20        26        25     9      180.000000       10.182455         2    ;  uncertainty k = 0.543264
        21        20        26        25     9        0.000000        1.157406         3    ;  uncertainty k = 0.249871
        21        20        26        25     9      180.000000        1.378212         4    ;  uncertainty k = 0.242411
        21        20        26        27     9        0.000000        0.272653         1    ;  uncertainty k = 0.402065
        21        20        26        27     9      180.000000        8.015007         2    ;  uncertainty k = 0.349072
        21        20        26        27     9        0.000000        1.328303         3    ;  uncertainty k = 0.351251
        21        20        26        27     9      180.000000        1.557455         4    ;  uncertainty k = 0.224002
        21        22        23        24     9        0.000000       -3.341795         1    ;  uncertainty k = 1.591447
        21        22        23        24     9      180.000000        1.514676         2    ;  uncertainty k = 1.102149
        21        22        23        24     9        0.000000       -0.146682         3    ;  uncertainty k = 1.001421
        21        22        23        24     9      180.000000        0.640982         4    ;  uncertainty k = 0.570515
        21        22        23        25     9        0.000000        2.744081         1    ;  uncertainty k = 0.950046
        21        22        23        25     9      180.000000       -1.447729         2    ;  uncertainty k = 0.296503
        21        22        23        25     9        0.000000       -0.590680         3    ;  uncertainty k = 0.369345
        21        22        23        25     9      180.000000        0.420721         4    ;  uncertainty k = 0.200523
        22        21        20        26     9        0.000000        2.864550         1    ;  uncertainty k = 1.849254
        22        21        20        26     9      180.000000       -0.057360         2    ;  uncertainty k = 0.597654
        22        21        20        26     9        0.000000        0.071837         3    ;  uncertainty k = 0.422260
        22        21        20        26     9      180.000000        0.418499         4    ;  uncertainty k = 0.199949
        22        23        25        26     9        0.000000        1.317079         1    ;  uncertainty k = 4.367392
        22        23        25        26     9      180.000000        1.800313         2    ;  uncertainty k = 1.222442
        22        23        25        26     9        0.000000        0.453054         3    ;  uncertainty k = 0.271371
        22        23        25        26     9      180.000000        0.830465         4    ;  uncertainty k = 0.134534
        22        23        25        45     9        0.000000        4.463765         1    ;  uncertainty k = 4.450269
        22        23        25        45     9      180.000000        7.525432         2    ;  uncertainty k = 0.428391
        22        23        25        45     9        0.000000        1.068876         3    ;  uncertainty k = 0.516951
        22        23        25        45     9      180.000000       -0.256018         4    ;  uncertainty k = 0.197643
        23        25        26        27     9        0.000000        0.786917         1    ;  uncertainty k = 1.757563
        23        25        26        27     9      180.000000        1.632095         2    ;  uncertainty k = 0.661410
        23        25        26        27     9        0.000000        0.307376         3    ;  uncertainty k = 0.282491
        23        25        26        27     9      180.000000       -0.025253         4    ;  uncertainty k = 0.159032
        24        23        22        43     9        0.000000       -1.454164         1    ;  uncertainty k = 1.159126
        24        23        22        43     9      180.000000        1.227778         2    ;  uncertainty k = 0.640886
        24        23        22        43     9        0.000000        1.124537         3    ;  uncertainty k = 0.181803
        24        23        22        43     9      180.000000        0.105888         4    ;  uncertainty k = 0.262538
        24        23        22        44     9        0.000000       -1.454164         1    ;  uncertainty k = 1.159126
        24        23        22        44     9      180.000000        1.227778         2    ;  uncertainty k = 0.640886
        24        23        22        44     9        0.000000        1.124537         3    ;  uncertainty k = 0.181803
        24        23        22        44     9      180.000000        0.105888         4    ;  uncertainty k = 0.262538
        24        23        25        26     9        0.000000        3.608586         1    ;  uncertainty k = 1.344018
        24        23        25        26     9      180.000000       15.088870         2    ;  uncertainty k = 0.605880
        24        23        25        26     9        0.000000        1.013611         3    ;  uncertainty k = 0.304358
        24        23        25        26     9      180.000000       -0.658615         4    ;  uncertainty k = 0.171588
        24        23        25        45     9        0.000000        4.123101         1    ;  uncertainty k = 1.017368
        24        23        25        45     9      180.000000       10.768159         2    ;  uncertainty k = 0.343792
        24        23        25        45     9        0.000000        0.669605         3    ;  uncertainty k = 0.540801
        24        23        25        45     9      180.000000       -0.092395         4    ;  uncertainty k = 0.262597
        25        23        22        43     9        0.000000       -2.146385         1    ;  uncertainty k = 1.126969
        25        23        22        43     9      180.000000        0.278696         2    ;  uncertainty k = 0.735647
        25        23        22        43     9        0.000000        0.027801         3    ;  uncertainty k = 0.097976
        25        23        22        43     9      180.000000       -0.113376         4    ;  uncertainty k = 0.119866
        25        23        22        44     9        0.000000       -2.146385         1    ;  uncertainty k = 1.126969
        25        23        22        44     9      180.000000        0.278696         2    ;  uncertainty k = 0.735647
        25        23        22        44     9        0.000000        0.027801         3    ;  uncertainty k = 0.097976
        25        23        22        44     9      180.000000       -0.113376         4    ;  uncertainty k = 0.119866
        25        26        27        46     9        0.000000       -0.402381         1    ;  uncertainty k = 0.421321
        25        26        27        46     9      180.000000        7.959250         2    ;  uncertainty k = 0.159190
        25        26        27        46     9        0.000000        1.066036         3    ;  uncertainty k = 0.267657
        25        26        27        46     9      180.000000        1.377869         4    ;  uncertainty k = 0.229139
        26        20        19        42     9        0.000000        0.187655         1    ;  uncertainty k = 0.623330
        26        20        19        42     9      180.000000        6.249153         2    ;  uncertainty k = 0.495629
        26        20        19        42     9        0.000000        1.327930         3    ;  uncertainty k = 0.271237
        26        20        19        42     9      180.000000        1.380200         4    ;  uncertainty k = 0.109671
        27        17        18        41     9        0.000000        0.012381         1    ;  uncertainty k = 0.169591
        27        17        18        41     9      180.000000        6.852339         2    ;  uncertainty k = 0.475216
        27        17        18        41     9        0.000000        1.335090         3    ;  uncertainty k = 0.167371
        27        17        18        41     9      180.000000        1.596652         4    ;  uncertainty k = 0.215138
        27        26        25        45     9        0.000000        0.639482         1    ;  uncertainty k = 0.542467
        27        26        25        45     9      180.000000        2.489089         2    ;  uncertainty k = 0.541151
        27        26        25        45     9        0.000000        0.336313         3    ;  uncertainty k = 0.127865
        27        26        25        45     9      180.000000        0.098407         4    ;  uncertainty k = 0.257398
        28         6         5        36     9        0.000000        0.060116         1    ;  uncertainty k = 0.285327
        28         6         5        36     9      180.000000        6.705137         2    ;  uncertainty k = 0.811645
        28         6         5        36     9        0.000000        1.254749         3    ;  uncertainty k = 0.282861
        28         6         5        36     9      180.000000        1.489480         4    ;  uncertainty k = 0.123486
        28         6         7        37     9        0.000000        3.766903         1    ;  uncertainty k = 0.282406
        28         6         7        37     9      180.000000        4.224135         2    ;  uncertainty k = 0.219472
        28         6         7        37     9        0.000000        0.731781         3    ;  uncertainty k = 0.239894
        28         6         7        37     9      180.000000        0.435986         4    ;  uncertainty k = 0.107235
        28        29        30        31     9        0.000000        1.341409         1    ;  uncertainty k = 0.791973
        28        29        30        31     9      180.000000        6.361826         2    ;  uncertainty k = 0.220151
        28        29        30        31     9        0.000000       -0.225719         3    ;  uncertainty k = 0.095998
        28        29        30        31     9      180.000000        0.006631         4    ;  uncertainty k = 0.110606
        29         3         4        35     9        0.000000       -0.032441         1    ;  uncertainty k = 0.368382
        29         3         4        35     9      180.000000        5.959632         2    ;  uncertainty k = 0.432853
        29         3         4        35     9        0.000000        1.321132         3    ;  uncertainty k = 0.261791
        29         3         4        35     9      180.000000        1.598351         4    ;  uncertainty k = 0.068542
        29        30        31        48     9        0.000000        1.110243         1    ;  uncertainty k = 0.221947
        29        30        31        48     9      180.000000       -2.083404         2    ;  uncertainty k = 0.117430
        29        30        31        48     9        0.000000        1.033193         3    ;  uncertainty k = 0.049823
        29        30        31        48     9      180.000000        0.223294         4    ;  uncertainty k = 0.039928
        29        30        31        49     9        0.000000        1.110243         1    ;  uncertainty k = 0.221947
        29        30        31        49     9      180.000000       -2.083404         2    ;  uncertainty k = 0.117430
        29        30        31        49     9        0.000000        1.033193         3    ;  uncertainty k = 0.049823
        29        30        31        49     9      180.000000        0.223294         4    ;  uncertainty k = 0.039928
        29        30        31        50     9        0.000000        1.110243         1    ;  uncertainty k = 0.221947
        29        30        31        50     9      180.000000       -2.083404         2    ;  uncertainty k = 0.117430
        29        30        31        50     9        0.000000        1.033193         3    ;  uncertainty k = 0.049823
        29        30        31        50     9      180.000000        0.223294         4    ;  uncertainty k = 0.039928
        30        29        28        47     9        0.000000       -0.013362         1    ;  uncertainty k = 0.227812
        30        29        28        47     9      180.000000        9.629865         2    ;  uncertainty k = 0.341224
        30        29        28        47     9        0.000000        0.885574         3    ;  uncertainty k = 0.134168
        30        29        28        47     9      180.000000        1.294493         4    ;  uncertainty k = 0.314813
        35         4         5        36     9        0.000000       -0.108356         1    ;  uncertainty k = 0.187628
        35         4         5        36     9      180.000000        7.451232         2    ;  uncertainty k = 0.478631
        35         4         5        36     9        0.000000       -0.297348         3    ;  uncertainty k = 0.298879
        35         4         5        36     9      180.000000        0.257401         4    ;  uncertainty k = 0.173209
        39        13        14        40     9        0.000000       -0.311075         1    ;  uncertainty k = 0.492453
        39        13        14        40     9      180.000000        5.384359         2    ;  uncertainty k = 0.598234
        39        13        14        40     9        0.000000        1.243313         3    ;  uncertainty k = 0.430720
        39        13        14        40     9      180.000000        0.271791         4    ;  uncertainty k = 0.092255
        41        18        19        42     9        0.000000       -0.169093         1    ;  uncertainty k = 0.325875
        41        18        19        42     9      180.000000        7.557721         2    ;  uncertainty k = 0.308104
        41        18        19        42     9        0.000000       -0.306854         3    ;  uncertainty k = 0.277413
        41        18        19        42     9      180.000000        0.217620         4    ;  uncertainty k = 0.130393

[ dihedrals ] ; impropers
;       ai        aj        ak        al funct           phase               k        pn
         3         2         4        29     4      180.000000       15.206029         2    ;  uncertainty k = 0.074967
         3         4        29         2     4      180.000000       15.206029         2    ;  uncertainty k = 0.074967
         3        29         2         4     4      180.000000       15.206029         2    ;  uncertainty k = 0.074967
         4         3         5        35     4      180.000000        2.008335         2    ;  uncertainty k = 0.230964
         4         5        35         3     4      180.000000        2.008335         2    ;  uncertainty k = 0.230964
         4        35         3         5     4      180.000000        2.008335         2    ;  uncertainty k = 0.230964
         5         4         6        36     4      180.000000        2.607477         2    ;  uncertainty k = 0.379217
         5         6        36         4     4      180.000000        2.607477         2    ;  uncertainty k = 0.379217
         5        36         4         6     4      180.000000        2.607477         2    ;  uncertainty k = 0.379217
         6         5         7        28     4      180.000000       17.507517         2    ;  uncertainty k = 0.057196
         6         7        28         5     4      180.000000       17.507517         2    ;  uncertainty k = 0.057196
         6        28         5         7     4      180.000000       17.507517         2    ;  uncertainty k = 0.057196
         7         6         8        37     4      180.000000        1.622505         2    ;  uncertainty k = 0.666333
         7         8        37         6     4      180.000000        1.622505         2    ;  uncertainty k = 0.666333
         7        37         6         8     4      180.000000        1.622505         2    ;  uncertainty k = 0.666333
         8         7         9        16     4      180.000000       28.373181         2    ;  uncertainty k = 0.063953
         8         9        16         7     4      180.000000       28.373181         2    ;  uncertainty k = 0.063953
         8        16         7         9     4      180.000000       28.373181         2    ;  uncertainty k = 0.063953
        10         9        11        17     4      180.000000       19.132726         2    ;  uncertainty k = 0.076240
        10        11        17         9     4      180.000000       19.132726         2    ;  uncertainty k = 0.076240
        10        17         9        11     4      180.000000       19.132726         2    ;  uncertainty k = 0.076240
        11        10        12        38     4      180.000000        1.397413         2    ;  uncertainty k = 1.158641
        11        12        38        10     4      180.000000        1.397413         2    ;  uncertainty k = 1.158641
        11        38        10        12     4      180.000000        1.397413         2    ;  uncertainty k = 1.158641
        12        11        13        16     4      180.000000        1.571839         2    ;  uncertainty k = 1.396554
        12        13        16        11     4      180.000000        1.571839         2    ;  uncertainty k = 1.396554
        12        16        11        13     4      180.000000        1.571839         2    ;  uncertainty k = 1.396554
        13        12        14        39     4      180.000000        0.105195         2    ;  uncertainty k = 0.235223
        13        14        39        12     4      180.000000        0.105195         2    ;  uncertainty k = 0.235223
        13        39        12        14     4      180.000000        0.105195         2    ;  uncertainty k = 0.235223
        14        13        15        40     4      180.000000        1.779599         2    ;  uncertainty k = 0.230150
        14        15        40        13     4      180.000000        1.779599         2    ;  uncertainty k = 0.230150
        14        40        13        15     4      180.000000        1.779599         2    ;  uncertainty k = 0.230150
        16         8        12        15     4      180.000000        2.165381         2    ;  uncertainty k = 0.627947
        16        12        15         8     4      180.000000        2.165381         2    ;  uncertainty k = 0.627947
        16        15         8        12     4      180.000000        2.165381         2    ;  uncertainty k = 0.627947
        17        10        18        27     4      180.000000       10.621510         2    ;  uncertainty k = 0.191846
        17        18        27        10     4      180.000000       10.621510         2    ;  uncertainty k = 0.191846
        17        27        10        18     4      180.000000       10.621510         2    ;  uncertainty k = 0.191846
        18        17        19        41     4      180.000000        3.446609         2    ;  uncertainty k = 0.122784
        18        19        41        17     4      180.000000        3.446609         2    ;  uncertainty k = 0.122784
        18        41        17        19     4      180.000000        3.446609         2    ;  uncertainty k = 0.122784
        19        18        20        42     4      180.000000        1.917981         2    ;  uncertainty k = 0.305714
        19        20        42        18     4      180.000000        1.917981         2    ;  uncertainty k = 0.305714
        19        42        18        20     4      180.000000        1.917981         2    ;  uncertainty k = 0.305714
        20        19        21        26     4      180.000000       15.559540         2    ;  uncertainty k = 0.186709
        20        21        26        19     4      180.000000       15.559540         2    ;  uncertainty k = 0.186709
        20        26        19        21     4      180.000000       15.559540         2    ;  uncertainty k = 0.186709
        23        22        24        25     4      180.000000       52.832560         2    ;  uncertainty k = 0.034113
        23        24        25        22     4      180.000000       52.832560         2    ;  uncertainty k = 0.034113
        23        25        22        24     4      180.000000       52.832560         2    ;  uncertainty k = 0.034113
        25        23        26        45     4      180.000000        0.586836         2    ;  uncertainty k = 0.838546
        25        26        45        23     4      180.000000        0.586836         2    ;  uncertainty k = 0.838546
        25        45        23        26     4      180.000000        0.586836         2    ;  uncertainty k = 0.838546
        26        20        25        27     4      180.000000       13.782913         2    ;  uncertainty k = 0.181575
        26        25        27        20     4      180.000000       13.782913         2    ;  uncertainty k = 0.181575
        26        27        20        25     4      180.000000       13.782913         2    ;  uncertainty k = 0.181575
        27        17        26        46     4      180.000000        2.187024         2    ;  uncertainty k = 0.355753
        27        26        46        17     4      180.000000        2.187024         2    ;  uncertainty k = 0.355753
        27        46        17        26     4      180.000000        2.187024         2    ;  uncertainty k = 0.355753
        28         6        29        47     4      180.000000        1.689049         2    ;  uncertainty k = 0.529654
        28        29        47         6     4      180.000000        1.689049         2    ;  uncertainty k = 0.529654
        28        47         6        29     4      180.000000        1.689049         2    ;  uncertainty k = 0.529654
        29         3        28        30     4      180.000000       16.672261         2    ;  uncertainty k = 0.075717
        29        28        30         3     4      180.000000       16.672261         2    ;  uncertainty k = 0.075717
        29        30         3        28     4      180.000000       16.672261         2    ;  uncertainty k = 0.075717

[ pairs ]
;       ai        aj funct
         1         4     1
         1        29     1
         2         5     1
         2        28     1
         2        30     1
         2        35     1
         3         6     1
         3        31     1
         3        32     1
         3        33     1
         3        34     1
         3        36     1
         3        47     1
         4         7     1
         4        28     1
         4        30     1
         5         8     1
         5        29     1
         5        37     1
         5        47     1
         6         9     1
         6        16     1
         6        30     1
         6        35     1
         7        10     1
         7        12     1
         7        15     1
         7        29     1
         7        36     1
         7        47     1
         8        11     1
         8        13     1
         8        14     1
         8        17     1
         8        28     1
         9        12     1
         9        15     1
         9        18     1
         9        27     1
         9        37     1
         9        38     1
        10        13     1
        10        16     1
        10        19     1
        10        26     1
        10        41     1
        10        46     1
        11        14     1
        11        15     1
        11        18     1
        11        27     1
        11        39     1
        12        17     1
        12        40     1
        13        38     1
        15        39     1
        16        37     1
        16        38     1
        16        39     1
        16        40     1
        17        20     1
        17        25     1
        17        38     1
        17        42     1
        18        21     1
        18        26     1
        18        46     1
        19        22     1
        19        25     1
        19        27     1
        20        23     1
        20        41     1
        20        43     1
        20        44     1
        20        45     1
        20        46     1
        21        24     1
        21        25     1
        21        27     1
        21        42     1
        22        26     1
        22        45     1
        23        27     1
        24        26     1
        24        43     1
        24        44     1
        24        45     1
        25        43     1
        25        44     1
        25        46     1
        26        42     1
        27        41     1
        27        45     1
        28        31     1
        28        36     1
        28        37     1
        29        35     1
        29        48     1
        29        49     1
        29        50     1
        30        47     1
        35        36     1
        39        40     1
        41        42     1
