; ITP file created by ByteFF-joint-25, 2026-02-17 09:43:39.451270

[ atomtypes ]
;name           bonded.type        at.num        mass        charge   ptype           sigma         epsilon
 c0bf                                   6      0.0000       0.00000       A     3.39790e-01     4.50985e-01    ;  uncertainty sigma = 0.000004, epsilon = 0.000763
 o1bf                                   8      0.0000       0.00000       A     3.15644e-01     3.02858e-01    ;  uncertainty sigma = 0.000024, epsilon = 0.000768
 c2bf                                   6      0.0000       0.00000       A     3.31536e-01     4.13642e-01    ;  uncertainty sigma = 0.000005, epsilon = 0.000619
 c3bf                                   6      0.0000       0.00000       A     3.31513e-01     4.13299e-01    ;  uncertainty sigma = 0.000002, epsilon = 0.000722
 c4bf                                   6      0.0000       0.00000       A     3.31526e-01     4.13632e-01    ;  uncertainty sigma = 0.000004, epsilon = 0.000629
 c5bf                                   6      0.0000       0.00000       A     3.31522e-01     4.13418e-01    ;  uncertainty sigma = 0.000005, epsilon = 0.000553
 c6bf                                   6      0.0000       0.00000       A     3.31514e-01     4.13451e-01    ;  uncertainty sigma = 0.000011, epsilon = 0.000772
 n7bf                                   7      0.0000       0.00000       A     3.27852e-01     6.46168e-01    ;  uncertainty sigma = 0.000043, epsilon = 0.003219
 c8bf                                   6      0.0000       0.00000       A     3.31526e-01     4.13887e-01    ;  uncertainty sigma = 0.000017, epsilon = 0.001682
 n9bf                                   7      0.0000       0.00000       A     3.38464e-01     3.93282e-01    ;  uncertainty sigma = 0.000032, epsilon = 0.000680
 c10bf                                  6      0.0000       0.00000       A     3.31551e-01     4.13482e-01    ;  uncertainty sigma = 0.000026, epsilon = 0.000675
 c11bf                                  6      0.0000       0.00000       A     3.31561e-01     4.13642e-01    ;  uncertainty sigma = 0.000012, epsilon = 0.001524
 n12bf                                  7      0.0000       0.00000       A     3.20547e-01     8.53303e-01    ;  uncertainty sigma = 0.000017, epsilon = 0.000844
 c13bf                                  6      0.0000       0.00000       A     3.31503e-01     4.12978e-01    ;  uncertainty sigma = 0.000012, epsilon = 0.001136
 c14bf                                  6      0.0000       0.00000       A     3.31531e-01     4.13187e-01    ;  uncertainty sigma = 0.000008, epsilon = 0.000699
 n15bf                                  7      0.0000       0.00000       A     3.38427e-01     3.92895e-01    ;  uncertainty sigma = 0.000039, epsilon = 0.000415
 c16bf                                  6      0.0000       0.00000       A     3.31554e-01     4.12537e-01    ;  uncertainty sigma = 0.000015, epsilon = 0.000432
 c17bf                                  6      0.0000       0.00000       A     3.31495e-01     4.12862e-01    ;  uncertainty sigma = 0.000015, epsilon = 0.000655
 c18bf                                  6      0.0000       0.00000       A     3.31522e-01     4.13340e-01    ;  uncertainty sigma = 0.000008, epsilon = 0.000498
 c19bf                                  6      0.0000       0.00000       A     3.31514e-01     4.13292e-01    ;  uncertainty sigma = 0.000012, epsilon = 0.000796
 c20bf                                  6      0.0000       0.00000       A     3.31509e-01     4.13757e-01    ;  uncertainty sigma = 0.000011, epsilon = 0.000799
 c21bf                                  6      0.0000       0.00000       A     3.31513e-01     4.13361e-01    ;  uncertainty sigma = 0.000005, epsilon = 0.000518
 n22bf                                  7      0.0000       0.00000       A     3.38391e-01     3.93277e-01    ;  uncertainty sigma = 0.000010, epsilon = 0.000960
 n23bf                                  7      0.0000       0.00000       A     3.20633e-01     8.53350e-01    ;  uncertainty sigma = 0.000014, epsilon = 0.001516
 c24bf                                  6      0.0000       0.00000       A     3.31512e-01     4.13040e-01    ;  uncertainty sigma = 0.000009, epsilon = 0.000957
 c25bf                                  6      0.0000       0.00000       A     3.31510e-01     4.13220e-01    ;  uncertainty sigma = 0.000011, epsilon = 0.001090
 c26bf                                  6      0.0000       0.00000       A     3.31519e-01     4.12932e-01    ;  uncertainty sigma = 0.000013, epsilon = 0.001012
 h27bf                                  1      0.0000       0.00000       A     2.42205e-01     8.67538e-02    ;  uncertainty sigma = 0.000015, epsilon = 0.000624
 h28bf                                  1      0.0000       0.00000       A     2.42205e-01     8.67538e-02    ;  uncertainty sigma = 0.000015, epsilon = 0.000624
 h29bf                                  1      0.0000       0.00000       A     2.42205e-01     8.67538e-02    ;  uncertainty sigma = 0.000015, epsilon = 0.000624
 h30bf                                  1      0.0000       0.00000       A     2.62564e-01     6.71213e-02    ;  uncertainty sigma = 0.000006, epsilon = 0.000469
 h31bf                                  1      0.0000       0.00000       A     2.62569e-01     6.69808e-02    ;  uncertainty sigma = 0.000013, epsilon = 0.000463
 h32bf                                  1      0.0000       0.00000       A     2.62556e-01     6.70450e-02    ;  uncertainty sigma = 0.000012, epsilon = 0.000463
 h33bf                                  1      0.0000       0.00000       A     1.10708e-01     4.06502e-02    ;  uncertainty sigma = 0.000118, epsilon = 0.000465
 h34bf                                  1      0.0000       0.00000       A     2.53612e-01     6.73648e-02    ;  uncertainty sigma = 0.000081, epsilon = 0.000889
 h35bf                                  1      0.0000       0.00000       A     2.53649e-01     6.68496e-02    ;  uncertainty sigma = 0.000023, epsilon = 0.000657
 h36bf                                  1      0.0000       0.00000       A     2.53645e-01     6.69492e-02    ;  uncertainty sigma = 0.000020, epsilon = 0.000834
 h37bf                                  1      0.0000       0.00000       A     2.62566e-01     6.71205e-02    ;  uncertainty sigma = 0.000011, epsilon = 0.000550
 h38bf                                  1      0.0000       0.00000       A     2.62563e-01     6.68746e-02    ;  uncertainty sigma = 0.000013, epsilon = 0.000544
 h39bf                                  1      0.0000       0.00000       A     2.53655e-01     6.72548e-02    ;  uncertainty sigma = 0.000027, epsilon = 0.000407
 h40bf                                  1      0.0000       0.00000       A     1.10649e-01     4.13996e-02    ;  uncertainty sigma = 0.000067, epsilon = 0.000803
 h41bf                                  1      0.0000       0.00000       A     2.62569e-01     6.71238e-02    ;  uncertainty sigma = 0.000008, epsilon = 0.000504
 h42bf                                  1      0.0000       0.00000       A     2.62545e-01     6.71147e-02    ;  uncertainty sigma = 0.000015, epsilon = 0.000671

[ moleculetype ]
;name             nrexcl
 MOL                   3

[ atoms ]
;       nr            type      resi   res      atom      cgnr      charge          mass ; qtot
         1            c0bf         1   UNL        c0         1     0.12120       12.0110 ; qtot    0.121
         2            o1bf         1   UNL        o1         2    -0.32634       15.9990 ; qtot   -0.205
         3            c2bf         1   UNL        c2         3     0.15303       12.0110 ; qtot   -0.052
         4            c3bf         1   UNL        c3         4    -0.21458       12.0110 ; qtot   -0.267
         5            c4bf         1   UNL        c4         5    -0.06958       12.0110 ; qtot   -0.336
         6            c5bf         1   UNL        c5         6    -0.18169       12.0110 ; qtot   -0.518
         7            c6bf         1   UNL        c6         7     0.19556       12.0110 ; qtot   -0.322
         8            n7bf         1   UNL        n7         8    -0.74072       14.0070 ; qtot   -1.063
         9            c8bf         1   UNL        c8         9     0.75057       12.0110 ; qtot   -0.313
        10            n9bf         1   UNL        n9        10    -0.76973       14.0070 ; qtot   -1.082
        11           c10bf         1   UNL       c10        11     0.47542       12.0110 ; qtot   -0.607
        12           c11bf         1   UNL       c11        12    -0.22208       12.0110 ; qtot   -0.829
        13           n12bf         1   UNL       n12        13     0.05408       14.0070 ; qtot   -0.775
        14           c13bf         1   UNL       c13        14    -0.21243       12.0110 ; qtot   -0.987
        15           c14bf         1   UNL       c14        15     0.01175       12.0110 ; qtot   -0.976
        16           n15bf         1   UNL       n15        16    -0.27543       14.0070 ; qtot   -1.251
        17           c16bf         1   UNL       c16        17    -0.18460       12.0110 ; qtot   -1.436
        18           c17bf         1   UNL       c17        18    -0.09010       12.0110 ; qtot   -1.526
        19           c18bf         1   UNL       c18        19    -0.14752       12.0110 ; qtot   -1.673
        20           c19bf         1   UNL       c19        20    -0.05609       12.0110 ; qtot   -1.729
        21           c20bf         1   UNL       c20        21    -0.22020       12.0110 ; qtot   -1.949
        22           c21bf         1   UNL       c21        22     0.35625       12.0110 ; qtot   -1.593
        23           n22bf         1   UNL       n22        23    -0.50685       14.0070 ; qtot   -2.100
        24           n23bf         1   UNL       n23        24    -0.03477       14.0070 ; qtot   -2.135
        25           c24bf         1   UNL       c24        25    -0.03315       12.0110 ; qtot   -2.168
        26           c25bf         1   UNL       c25        26    -0.12410       12.0110 ; qtot   -2.292
        27           c26bf         1   UNL       c26        27    -0.22233       12.0110 ; qtot   -2.514
        28           h27bf         1   UNL       h27        28     0.04263        1.0080 ; qtot   -2.472
        29           h28bf         1   UNL       h28        29     0.04263        1.0080 ; qtot   -2.429
        30           h29bf         1   UNL       h29        30     0.04263        1.0080 ; qtot   -2.387
        31           h30bf         1   UNL       h30        31     0.14208        1.0080 ; qtot   -2.244
        32           h31bf         1   UNL       h31        32     0.13536        1.0080 ; qtot   -2.109
        33           h32bf         1   UNL       h32        33     0.14853        1.0080 ; qtot   -1.961
        34           h33bf         1   UNL       h33        34     0.46165        1.0080 ; qtot   -1.499
        35           h34bf         1   UNL       h34        35     0.17402        1.0080 ; qtot   -1.325
        36           h35bf         1   UNL       h35        36     0.18619        1.0080 ; qtot   -1.139
        37           h36bf         1   UNL       h36        37     0.17120        1.0080 ; qtot   -0.968
        38           h37bf         1   UNL       h37        38     0.14353        1.0080 ; qtot   -0.824
        39           h38bf         1   UNL       h38        39     0.14235        1.0080 ; qtot   -0.682
        40           h39bf         1   UNL       h39        40     0.05012        1.0080 ; qtot   -0.632
        41           h40bf         1   UNL       h40        41     0.32822        1.0080 ; qtot   -0.303
        42           h41bf         1   UNL       h41        42     0.14965        1.0080 ; qtot   -0.154
        43           h42bf         1   UNL       h42        43     0.15364        1.0080 ; qtot    0.000

[ bonds ]
;       ai        aj funct               r               k
         1         2     1        0.141862   253678.851660    ;  uncertainty r = 0.000014, k = 2.155224
         1        28     1        0.109623   311224.914502    ;  uncertainty r = 0.000009, k = 1.869772
         1        29     1        0.109623   311224.914502    ;  uncertainty r = 0.000009, k = 1.869772
         1        30     1        0.109623   311224.914502    ;  uncertainty r = 0.000009, k = 1.869772
         2         3     1        0.136507   323816.905615    ;  uncertainty r = 0.000050, k = 4.075275
         3         4     1        0.139943   360750.843848    ;  uncertainty r = 0.000027, k = 2.985209
         3        27     1        0.139700   359434.482471    ;  uncertainty r = 0.000053, k = 6.026171
         4         5     1        0.139569   368431.384863    ;  uncertainty r = 0.000023, k = 2.148626
         4        31     1        0.108778   337840.966748    ;  uncertainty r = 0.000017, k = 0.683431
         5         6     1        0.139359   369181.562988    ;  uncertainty r = 0.000038, k = 0.898294
         5        32     1        0.108736   332092.793262    ;  uncertainty r = 0.000014, k = 1.815041
         6         7     1        0.140192   351332.451465    ;  uncertainty r = 0.000062, k = 4.936446
         6        33     1        0.108758   336732.068848    ;  uncertainty r = 0.000022, k = 2.054561
         7         8     1        0.141193   349675.552734    ;  uncertainty r = 0.000093, k = 12.621528
         7        27     1        0.140190   354976.290527    ;  uncertainty r = 0.000039, k = 4.094773
         8         9     1        0.137988   330814.533252    ;  uncertainty r = 0.000224, k = 31.605670
         8        34     1        0.102091   426736.870264    ;  uncertainty r = 0.000039, k = 5.302909
         9        10     1        0.132293   443196.890723    ;  uncertainty r = 0.000185, k = 13.473043
         9        17     1        0.143016   286566.945654    ;  uncertainty r = 0.000095, k = 10.976562
        10        11     1        0.137539   259289.788721    ;  uncertainty r = 0.000221, k = 27.333167
        11        12     1        0.136983   380120.690234    ;  uncertainty r = 0.000106, k = 13.129494
        11        18     1        0.147341   266299.291113    ;  uncertainty r = 0.000140, k = 10.421868
        12        13     1        0.137903   324759.863379    ;  uncertainty r = 0.000057, k = 6.440732
        12        35     1        0.108483   340864.892480    ;  uncertainty r = 0.000069, k = 2.329542
        13        14     1        0.137812   342777.392139    ;  uncertainty r = 0.000099, k = 5.087981
        13        17     1        0.139016   307421.187598    ;  uncertainty r = 0.000151, k = 23.940610
        14        15     1        0.138713   413349.321582    ;  uncertainty r = 0.000044, k = 11.515258
        14        36     1        0.108153   341281.147363    ;  uncertainty r = 0.000029, k = 4.725641
        15        16     1        0.136694   264650.921777    ;  uncertainty r = 0.000104, k = 21.676773
        15        37     1        0.108374   336399.652295    ;  uncertainty r = 0.000052, k = 2.763013
        16        17     1        0.133277   447135.785547    ;  uncertainty r = 0.000097, k = 11.841721
        18        19     1        0.142221   330382.215527    ;  uncertainty r = 0.000108, k = 4.226718
        18        26     1        0.138999   355014.238672    ;  uncertainty r = 0.000049, k = 4.165741
        19        20     1        0.138406   365370.174951    ;  uncertainty r = 0.000051, k = 6.484539
        19        38     1        0.108740   335079.715723    ;  uncertainty r = 0.000026, k = 2.762628
        20        21     1        0.140636   363954.065625    ;  uncertainty r = 0.000045, k = 4.520849
        20        39     1        0.108793   334157.723926    ;  uncertainty r = 0.000027, k = 0.888009
        21        22     1        0.143565   236002.166699    ;  uncertainty r = 0.000085, k = 10.251197
        21        25     1        0.141896   395442.598340    ;  uncertainty r = 0.000042, k = 7.271248
        22        23     1        0.132527   481307.910937    ;  uncertainty r = 0.000030, k = 4.804431
        22        40     1        0.108445   339950.331982    ;  uncertainty r = 0.000029, k = 2.772015
        23        24     1        0.136464   286651.243652    ;  uncertainty r = 0.000028, k = 6.362403
        24        25     1        0.137432   293777.093115    ;  uncertainty r = 0.000025, k = 8.625448
        24        41     1        0.101061   415482.921533    ;  uncertainty r = 0.000029, k = 2.943417
        25        26     1        0.139860   363187.467139    ;  uncertainty r = 0.000057, k = 4.398211
        26        42     1        0.108825   335126.984912    ;  uncertainty r = 0.000043, k = 1.321172
        27        43     1        0.108829   339135.825879    ;  uncertainty r = 0.000048, k = 3.903027

[ angles ]
;       ai        aj        ak funct           theta             cth
         1         2         3     1      109.660721      517.703029    ;  uncertainty theta = 0.000964, k = 0.067873
         2         1        28     1      108.786850      447.111627    ;  uncertainty theta = 0.001320, k = 0.026820
         2         1        29     1      108.786850      447.111627    ;  uncertainty theta = 0.001320, k = 0.026820
         2         1        30     1      108.786850      447.111627    ;  uncertainty theta = 0.001320, k = 0.026820
         2         3         4     1      119.910110      425.462479    ;  uncertainty theta = 0.003914, k = 0.051571
         2         3        27     1      118.666222      438.406091    ;  uncertainty theta = 0.003654, k = 0.091978
         3         4         5     1      117.835938      525.539410    ;  uncertainty theta = 0.002750, k = 0.034132
         3         4        31     1      119.962692      271.354802    ;  uncertainty theta = 0.002856, k = 0.050287
         3        27         7     1      119.044968      509.136733    ;  uncertainty theta = 0.004951, k = 0.096311
         3        27        43     1      120.414795      275.360553    ;  uncertainty theta = 0.000880, k = 0.066743
         4         3        27     1      121.339966      372.877964    ;  uncertainty theta = 0.007270, k = 0.087012
         4         5         6     1      121.557495      508.795589    ;  uncertainty theta = 0.002826, k = 0.051142
         4         5        32     1      119.983032      279.390533    ;  uncertainty theta = 0.000866, k = 0.060714
         5         4        31     1      121.259277      286.038289    ;  uncertainty theta = 0.002551, k = 0.013076
         5         6         7     1      118.403458      514.885775    ;  uncertainty theta = 0.002192, k = 0.080646
         5         6        33     1      121.263931      308.937192    ;  uncertainty theta = 0.002265, k = 0.045208
         6         5        32     1      119.801926      278.252440    ;  uncertainty theta = 0.001209, k = 0.050935
         6         7         8     1      120.425598      530.269809    ;  uncertainty theta = 0.002335, k = 0.097846
         6         7        27     1      120.641846      365.980646    ;  uncertainty theta = 0.005695, k = 0.078156
         7         6        33     1      119.369179      274.497623    ;  uncertainty theta = 0.000810, k = 0.047864
         7         8         9     1      116.453812      382.619254    ;  uncertainty theta = 0.003061, k = 0.203433
         7         8        34     1      114.201073      361.687698    ;  uncertainty theta = 0.005565, k = 0.273892
         7        27        43     1      119.776443      272.003509    ;  uncertainty theta = 0.002609, k = 0.043646
         8         7        27     1      119.939720      534.989098    ;  uncertainty theta = 0.003932, k = 0.122553
         8         9        10     1      122.095291      743.931110    ;  uncertainty theta = 0.005977, k = 0.187403
         8         9        17     1      118.339050      493.433486    ;  uncertainty theta = 0.006804, k = 0.121644
         9         8        34     1      117.061234      430.294771    ;  uncertainty theta = 0.006370, k = 0.198641
         9        10        11     1      121.081543      436.533806    ;  uncertainty theta = 0.009425, k = 0.261818
         9        17        13     1      111.142784      333.997874    ;  uncertainty theta = 0.012736, k = 0.456017
         9        17        16     1      125.515465      293.447945    ;  uncertainty theta = 0.008643, k = 0.324339
        10         9        17     1      122.405640      559.409789    ;  uncertainty theta = 0.006101, k = 0.247559
        10        11        12     1      124.529945      546.825995    ;  uncertainty theta = 0.003188, k = 0.249818
        10        11        18     1      117.266068      449.509754    ;  uncertainty theta = 0.001673, k = 0.093555
        11        12        13     1      117.545448      533.201245    ;  uncertainty theta = 0.004801, k = 0.198048
        11        12        35     1      124.661926      232.745215    ;  uncertainty theta = 0.008830, k = 0.220531
        11        18        19     1      119.027603      411.436892    ;  uncertainty theta = 0.003206, k = 0.096656
        11        18        26     1      119.097130      398.595621    ;  uncertainty theta = 0.002830, k = 0.193564
        12        11        18     1      121.495850      379.274084    ;  uncertainty theta = 0.004582, k = 0.073177
        12        13        14     1      129.660461      429.070873    ;  uncertainty theta = 0.002332, k = 0.325292
        12        13        17     1      117.456383      429.436979    ;  uncertainty theta = 0.007676, k = 0.177572
        13        12        35     1      117.405563      315.690512    ;  uncertainty theta = 0.003645, k = 0.141950
        13        14        15     1      105.324829      767.668044    ;  uncertainty theta = 0.004981, k = 0.189091
        13        14        36     1      119.539230      282.399762    ;  uncertainty theta = 0.002926, k = 0.163945
        13        17        16     1      114.523727      791.406958    ;  uncertainty theta = 0.003446, k = 0.159720
        14        13        17     1      106.195152      846.636320    ;  uncertainty theta = 0.003800, k = 0.266753
        14        15        16     1      111.223167      865.900238    ;  uncertainty theta = 0.003390, k = 0.157111
        14        15        37     1      125.339600      238.965624    ;  uncertainty theta = 0.004247, k = 0.092338
        15        14        36     1      130.781433      240.351858    ;  uncertainty theta = 0.003259, k = 0.025087
        15        16        17     1      106.065872      820.721453    ;  uncertainty theta = 0.001716, k = 0.145916
        16        15        37     1      119.156937      297.238833    ;  uncertainty theta = 0.004129, k = 0.152925
        18        19        20     1      123.016739      525.733939    ;  uncertainty theta = 0.003070, k = 0.077649
        18        19        38     1      117.874733      272.056881    ;  uncertainty theta = 0.003138, k = 0.063286
        18        26        25     1      116.866013      520.760715    ;  uncertainty theta = 0.004532, k = 0.170114
        18        26        42     1      119.930405      268.313652    ;  uncertainty theta = 0.002430, k = 0.106947
        19        18        26     1      123.809654      434.126710    ;  uncertainty theta = 0.003394, k = 0.121259
        19        20        21     1      118.929970      553.342236    ;  uncertainty theta = 0.002680, k = 0.060560
        19        20        39     1      120.653542      279.974630    ;  uncertainty theta = 0.001067, k = 0.066865
        20        19        38     1      119.509888      297.701821    ;  uncertainty theta = 0.002978, k = 0.036486
        20        21        22     1      132.278717      354.679422    ;  uncertainty theta = 0.004732, k = 0.185731
        20        21        25     1      116.909569      406.929752    ;  uncertainty theta = 0.004133, k = 0.092172
        21        20        39     1      121.803482      294.188936    ;  uncertainty theta = 0.000418, k = 0.134142
        21        22        23     1      112.801369      922.850163    ;  uncertainty theta = 0.002508, k = 0.102828
        21        22        40     1      126.617455      244.294835    ;  uncertainty theta = 0.003682, k = 0.151304
        21        25        24     1      105.521873      689.300082    ;  uncertainty theta = 0.003740, k = 0.125051
        21        25        26     1      121.842789      372.926708    ;  uncertainty theta = 0.004893, k = 0.200656
        22        21        25     1      103.430092      742.155004    ;  uncertainty theta = 0.005190, k = 0.108760
        22        23        24     1      108.574791      922.564020    ;  uncertainty theta = 0.002937, k = 0.116121
        23        22        40     1      118.543495      289.957469    ;  uncertainty theta = 0.002336, k = 0.058293
        23        24        25     1      109.065674      992.744529    ;  uncertainty theta = 0.003990, k = 0.161433
        23        24        41     1      108.465378      343.985566    ;  uncertainty theta = 0.006748, k = 0.092752
        24        25        26     1      129.650360      395.528709    ;  uncertainty theta = 0.003691, k = 0.176021
        25        24        41     1      116.092773      288.358048    ;  uncertainty theta = 0.006888, k = 0.111410
        25        26        42     1      122.512741      295.371464    ;  uncertainty theta = 0.001496, k = 0.111125
        28         1        29     1      109.081810      330.154316    ;  uncertainty theta = 0.001818, k = 0.013784
        28         1        30     1      109.081810      330.154316    ;  uncertainty theta = 0.001818, k = 0.013784
        29         1        30     1      109.081810      330.154316    ;  uncertainty theta = 0.001818, k = 0.013784

[ dihedrals ] ; propers for gromacs 4.5 or higher, use funct 9
;       ai        aj        ak        al funct           phase               k        pn
         1         2         3         4     9        0.000000        0.556292         1    ;  uncertainty k = 0.469080
         1         2         3         4     9      180.000000        7.675658         2    ;  uncertainty k = 0.053161
         1         2         3         4     9        0.000000        0.691444         3    ;  uncertainty k = 0.082513
         1         2         3         4     9      180.000000        0.281800         4    ;  uncertainty k = 0.040109
         1         2         3        27     9        0.000000        0.131646         1    ;  uncertainty k = 0.876869
         1         2         3        27     9      180.000000        7.649692         2    ;  uncertainty k = 0.165783
         1         2         3        27     9        0.000000        0.461716         3    ;  uncertainty k = 0.211485
         1         2         3        27     9      180.000000        0.296794         4    ;  uncertainty k = 0.080506
         2         3         4         5     9        0.000000       -0.006895         1    ;  uncertainty k = 0.306557
         2         3         4         5     9      180.000000       10.237930         2    ;  uncertainty k = 0.530131
         2         3         4         5     9        0.000000        1.148613         3    ;  uncertainty k = 0.273729
         2         3         4         5     9      180.000000        1.585530         4    ;  uncertainty k = 0.129937
         2         3         4        31     9        0.000000       -0.112804         1    ;  uncertainty k = 0.136517
         2         3         4        31     9      180.000000        8.158840         2    ;  uncertainty k = 0.277675
         2         3         4        31     9        0.000000        0.691046         3    ;  uncertainty k = 0.134648
         2         3         4        31     9      180.000000        0.954372         4    ;  uncertainty k = 0.178582
         2         3        27         7     9        0.000000        0.076488         1    ;  uncertainty k = 0.252995
         2         3        27         7     9      180.000000       10.188681         2    ;  uncertainty k = 0.612282
         2         3        27         7     9        0.000000        1.277106         3    ;  uncertainty k = 0.394601
         2         3        27         7     9      180.000000        1.576988         4    ;  uncertainty k = 0.217861
         2         3        27        43     9        0.000000       -0.050452         1    ;  uncertainty k = 0.167499
         2         3        27        43     9      180.000000        8.586659         2    ;  uncertainty k = 0.305393
         2         3        27        43     9        0.000000        0.749159         3    ;  uncertainty k = 0.118853
         2         3        27        43     9      180.000000        1.100420         4    ;  uncertainty k = 0.093743
         3         2         1        28     9        0.000000        0.665072         1    ;  uncertainty k = 0.162217
         3         2         1        28     9      180.000000       -1.445301         2    ;  uncertainty k = 0.170586
         3         2         1        28     9        0.000000        0.941866         3    ;  uncertainty k = 0.041193
         3         2         1        28     9      180.000000        0.282926         4    ;  uncertainty k = 0.046764
         3         2         1        29     9        0.000000        0.665072         1    ;  uncertainty k = 0.162217
         3         2         1        29     9      180.000000       -1.445301         2    ;  uncertainty k = 0.170586
         3         2         1        29     9        0.000000        0.941866         3    ;  uncertainty k = 0.041193
         3         2         1        29     9      180.000000        0.282926         4    ;  uncertainty k = 0.046764
         3         2         1        30     9        0.000000        0.665072         1    ;  uncertainty k = 0.162217
         3         2         1        30     9      180.000000       -1.445301         2    ;  uncertainty k = 0.170586
         3         2         1        30     9        0.000000        0.941866         3    ;  uncertainty k = 0.041193
         3         2         1        30     9      180.000000        0.282926         4    ;  uncertainty k = 0.046764
         3         4         5         6     9        0.000000       -0.146267         1    ;  uncertainty k = 0.258572
         3         4         5         6     9      180.000000       14.676945         2    ;  uncertainty k = 0.396453
         3         4         5         6     9        0.000000       -1.003038         3    ;  uncertainty k = 0.393388
         3         4         5         6     9      180.000000        0.714780         4    ;  uncertainty k = 0.221767
         3         4         5        32     9        0.000000       -0.036908         1    ;  uncertainty k = 0.177033
         3         4         5        32     9      180.000000        7.872153         2    ;  uncertainty k = 0.384363
         3         4         5        32     9        0.000000        1.273385         3    ;  uncertainty k = 0.313276
         3         4         5        32     9      180.000000        1.666974         4    ;  uncertainty k = 0.141099
         3        27         7         6     9        0.000000        0.014787         1    ;  uncertainty k = 0.093375
         3        27         7         6     9      180.000000        9.290067         2    ;  uncertainty k = 0.560469
         3        27         7         6     9        0.000000        0.180142         3    ;  uncertainty k = 0.274268
         3        27         7         6     9      180.000000        1.312994         4    ;  uncertainty k = 0.182742
         3        27         7         8     9        0.000000        0.063841         1    ;  uncertainty k = 0.479686
         3        27         7         8     9      180.000000       10.570670         2    ;  uncertainty k = 0.353673
         3        27         7         8     9        0.000000        1.027344         3    ;  uncertainty k = 0.264182
         3        27         7         8     9      180.000000        1.539468         4    ;  uncertainty k = 0.107906
         4         3        27         7     9        0.000000       -0.023950         1    ;  uncertainty k = 0.204906
         4         3        27         7     9      180.000000        9.192176         2    ;  uncertainty k = 0.559664
         4         3        27         7     9        0.000000        0.155322         3    ;  uncertainty k = 0.423871
         4         3        27         7     9      180.000000        1.256285         4    ;  uncertainty k = 0.379715
         4         3        27        43     9        0.000000        0.310720         1    ;  uncertainty k = 0.392499
         4         3        27        43     9      180.000000        6.292640         2    ;  uncertainty k = 0.419817
         4         3        27        43     9        0.000000        1.513578         3    ;  uncertainty k = 0.304379
         4         3        27        43     9      180.000000        1.647891         4    ;  uncertainty k = 0.089300
         4         5         6         7     9        0.000000       -0.219696         1    ;  uncertainty k = 0.309973
         4         5         6         7     9      180.000000       14.378880         2    ;  uncertainty k = 0.258128
         4         5         6         7     9        0.000000       -0.870645         3    ;  uncertainty k = 0.399520
         4         5         6         7     9      180.000000        0.746430         4    ;  uncertainty k = 0.342034
         4         5         6        33     9        0.000000        0.089067         1    ;  uncertainty k = 0.073819
         4         5         6        33     9      180.000000        8.152156         2    ;  uncertainty k = 0.416751
         4         5         6        33     9        0.000000        1.478849         3    ;  uncertainty k = 0.280217
         4         5         6        33     9      180.000000        1.907613         4    ;  uncertainty k = 0.157097
         5         4         3        27     9        0.000000       -0.123001         1    ;  uncertainty k = 0.133063
         5         4         3        27     9      180.000000        9.414913         2    ;  uncertainty k = 0.514306
         5         4         3        27     9        0.000000        0.055889         3    ;  uncertainty k = 0.425263
         5         4         3        27     9      180.000000        1.206296         4    ;  uncertainty k = 0.284264
         5         6         7         8     9        0.000000       -0.009510         1    ;  uncertainty k = 0.335382
         5         6         7         8     9      180.000000        9.674644         2    ;  uncertainty k = 0.443509
         5         6         7         8     9        0.000000        1.022801         3    ;  uncertainty k = 0.296299
         5         6         7         8     9      180.000000        1.598807         4    ;  uncertainty k = 0.187802
         5         6         7        27     9        0.000000       -0.143878         1    ;  uncertainty k = 0.167939
         5         6         7        27     9      180.000000        9.444810         2    ;  uncertainty k = 0.354627
         5         6         7        27     9        0.000000        0.001491         3    ;  uncertainty k = 0.286601
         5         6         7        27     9      180.000000        1.260424         4    ;  uncertainty k = 0.198340
         6         5         4        31     9        0.000000        0.188238         1    ;  uncertainty k = 0.121415
         6         5         4        31     9      180.000000        7.645341         2    ;  uncertainty k = 0.290327
         6         5         4        31     9        0.000000        1.524762         3    ;  uncertainty k = 0.314264
         6         5         4        31     9      180.000000        1.853154         4    ;  uncertainty k = 0.112683
         6         7         8         9     9        0.000000        1.249276         1    ;  uncertainty k = 0.679569
         6         7         8         9     9      180.000000        6.023910         2    ;  uncertainty k = 0.171450
         6         7         8         9     9        0.000000        0.923724         3    ;  uncertainty k = 0.234539
         6         7         8         9     9      180.000000        0.184274         4    ;  uncertainty k = 0.148949
         6         7         8        34     9        0.000000        2.432796         1    ;  uncertainty k = 0.417181
         6         7         8        34     9      180.000000        5.069325         2    ;  uncertainty k = 0.282839
         6         7         8        34     9        0.000000        0.602220         3    ;  uncertainty k = 0.168134
         6         7         8        34     9      180.000000        0.380084         4    ;  uncertainty k = 0.077182
         6         7        27        43     9        0.000000        0.268847         1    ;  uncertainty k = 0.399975
         6         7        27        43     9      180.000000        6.698493         2    ;  uncertainty k = 0.540225
         6         7        27        43     9        0.000000        1.323269         3    ;  uncertainty k = 0.243690
         6         7        27        43     9      180.000000        1.532578         4    ;  uncertainty k = 0.167391
         7         6         5        32     9        0.000000       -0.126976         1    ;  uncertainty k = 0.182725
         7         6         5        32     9      180.000000        7.870052         2    ;  uncertainty k = 0.389391
         7         6         5        32     9        0.000000        1.238998         3    ;  uncertainty k = 0.320394
         7         6         5        32     9      180.000000        1.642081         4    ;  uncertainty k = 0.135393
         7         8         9        10     9        0.000000        4.146992         1    ;  uncertainty k = 1.376812
         7         8         9        10     9      180.000000       10.725634         2    ;  uncertainty k = 0.230700
         7         8         9        10     9        0.000000        0.654763         3    ;  uncertainty k = 0.293124
         7         8         9        10     9      180.000000       -0.531685         4    ;  uncertainty k = 0.086314
         7         8         9        17     9        0.000000        6.888419         1    ;  uncertainty k = 0.599271
         7         8         9        17     9      180.000000        8.489844         2    ;  uncertainty k = 0.090570
         7         8         9        17     9        0.000000        0.895505         3    ;  uncertainty k = 0.406157
         7         8         9        17     9      180.000000       -0.142823         4    ;  uncertainty k = 0.240576
         8         7         6        33     9        0.000000       -0.237582         1    ;  uncertainty k = 0.257928
         8         7         6        33     9      180.000000        8.017793         2    ;  uncertainty k = 0.299528
         8         7         6        33     9        0.000000        0.910066         3    ;  uncertainty k = 0.204729
         8         7         6        33     9      180.000000        1.077797         4    ;  uncertainty k = 0.122369
         8         7        27        43     9        0.000000       -0.254289         1    ;  uncertainty k = 0.338073
         8         7        27        43     9      180.000000        8.230913         2    ;  uncertainty k = 0.296972
         8         7        27        43     9        0.000000        0.921449         3    ;  uncertainty k = 0.264485
         8         7        27        43     9      180.000000        1.072217         4    ;  uncertainty k = 0.154787
         8         9        10        11     9        0.000000        1.096110         1    ;  uncertainty k = 1.057276
         8         9        10        11     9      180.000000       18.030113         2    ;  uncertainty k = 0.463660
         8         9        10        11     9        0.000000        2.915695         3    ;  uncertainty k = 0.293653
         8         9        10        11     9      180.000000        1.658748         4    ;  uncertainty k = 0.299267
         8         9        17        13     9        0.000000       -0.953521         1    ;  uncertainty k = 0.960773
         8         9        17        13     9      180.000000        5.426484         2    ;  uncertainty k = 0.732995
         8         9        17        13     9        0.000000        0.463830         3    ;  uncertainty k = 0.276199
         8         9        17        13     9      180.000000        0.425034         4    ;  uncertainty k = 0.145521
         8         9        17        16     9        0.000000       -0.723785         1    ;  uncertainty k = 0.708754
         8         9        17        16     9      180.000000        4.584249         2    ;  uncertainty k = 1.077484
         8         9        17        16     9        0.000000        0.569780         3    ;  uncertainty k = 0.418446
         8         9        17        16     9      180.000000        0.322209         4    ;  uncertainty k = 0.225420
         9         8         7        27     9        0.000000        1.158423         1    ;  uncertainty k = 0.865418
         9         8         7        27     9      180.000000        6.080439         2    ;  uncertainty k = 0.132685
         9         8         7        27     9        0.000000        0.908520         3    ;  uncertainty k = 0.232965
         9         8         7        27     9      180.000000        0.191609         4    ;  uncertainty k = 0.170026
         9        10        11        12     9        0.000000        1.017504         1    ;  uncertainty k = 1.516360
         9        10        11        12     9      180.000000        5.410036         2    ;  uncertainty k = 1.406424
         9        10        11        12     9        0.000000        1.183504         3    ;  uncertainty k = 0.850444
         9        10        11        12     9      180.000000        0.501686         4    ;  uncertainty k = 0.531969
         9        10        11        18     9        0.000000        1.001242         1    ;  uncertainty k = 1.290635
         9        10        11        18     9      180.000000        8.728254         2    ;  uncertainty k = 0.911473
         9        10        11        18     9        0.000000        1.568762         3    ;  uncertainty k = 0.631592
         9        10        11        18     9      180.000000        0.401595         4    ;  uncertainty k = 0.332617
         9        17        13        12     9        0.000000       -0.065679         1    ;  uncertainty k = 0.930309
         9        17        13        12     9      180.000000        5.131901         2    ;  uncertainty k = 1.526753
         9        17        13        12     9        0.000000        1.363593         3    ;  uncertainty k = 0.467515
         9        17        13        12     9      180.000000        0.395973         4    ;  uncertainty k = 0.312049
         9        17        13        14     9        0.000000        0.340421         1    ;  uncertainty k = 0.792595
         9        17        13        14     9      180.000000        6.024515         2    ;  uncertainty k = 0.492566
         9        17        13        14     9        0.000000        0.209998         3    ;  uncertainty k = 0.527723
         9        17        13        14     9      180.000000        0.585310         4    ;  uncertainty k = 0.374830
         9        17        16        15     9        0.000000       -0.258736         1    ;  uncertainty k = 0.813751
         9        17        16        15     9      180.000000       16.417004         2    ;  uncertainty k = 0.455553
         9        17        16        15     9        0.000000        0.694004         3    ;  uncertainty k = 0.637623
         9        17        16        15     9      180.000000        1.345365         4    ;  uncertainty k = 0.597909
        10         9         8        34     9        0.000000        8.959275         1    ;  uncertainty k = 0.586751
        10         9         8        34     9      180.000000        9.660199         2    ;  uncertainty k = 0.284454
        10         9         8        34     9        0.000000        1.086795         3    ;  uncertainty k = 0.308766
        10         9         8        34     9      180.000000       -0.062018         4    ;  uncertainty k = 0.151184
        10         9        17        13     9        0.000000       -0.508120         1    ;  uncertainty k = 0.649583
        10         9        17        13     9      180.000000        6.006908         2    ;  uncertainty k = 0.721136
        10         9        17        13     9        0.000000       -0.359701         3    ;  uncertainty k = 0.319120
        10         9        17        13     9      180.000000        0.564109         4    ;  uncertainty k = 0.160688
        10         9        17        16     9        0.000000       -1.431194         1    ;  uncertainty k = 2.218090
        10         9        17        16     9      180.000000        4.468096         2    ;  uncertainty k = 0.589322
        10         9        17        16     9        0.000000        0.454907         3    ;  uncertainty k = 0.408290
        10         9        17        16     9      180.000000        0.386347         4    ;  uncertainty k = 0.295938
        10        11        12        13     9        0.000000        0.021628         1    ;  uncertainty k = 0.553837
        10        11        12        13     9      180.000000       21.308096         2    ;  uncertainty k = 0.618902
        10        11        12        13     9        0.000000        0.542129         3    ;  uncertainty k = 0.330363
        10        11        12        13     9      180.000000        0.532400         4    ;  uncertainty k = 0.522570
        10        11        12        35     9        0.000000        0.413530         1    ;  uncertainty k = 1.053393
        10        11        12        35     9      180.000000       12.778725         2    ;  uncertainty k = 0.373644
        10        11        12        35     9        0.000000        1.633797         3    ;  uncertainty k = 0.611850
        10        11        12        35     9      180.000000        1.088488         4    ;  uncertainty k = 0.439227
        10        11        18        19     9        0.000000       -0.628626         1    ;  uncertainty k = 1.518760
        10        11        18        19     9      180.000000        5.052242         2    ;  uncertainty k = 0.325806
        10        11        18        19     9        0.000000        0.583181         3    ;  uncertainty k = 0.127910
        10        11        18        19     9      180.000000        0.120920         4    ;  uncertainty k = 0.102121
        10        11        18        26     9        0.000000       -0.766604         1    ;  uncertainty k = 0.919108
        10        11        18        26     9      180.000000        4.899228         2    ;  uncertainty k = 0.217939
        10        11        18        26     9        0.000000        0.251595         3    ;  uncertainty k = 0.135564
        10        11        18        26     9      180.000000        0.082027         4    ;  uncertainty k = 0.123430
        11        10         9        17     9        0.000000       -0.097990         1    ;  uncertainty k = 2.188335
        11        10         9        17     9      180.000000       13.736996         2    ;  uncertainty k = 0.596844
        11        10         9        17     9        0.000000        2.511290         3    ;  uncertainty k = 0.854062
        11        10         9        17     9      180.000000        1.344029         4    ;  uncertainty k = 0.393277
        11        12        13        14     9        0.000000        0.387181         1    ;  uncertainty k = 1.514247
        11        12        13        14     9      180.000000        4.670308         2    ;  uncertainty k = 0.661014
        11        12        13        14     9        0.000000        0.721864         3    ;  uncertainty k = 0.341868
        11        12        13        14     9      180.000000        0.327281         4    ;  uncertainty k = 0.086812
        11        12        13        17     9        0.000000       -0.099694         1    ;  uncertainty k = 1.661026
        11        12        13        17     9      180.000000        6.351588         2    ;  uncertainty k = 0.533147
        11        12        13        17     9        0.000000       -0.869395         3    ;  uncertainty k = 0.839908
        11        12        13        17     9      180.000000        0.595359         4    ;  uncertainty k = 0.141779
        11        18        19        20     9        0.000000        0.068897         1    ;  uncertainty k = 0.215292
        11        18        19        20     9      180.000000        7.691152         2    ;  uncertainty k = 0.666200
        11        18        19        20     9        0.000000        1.290426         3    ;  uncertainty k = 0.312196
        11        18        19        20     9      180.000000        1.752418         4    ;  uncertainty k = 0.200484
        11        18        19        38     9        0.000000       -0.141044         1    ;  uncertainty k = 0.221408
        11        18        19        38     9      180.000000        6.709611         2    ;  uncertainty k = 0.380861
        11        18        19        38     9        0.000000        0.642981         3    ;  uncertainty k = 0.210089
        11        18        19        38     9      180.000000        1.030651         4    ;  uncertainty k = 0.217591
        11        18        26        25     9        0.000000        0.000207         1    ;  uncertainty k = 0.464893
        11        18        26        25     9      180.000000       11.593241         2    ;  uncertainty k = 0.463797
        11        18        26        25     9        0.000000        1.506096         3    ;  uncertainty k = 0.271513
        11        18        26        25     9      180.000000        1.554865         4    ;  uncertainty k = 0.288141
        11        18        26        42     9        0.000000       -0.122720         1    ;  uncertainty k = 0.281943
        11        18        26        42     9      180.000000        7.836517         2    ;  uncertainty k = 0.236328
        11        18        26        42     9        0.000000        0.688202         3    ;  uncertainty k = 0.200003
        11        18        26        42     9      180.000000        1.091534         4    ;  uncertainty k = 0.143245
        12        11        18        19     9        0.000000       -0.057218         1    ;  uncertainty k = 0.349503
        12        11        18        19     9      180.000000        3.916624         2    ;  uncertainty k = 0.545493
        12        11        18        19     9        0.000000        0.619050         3    ;  uncertainty k = 0.176087
        12        11        18        19     9      180.000000       -0.314910         4    ;  uncertainty k = 0.160497
        12        11        18        26     9        0.000000        0.027964         1    ;  uncertainty k = 0.248734
        12        11        18        26     9      180.000000        3.790324         2    ;  uncertainty k = 0.442273
        12        11        18        26     9        0.000000        0.910899         3    ;  uncertainty k = 0.183968
        12        11        18        26     9      180.000000       -0.341866         4    ;  uncertainty k = 0.189715
        12        13        14        15     9        0.000000        0.238879         1    ;  uncertainty k = 1.268059
        12        13        14        15     9      180.000000        9.618342         2    ;  uncertainty k = 0.775422
        12        13        14        15     9        0.000000        0.407411         3    ;  uncertainty k = 0.759266
        12        13        14        15     9      180.000000        0.559103         4    ;  uncertainty k = 0.314044
        12        13        14        36     9        0.000000        0.591128         1    ;  uncertainty k = 1.266310
        12        13        14        36     9      180.000000        2.793743         2    ;  uncertainty k = 1.401654
        12        13        14        36     9        0.000000        1.235888         3    ;  uncertainty k = 0.395832
        12        13        14        36     9      180.000000        0.135474         4    ;  uncertainty k = 0.120547
        12        13        17        16     9        0.000000        0.318033         1    ;  uncertainty k = 0.549936
        12        13        17        16     9      180.000000        8.739854         2    ;  uncertainty k = 0.549403
        12        13        17        16     9        0.000000        0.448820         3    ;  uncertainty k = 0.411752
        12        13        17        16     9      180.000000        0.878822         4    ;  uncertainty k = 0.217911
        13        12        11        18     9        0.000000        0.576730         1    ;  uncertainty k = 0.305749
        13        12        11        18     9      180.000000       17.337469         2    ;  uncertainty k = 0.521845
        13        12        11        18     9        0.000000        1.919282         3    ;  uncertainty k = 0.425533
        13        12        11        18     9      180.000000        0.788516         4    ;  uncertainty k = 0.297652
        13        14        15        16     9        0.000000       -0.424259         1    ;  uncertainty k = 0.720471
        13        14        15        16     9      180.000000       21.948844         2    ;  uncertainty k = 0.272817
        13        14        15        16     9        0.000000       -9.453916         3    ;  uncertainty k = 0.408148
        13        14        15        16     9      180.000000        1.578950         4    ;  uncertainty k = 0.654473
        13        14        15        37     9        0.000000        0.427383         1    ;  uncertainty k = 0.828520
        13        14        15        37     9      180.000000       13.870596         2    ;  uncertainty k = 0.182398
        13        14        15        37     9        0.000000        1.815389         3    ;  uncertainty k = 0.320274
        13        14        15        37     9      180.000000        0.903574         4    ;  uncertainty k = 0.223947
        13        17        16        15     9        0.000000       -0.698106         1    ;  uncertainty k = 0.543243
        13        17        16        15     9      180.000000       23.970051         2    ;  uncertainty k = 0.495895
        13        17        16        15     9        0.000000      -11.206153         3    ;  uncertainty k = 1.161985
        13        17        16        15     9      180.000000        1.981051         4    ;  uncertainty k = 0.603215
        14        13        12        35     9        0.000000        1.230264         1    ;  uncertainty k = 1.227408
        14        13        12        35     9      180.000000        2.935755         2    ;  uncertainty k = 1.100422
        14        13        12        35     9        0.000000        1.028872         3    ;  uncertainty k = 0.513157
        14        13        12        35     9      180.000000        0.182735         4    ;  uncertainty k = 0.171564
        14        13        17        16     9        0.000000       -0.600194         1    ;  uncertainty k = 0.427509
        14        13        17        16     9      180.000000       12.032075         2    ;  uncertainty k = 0.540572
        14        13        17        16     9        0.000000       -4.884606         3    ;  uncertainty k = 1.243656
        14        13        17        16     9      180.000000        1.176890         4    ;  uncertainty k = 0.463084
        14        15        16        17     9        0.000000       -0.719371         1    ;  uncertainty k = 0.806440
        14        15        16        17     9      180.000000       16.306391         2    ;  uncertainty k = 0.372137
        14        15        16        17     9        0.000000       -5.546726         3    ;  uncertainty k = 0.784851
        14        15        16        17     9      180.000000        2.138755         4    ;  uncertainty k = 0.319469
        15        14        13        17     9        0.000000        0.425340         1    ;  uncertainty k = 0.911889
        15        14        13        17     9      180.000000       13.121731         2    ;  uncertainty k = 1.266973
        15        14        13        17     9        0.000000      -13.119121         3    ;  uncertainty k = 1.817832
        15        14        13        17     9      180.000000        1.693366         4    ;  uncertainty k = 0.377703
        16        15        14        36     9        0.000000       -0.210816         1    ;  uncertainty k = 0.409318
        16        15        14        36     9      180.000000       14.525460         2    ;  uncertainty k = 0.474526
        16        15        14        36     9        0.000000        1.399987         3    ;  uncertainty k = 0.472591
        16        15        14        36     9      180.000000        0.597840         4    ;  uncertainty k = 0.116226
        17         9         8        34     9        0.000000        5.299478         1    ;  uncertainty k = 1.071665
        17         9         8        34     9      180.000000        6.121001         2    ;  uncertainty k = 0.320630
        17         9         8        34     9        0.000000        1.371092         3    ;  uncertainty k = 0.426496
        17         9         8        34     9      180.000000       -0.017305         4    ;  uncertainty k = 0.216320
        17        13        12        35     9        0.000000        1.226557         1    ;  uncertainty k = 1.441980
        17        13        12        35     9      180.000000        4.293775         2    ;  uncertainty k = 0.542296
        17        13        12        35     9        0.000000        1.116225         3    ;  uncertainty k = 0.349206
        17        13        12        35     9      180.000000        0.197252         4    ;  uncertainty k = 0.128616
        17        13        14        36     9        0.000000        0.337817         1    ;  uncertainty k = 0.998519
        17        13        14        36     9      180.000000        7.392009         2    ;  uncertainty k = 0.385665
        17        13        14        36     9        0.000000        1.061986         3    ;  uncertainty k = 0.365240
        17        13        14        36     9      180.000000        0.171584         4    ;  uncertainty k = 0.281011
        17        16        15        37     9        0.000000       -0.095582         1    ;  uncertainty k = 0.393923
        17        16        15        37     9      180.000000       14.177386         2    ;  uncertainty k = 0.352374
        17        16        15        37     9        0.000000        1.588169         3    ;  uncertainty k = 0.688228
        17        16        15        37     9      180.000000        0.904862         4    ;  uncertainty k = 0.448977
        18        11        12        35     9        0.000000       -0.219214         1    ;  uncertainty k = 0.332985
        18        11        12        35     9      180.000000        9.215237         2    ;  uncertainty k = 0.441043
        18        11        12        35     9        0.000000        1.515665         3    ;  uncertainty k = 0.270368
        18        11        12        35     9      180.000000        0.995306         4    ;  uncertainty k = 0.143311
        18        19        20        21     9        0.000000        0.036572         1    ;  uncertainty k = 0.331158
        18        19        20        21     9      180.000000       16.840932         2    ;  uncertainty k = 0.256778
        18        19        20        21     9        0.000000       -0.285123         3    ;  uncertainty k = 0.467322
        18        19        20        21     9      180.000000        0.632981         4    ;  uncertainty k = 0.299892
        18        19        20        39     9        0.000000       -0.036442         1    ;  uncertainty k = 0.215492
        18        19        20        39     9      180.000000        8.973969         2    ;  uncertainty k = 0.439173
        18        19        20        39     9        0.000000        1.439949         3    ;  uncertainty k = 0.248957
        18        19        20        39     9      180.000000        1.896736         4    ;  uncertainty k = 0.257135
        18        26        25        21     9        0.000000       -0.198172         1    ;  uncertainty k = 0.398265
        18        26        25        21     9      180.000000       12.419193         2    ;  uncertainty k = 0.132303
        18        26        25        21     9        0.000000       -1.380873         3    ;  uncertainty k = 0.530178
        18        26        25        21     9      180.000000        0.756409         4    ;  uncertainty k = 0.234868
        18        26        25        24     9        0.000000        0.161251         1    ;  uncertainty k = 0.187507
        18        26        25        24     9      180.000000       10.407056         2    ;  uncertainty k = 0.716704
        18        26        25        24     9        0.000000        0.894492         3    ;  uncertainty k = 0.361046
        18        26        25        24     9      180.000000        1.248653         4    ;  uncertainty k = 0.351138
        19        18        26        25     9        0.000000        0.050053         1    ;  uncertainty k = 0.216230
        19        18        26        25     9      180.000000       13.680778         2    ;  uncertainty k = 0.248895
        19        18        26        25     9        0.000000        0.002234         3    ;  uncertainty k = 0.286610
        19        18        26        25     9      180.000000        0.895120         4    ;  uncertainty k = 0.337935
        19        18        26        42     9        0.000000        0.247218         1    ;  uncertainty k = 0.158863
        19        18        26        42     9      180.000000        7.919297         2    ;  uncertainty k = 0.573084
        19        18        26        42     9        0.000000        1.544085         3    ;  uncertainty k = 0.138737
        19        18        26        42     9      180.000000        1.705629         4    ;  uncertainty k = 0.254640
        19        20        21        22     9        0.000000        0.312960         1    ;  uncertainty k = 0.413870
        19        20        21        22     9      180.000000        8.161813         2    ;  uncertainty k = 0.408100
        19        20        21        22     9        0.000000        0.680187         3    ;  uncertainty k = 0.316207
        19        20        21        22     9      180.000000        1.318401         4    ;  uncertainty k = 0.118210
        19        20        21        25     9        0.000000        0.024027         1    ;  uncertainty k = 0.234713
        19        20        21        25     9      180.000000       13.393022         2    ;  uncertainty k = 0.123364
        19        20        21        25     9        0.000000       -1.965306         3    ;  uncertainty k = 0.693199
        19        20        21        25     9      180.000000        0.688655         4    ;  uncertainty k = 0.252291
        20        19        18        26     9        0.000000       -0.064850         1    ;  uncertainty k = 0.238097
        20        19        18        26     9      180.000000        8.627471         2    ;  uncertainty k = 0.426027
        20        19        18        26     9        0.000000       -0.116894         3    ;  uncertainty k = 0.347151
        20        19        18        26     9      180.000000        1.107068         4    ;  uncertainty k = 0.235544
        20        21        22        23     9        0.000000        0.545700         1    ;  uncertainty k = 0.710680
        20        21        22        23     9      180.000000        7.153059         2    ;  uncertainty k = 0.604346
        20        21        22        23     9        0.000000       -0.042578         3    ;  uncertainty k = 0.385672
        20        21        22        23     9      180.000000        1.038496         4    ;  uncertainty k = 0.212607
        20        21        22        40     9        0.000000        0.564420         1    ;  uncertainty k = 0.984440
        20        21        22        40     9      180.000000        3.627038         2    ;  uncertainty k = 0.844669
        20        21        22        40     9        0.000000        1.294258         3    ;  uncertainty k = 0.243708
        20        21        22        40     9      180.000000        0.092482         4    ;  uncertainty k = 0.127683
        20        21        25        24     9        0.000000       -0.063131         1    ;  uncertainty k = 0.386313
        20        21        25        24     9      180.000000        8.412510         2    ;  uncertainty k = 0.121050
        20        21        25        24     9        0.000000       -0.287403         3    ;  uncertainty k = 0.440323
        20        21        25        24     9      180.000000        1.255913         4    ;  uncertainty k = 0.401647
        20        21        25        26     9        0.000000       -0.562856         1    ;  uncertainty k = 0.745394
        20        21        25        26     9      180.000000        7.458514         2    ;  uncertainty k = 0.459216
        20        21        25        26     9        0.000000        0.136454         3    ;  uncertainty k = 0.199056
        20        21        25        26     9      180.000000        1.050165         4    ;  uncertainty k = 0.325664
        21        20        19        38     9        0.000000        0.020909         1    ;  uncertainty k = 0.300364
        21        20        19        38     9      180.000000       11.611134         2    ;  uncertainty k = 0.328467
        21        20        19        38     9        0.000000        1.514345         3    ;  uncertainty k = 0.287097
        21        20        19        38     9      180.000000        1.729218         4    ;  uncertainty k = 0.314044
        21        22        23        24     9        0.000000       -0.120151         1    ;  uncertainty k = 0.731967
        21        22        23        24     9      180.000000       26.305453         2    ;  uncertainty k = 0.190420
        21        22        23        24     9        0.000000       -5.118996         3    ;  uncertainty k = 1.092190
        21        22        23        24     9      180.000000        1.921339         4    ;  uncertainty k = 0.544336
        21        25        24        23     9        0.000000        0.445886         1    ;  uncertainty k = 0.538506
        21        25        24        23     9      180.000000       17.377660         2    ;  uncertainty k = 0.937306
        21        25        24        23     9        0.000000       -8.620326         3    ;  uncertainty k = 1.375363
        21        25        24        23     9      180.000000        0.798738         4    ;  uncertainty k = 0.449853
        21        25        24        41     9        0.000000        4.597757         1    ;  uncertainty k = 2.148015
        21        25        24        41     9      180.000000        5.842092         2    ;  uncertainty k = 1.205206
        21        25        24        41     9        0.000000        1.417089         3    ;  uncertainty k = 0.198827
        21        25        24        41     9      180.000000        0.079654         4    ;  uncertainty k = 0.179784
        21        25        26        42     9        0.000000        0.013418         1    ;  uncertainty k = 0.418706
        21        25        26        42     9      180.000000        6.790814         2    ;  uncertainty k = 1.175804
        21        25        26        42     9        0.000000        1.352570         3    ;  uncertainty k = 0.132010
        21        25        26        42     9      180.000000        1.195216         4    ;  uncertainty k = 0.438465
        22        21        20        39     9        0.000000        0.217395         1    ;  uncertainty k = 0.480879
        22        21        20        39     9      180.000000        5.634350         2    ;  uncertainty k = 0.518608
        22        21        20        39     9        0.000000        1.012531         3    ;  uncertainty k = 0.158569
        22        21        20        39     9      180.000000        0.531503         4    ;  uncertainty k = 0.245181
        22        21        25        24     9        0.000000       -0.643775         1    ;  uncertainty k = 0.381050
        22        21        25        24     9      180.000000       11.992310         2    ;  uncertainty k = 0.969249
        22        21        25        24     9        0.000000       -3.882657         3    ;  uncertainty k = 1.450461
        22        21        25        24     9      180.000000        1.660888         4    ;  uncertainty k = 0.668480
        22        21        25        26     9        0.000000        0.241076         1    ;  uncertainty k = 0.298478
        22        21        25        26     9      180.000000        6.850321         2    ;  uncertainty k = 0.103680
        22        21        25        26     9        0.000000        0.207085         3    ;  uncertainty k = 0.461047
        22        21        25        26     9      180.000000        1.308351         4    ;  uncertainty k = 0.339157
        22        23        24        25     9        0.000000        0.010606         1    ;  uncertainty k = 0.662711
        22        23        24        25     9      180.000000       18.143360         2    ;  uncertainty k = 0.626429
        22        23        24        25     9        0.000000       -5.124361         3    ;  uncertainty k = 1.731977
        22        23        24        25     9      180.000000        1.047797         4    ;  uncertainty k = 0.635563
        22        23        24        41     9        0.000000        4.250976         1    ;  uncertainty k = 1.972130
        22        23        24        41     9      180.000000       14.221020         2    ;  uncertainty k = 0.376681
        22        23        24        41     9        0.000000        1.503734         3    ;  uncertainty k = 1.418968
        22        23        24        41     9      180.000000       -0.516134         4    ;  uncertainty k = 0.508753
        23        22        21        25     9        0.000000        0.359306         1    ;  uncertainty k = 0.778423
        23        22        21        25     9      180.000000       13.632395         2    ;  uncertainty k = 1.052808
        23        22        21        25     9        0.000000      -12.345145         3    ;  uncertainty k = 2.648213
        23        22        21        25     9      180.000000        2.230089         4    ;  uncertainty k = 0.628089
        23        24        25        26     9        0.000000        1.000031         1    ;  uncertainty k = 0.963975
        23        24        25        26     9      180.000000        6.598532         2    ;  uncertainty k = 0.456533
        23        24        25        26     9        0.000000        0.523615         3    ;  uncertainty k = 0.549525
        23        24        25        26     9      180.000000        0.305439         4    ;  uncertainty k = 0.151087
        24        23        22        40     9        0.000000        0.518234         1    ;  uncertainty k = 0.650449
        24        23        22        40     9      180.000000       24.335930         2    ;  uncertainty k = 0.403780
        24        23        22        40     9        0.000000        1.548244         3    ;  uncertainty k = 0.953165
        24        23        22        40     9      180.000000        1.092167         4    ;  uncertainty k = 0.377302
        24        25        26        42     9        0.000000        0.314928         1    ;  uncertainty k = 0.315515
        24        25        26        42     9      180.000000        5.699468         2    ;  uncertainty k = 0.975196
        24        25        26        42     9        0.000000        1.146584         3    ;  uncertainty k = 0.270923
        24        25        26        42     9      180.000000        0.857597         4    ;  uncertainty k = 0.459903
        25        21        20        39     9        0.000000       -0.020110         1    ;  uncertainty k = 0.552058
        25        21        20        39     9      180.000000        7.540400         2    ;  uncertainty k = 0.762481
        25        21        20        39     9        0.000000        1.344634         3    ;  uncertainty k = 0.335085
        25        21        20        39     9      180.000000        1.075326         4    ;  uncertainty k = 0.499322
        25        21        22        40     9        0.000000        0.126420         1    ;  uncertainty k = 0.442510
        25        21        22        40     9      180.000000        8.054401         2    ;  uncertainty k = 0.926413
        25        21        22        40     9        0.000000        1.381881         3    ;  uncertainty k = 0.459935
        25        21        22        40     9      180.000000        0.310454         4    ;  uncertainty k = 0.234121
        26        18        19        38     9        0.000000       -0.091765         1    ;  uncertainty k = 0.174121
        26        18        19        38     9      180.000000        6.129199         2    ;  uncertainty k = 0.575207
        26        18        19        38     9        0.000000        1.243235         3    ;  uncertainty k = 0.113303
        26        18        19        38     9      180.000000        1.508541         4    ;  uncertainty k = 0.244145
        26        25        24        41     9        0.000000        1.977927         1    ;  uncertainty k = 0.648831
        26        25        24        41     9      180.000000        1.587494         2    ;  uncertainty k = 0.601510
        26        25        24        41     9        0.000000        1.310226         3    ;  uncertainty k = 0.630295
        26        25        24        41     9      180.000000        0.107900         4    ;  uncertainty k = 0.145848
        27         3         4        31     9        0.000000        0.206348         1    ;  uncertainty k = 0.490703
        27         3         4        31     9      180.000000        6.046065         2    ;  uncertainty k = 0.521787
        27         3         4        31     9        0.000000        1.396004         3    ;  uncertainty k = 0.259886
        27         3         4        31     9      180.000000        1.558412         4    ;  uncertainty k = 0.131191
        27         7         6        33     9        0.000000        0.171748         1    ;  uncertainty k = 0.324307
        27         7         6        33     9      180.000000        6.670760         2    ;  uncertainty k = 0.767389
        27         7         6        33     9        0.000000        1.304211         3    ;  uncertainty k = 0.288601
        27         7         6        33     9      180.000000        1.528911         4    ;  uncertainty k = 0.141011
        27         7         8        34     9        0.000000        4.106077         1    ;  uncertainty k = 0.454305
        27         7         8        34     9      180.000000        4.961944         2    ;  uncertainty k = 0.223910
        27         7         8        34     9        0.000000        0.653643         3    ;  uncertainty k = 0.172489
        27         7         8        34     9      180.000000        0.375670         4    ;  uncertainty k = 0.133877
        31         4         5        32     9        0.000000       -0.080781         1    ;  uncertainty k = 0.157873
        31         4         5        32     9      180.000000        7.347823         2    ;  uncertainty k = 0.438157
        31         4         5        32     9        0.000000       -0.346603         3    ;  uncertainty k = 0.246797
        31         4         5        32     9      180.000000        0.094908         4    ;  uncertainty k = 0.151726
        32         5         6        33     9        0.000000       -0.118530         1    ;  uncertainty k = 0.327020
        32         5         6        33     9      180.000000        7.595672         2    ;  uncertainty k = 0.419245
        32         5         6        33     9        0.000000       -0.404560         3    ;  uncertainty k = 0.295512
        32         5         6        33     9      180.000000        0.200232         4    ;  uncertainty k = 0.146342
        36        14        15        37     9        0.000000       -0.311075         1    ;  uncertainty k = 0.492453
        36        14        15        37     9      180.000000        5.384359         2    ;  uncertainty k = 0.598234
        36        14        15        37     9        0.000000        1.243313         3    ;  uncertainty k = 0.430720
        36        14        15        37     9      180.000000        0.271791         4    ;  uncertainty k = 0.092255
        38        19        20        39     9        0.000000       -0.250847         1    ;  uncertainty k = 0.196331
        38        19        20        39     9      180.000000        8.235112         2    ;  uncertainty k = 0.381562
        38        19        20        39     9        0.000000       -0.155117         3    ;  uncertainty k = 0.220769
        38        19        20        39     9      180.000000        0.305847         4    ;  uncertainty k = 0.262587

[ dihedrals ] ; impropers
;       ai        aj        ak        al funct           phase               k        pn
         3         2         4        27     4      180.000000       20.230719         2    ;  uncertainty k = 0.110473
         3         4        27         2     4      180.000000       20.230719         2    ;  uncertainty k = 0.110473
         3        27         2         4     4      180.000000       20.230719         2    ;  uncertainty k = 0.110473
         4         3         5        31     4      180.000000        1.471545         2    ;  uncertainty k = 0.731261
         4         5        31         3     4      180.000000        1.471545         2    ;  uncertainty k = 0.731261
         4        31         3         5     4      180.000000        1.471545         2    ;  uncertainty k = 0.731261
         5         4         6        32     4      180.000000        4.636249         2    ;  uncertainty k = 0.163710
         5         6        32         4     4      180.000000        4.636249         2    ;  uncertainty k = 0.163710
         5        32         4         6     4      180.000000        4.636249         2    ;  uncertainty k = 0.163710
         6         5         7        33     4      180.000000        2.423709         2    ;  uncertainty k = 0.433387
         6         7        33         5     4      180.000000        2.423709         2    ;  uncertainty k = 0.433387
         6        33         5         7     4      180.000000        2.423709         2    ;  uncertainty k = 0.433387
         7         6         8        27     4      180.000000       19.283770         2    ;  uncertainty k = 0.061568
         7         8        27         6     4      180.000000       19.283770         2    ;  uncertainty k = 0.061568
         7        27         6         8     4      180.000000       19.283770         2    ;  uncertainty k = 0.061568
         8         7         9        34     4      180.000000        1.661607         2    ;  uncertainty k = 0.675362
         8         9        34         7     4      180.000000        1.661607         2    ;  uncertainty k = 0.675362
         8        34         7         9     4      180.000000        1.661607         2    ;  uncertainty k = 0.675362
         9         8        10        17     4      180.000000       28.362352         2    ;  uncertainty k = 0.062990
         9        10        17         8     4      180.000000       28.362352         2    ;  uncertainty k = 0.062990
         9        17         8        10     4      180.000000       28.362352         2    ;  uncertainty k = 0.062990
        11        10        12        18     4      180.000000       19.200791         2    ;  uncertainty k = 0.081082
        11        12        18        10     4      180.000000       19.200791         2    ;  uncertainty k = 0.081082
        11        18        10        12     4      180.000000       19.200791         2    ;  uncertainty k = 0.081082
        12        11        13        35     4      180.000000        1.291987         2    ;  uncertainty k = 1.146498
        12        13        35        11     4      180.000000        1.291987         2    ;  uncertainty k = 1.146498
        12        35        11        13     4      180.000000        1.291987         2    ;  uncertainty k = 1.146498
        13        12        14        17     4      180.000000        1.588086         2    ;  uncertainty k = 1.398469
        13        14        17        12     4      180.000000        1.588086         2    ;  uncertainty k = 1.398469
        13        17        12        14     4      180.000000        1.588086         2    ;  uncertainty k = 1.398469
        14        13        15        36     4      180.000000        0.105195         2    ;  uncertainty k = 0.235223
        14        15        36        13     4      180.000000        0.105195         2    ;  uncertainty k = 0.235223
        14        36        13        15     4      180.000000        0.105195         2    ;  uncertainty k = 0.235223
        15        14        16        37     4      180.000000        1.779599         2    ;  uncertainty k = 0.230150
        15        16        37        14     4      180.000000        1.779599         2    ;  uncertainty k = 0.230150
        15        37        14        16     4      180.000000        1.779599         2    ;  uncertainty k = 0.230150
        17         9        13        16     4      180.000000        2.165379         2    ;  uncertainty k = 0.627946
        17        13        16         9     4      180.000000        2.165379         2    ;  uncertainty k = 0.627946
        17        16         9        13     4      180.000000        2.165379         2    ;  uncertainty k = 0.627946
        18        11        19        26     4      180.000000       11.787880         2    ;  uncertainty k = 0.110513
        18        19        26        11     4      180.000000       11.787880         2    ;  uncertainty k = 0.110513
        18        26        11        19     4      180.000000       11.787880         2    ;  uncertainty k = 0.110513
        19        18        20        38     4      180.000000        2.954189         2    ;  uncertainty k = 0.225776
        19        20        38        18     4      180.000000        2.954189         2    ;  uncertainty k = 0.225776
        19        38        18        20     4      180.000000        2.954189         2    ;  uncertainty k = 0.225776
        20        19        21        39     4      180.000000        5.148360         2    ;  uncertainty k = 0.214210
        20        21        39        19     4      180.000000        5.148360         2    ;  uncertainty k = 0.214210
        20        39        19        21     4      180.000000        5.148360         2    ;  uncertainty k = 0.214210
        22        21        23        40     4      180.000000        1.421391         2    ;  uncertainty k = 0.357579
        22        23        40        21     4      180.000000        1.421391         2    ;  uncertainty k = 0.357579
        22        40        21        23     4      180.000000        1.421391         2    ;  uncertainty k = 0.357579
        25        21        24        26     4      180.000000        1.427407         2    ;  uncertainty k = 0.758143
        25        24        26        21     4      180.000000        1.427407         2    ;  uncertainty k = 0.758143
        25        26        21        24     4      180.000000        1.427407         2    ;  uncertainty k = 0.758143
        26        18        25        42     4      180.000000        2.575294         2    ;  uncertainty k = 0.237857
        26        25        42        18     4      180.000000        2.575294         2    ;  uncertainty k = 0.237857
        26        42        18        25     4      180.000000        2.575294         2    ;  uncertainty k = 0.237857
        27         3         7        43     4      180.000000        1.930644         2    ;  uncertainty k = 0.327935
        27         7        43         3     4      180.000000        1.930644         2    ;  uncertainty k = 0.327935
        27        43         3         7     4      180.000000        1.930644         2    ;  uncertainty k = 0.327935

[ pairs ]
;       ai        aj funct
         1         4     1
         1        27     1
         2         5     1
         2         7     1
         2        31     1
         2        43     1
         3         6     1
         3         8     1
         3        28     1
         3        29     1
         3        30     1
         3        32     1
         4         7     1
         4        33     1
         4        43     1
         5         8     1
         5        27     1
         6         9     1
         6        31     1
         6        34     1
         6        43     1
         7        10     1
         7        17     1
         7        32     1
         8        11     1
         8        13     1
         8        16     1
         8        33     1
         8        43     1
         9        12     1
         9        14     1
         9        15     1
         9        18     1
         9        27     1
        10        13     1
        10        16     1
        10        19     1
        10        26     1
        10        34     1
        10        35     1
        11        14     1
        11        17     1
        11        20     1
        11        25     1
        11        38     1
        11        42     1
        12        15     1
        12        16     1
        12        19     1
        12        26     1
        12        36     1
        13        18     1
        13        37     1
        14        35     1
        16        36     1
        17        34     1
        17        35     1
        17        36     1
        17        37     1
        18        21     1
        18        24     1
        18        35     1
        18        39     1
        19        22     1
        19        25     1
        19        42     1
        20        23     1
        20        24     1
        20        26     1
        20        40     1
        21        38     1
        21        41     1
        21        42     1
        22        26     1
        22        39     1
        22        41     1
        23        26     1
        24        40     1
        24        42     1
        25        39     1
        25        40     1
        26        38     1
        26        41     1
        27        31     1
        27        33     1
        27        34     1
        31        32     1
        32        33     1
        36        37     1
        38        39     1
