; ITP file created by ByteFF-joint-25, 2026-02-17 09:37:57.741629

[ atomtypes ]
;name           bonded.type        at.num        mass        charge   ptype           sigma         epsilon
 c0bf                                   6      0.0000       0.00000       A     3.39774e-01     4.50890e-01    ;  uncertainty sigma = 0.000006, epsilon = 0.000514
 o1bf                                   8      0.0000       0.00000       A     3.15641e-01     3.03850e-01    ;  uncertainty sigma = 0.000015, epsilon = 0.000455
 c2bf                                   6      0.0000       0.00000       A     3.31526e-01     4.13474e-01    ;  uncertainty sigma = 0.000006, epsilon = 0.000721
 c3bf                                   6      0.0000       0.00000       A     3.31529e-01     4.13640e-01    ;  uncertainty sigma = 0.000005, epsilon = 0.000792
 c4bf                                   6      0.0000       0.00000       A     3.31525e-01     4.13354e-01    ;  uncertainty sigma = 0.000006, epsilon = 0.000662
 c5bf                                   6      0.0000       0.00000       A     3.31528e-01     4.13588e-01    ;  uncertainty sigma = 0.000010, epsilon = 0.000818
 n6bf                                   7      0.0000       0.00000       A     3.27852e-01     6.46169e-01    ;  uncertainty sigma = 0.000043, epsilon = 0.003219
 c7bf                                   6      0.0000       0.00000       A     3.31526e-01     4.13887e-01    ;  uncertainty sigma = 0.000017, epsilon = 0.001682
 n8bf                                   7      0.0000       0.00000       A     3.38466e-01     3.93319e-01    ;  uncertainty sigma = 0.000031, epsilon = 0.000671
 c9bf                                   6      0.0000       0.00000       A     3.31556e-01     4.13456e-01    ;  uncertainty sigma = 0.000023, epsilon = 0.000743
 c10bf                                  6      0.0000       0.00000       A     3.31559e-01     4.13603e-01    ;  uncertainty sigma = 0.000013, epsilon = 0.001559
 n11bf                                  7      0.0000       0.00000       A     3.20547e-01     8.53303e-01    ;  uncertainty sigma = 0.000017, epsilon = 0.000844
 c12bf                                  6      0.0000       0.00000       A     3.31503e-01     4.12978e-01    ;  uncertainty sigma = 0.000012, epsilon = 0.001136
 c13bf                                  6      0.0000       0.00000       A     3.31531e-01     4.13187e-01    ;  uncertainty sigma = 0.000008, epsilon = 0.000699
 n14bf                                  7      0.0000       0.00000       A     3.38427e-01     3.92895e-01    ;  uncertainty sigma = 0.000039, epsilon = 0.000415
 c15bf                                  6      0.0000       0.00000       A     3.31554e-01     4.12537e-01    ;  uncertainty sigma = 0.000015, epsilon = 0.000432
 c16bf                                  6      0.0000       0.00000       A     3.31506e-01     4.13271e-01    ;  uncertainty sigma = 0.000014, epsilon = 0.000878
 c17bf                                  6      0.0000       0.00000       A     3.31521e-01     4.13297e-01    ;  uncertainty sigma = 0.000006, epsilon = 0.000668
 c18bf                                  6      0.0000       0.00000       A     3.31516e-01     4.13332e-01    ;  uncertainty sigma = 0.000003, epsilon = 0.000561
 c19bf                                  6      0.0000       0.00000       A     3.31522e-01     4.13424e-01    ;  uncertainty sigma = 0.000004, epsilon = 0.000558
 c20bf                                  6      0.0000       0.00000       A     3.31499e-01     4.13171e-01    ;  uncertainty sigma = 0.000007, epsilon = 0.001003
 c21bf                                  6      0.0000       0.00000       A     3.31531e-01     4.13211e-01    ;  uncertainty sigma = 0.000017, epsilon = 0.000754
 c22bf                                  6      0.0000       0.00000       A     3.31534e-01     4.13239e-01    ;  uncertainty sigma = 0.000008, epsilon = 0.000887
 o23bf                                  8      0.0000       0.00000       A     3.04831e-01     6.12684e-01    ;  uncertainty sigma = 0.000012, epsilon = 0.001335
 n24bf                                  7      0.0000       0.00000       A     3.27031e-01     4.90268e-01    ;  uncertainty sigma = 0.000012, epsilon = 0.001876
 c25bf                                  6      0.0000       0.00000       A     3.31520e-01     4.13087e-01    ;  uncertainty sigma = 0.000012, epsilon = 0.000961
 c26bf                                  6      0.0000       0.00000       A     3.31530e-01     4.13381e-01    ;  uncertainty sigma = 0.000006, epsilon = 0.000640
 c27bf                                  6      0.0000       0.00000       A     3.31532e-01     4.13435e-01    ;  uncertainty sigma = 0.000004, epsilon = 0.000875
 c28bf                                  6      0.0000       0.00000       A     3.31527e-01     4.13535e-01    ;  uncertainty sigma = 0.000014, epsilon = 0.000764
 c29bf                                  6      0.0000       0.00000       A     3.31539e-01     4.13785e-01    ;  uncertainty sigma = 0.000005, epsilon = 0.001789
 c30bf                                  6      0.0000       0.00000       A     3.31538e-01     4.13533e-01    ;  uncertainty sigma = 0.000018, epsilon = 0.001387
 c31bf                                  6      0.0000       0.00000       A     3.31572e-01     4.13378e-01    ;  uncertainty sigma = 0.000026, epsilon = 0.001117
 o32bf                                  8      0.0000       0.00000       A     3.04852e-01     6.12840e-01    ;  uncertainty sigma = 0.000022, epsilon = 0.001145
 o33bf                                  8      0.0000       0.00000       A     3.04852e-01     6.12840e-01    ;  uncertainty sigma = 0.000022, epsilon = 0.001145
 c34bf                                  6      0.0000       0.00000       A     3.31516e-01     4.13129e-01    ;  uncertainty sigma = 0.000010, epsilon = 0.000957
 c35bf                                  6      0.0000       0.00000       A     3.31531e-01     4.13728e-01    ;  uncertainty sigma = 0.000008, epsilon = 0.001049
 o36bf                                  8      0.0000       0.00000       A     3.15636e-01     3.03949e-01    ;  uncertainty sigma = 0.000015, epsilon = 0.000670
 c37bf                                  6      0.0000       0.00000       A     3.39774e-01     4.50890e-01    ;  uncertainty sigma = 0.000006, epsilon = 0.000514
 h38bf                                  1      0.0000       0.00000       A     2.42205e-01     8.67538e-02    ;  uncertainty sigma = 0.000015, epsilon = 0.000624
 h39bf                                  1      0.0000       0.00000       A     2.42205e-01     8.67538e-02    ;  uncertainty sigma = 0.000015, epsilon = 0.000624
 h40bf                                  1      0.0000       0.00000       A     2.42205e-01     8.67538e-02    ;  uncertainty sigma = 0.000015, epsilon = 0.000624
 h41bf                                  1      0.0000       0.00000       A     2.62570e-01     6.70700e-02    ;  uncertainty sigma = 0.000012, epsilon = 0.000330
 h42bf                                  1      0.0000       0.00000       A     2.62564e-01     6.70248e-02    ;  uncertainty sigma = 0.000015, epsilon = 0.000426
 h43bf                                  1      0.0000       0.00000       A     1.10708e-01     4.06502e-02    ;  uncertainty sigma = 0.000118, epsilon = 0.000465
 h44bf                                  1      0.0000       0.00000       A     2.53612e-01     6.73649e-02    ;  uncertainty sigma = 0.000081, epsilon = 0.000889
 h45bf                                  1      0.0000       0.00000       A     2.53649e-01     6.68496e-02    ;  uncertainty sigma = 0.000023, epsilon = 0.000657
 h46bf                                  1      0.0000       0.00000       A     2.53645e-01     6.69492e-02    ;  uncertainty sigma = 0.000020, epsilon = 0.000834
 h47bf                                  1      0.0000       0.00000       A     2.62560e-01     6.70283e-02    ;  uncertainty sigma = 0.000012, epsilon = 0.000523
 h48bf                                  1      0.0000       0.00000       A     2.62563e-01     6.70148e-02    ;  uncertainty sigma = 0.000010, epsilon = 0.000410
 h49bf                                  1      0.0000       0.00000       A     2.62550e-01     6.70183e-02    ;  uncertainty sigma = 0.000010, epsilon = 0.000665
 h50bf                                  1      0.0000       0.00000       A     2.62559e-01     6.73324e-02    ;  uncertainty sigma = 0.000013, epsilon = 0.000843
 h51bf                                  1      0.0000       0.00000       A     1.10697e-01     4.15617e-02    ;  uncertainty sigma = 0.000094, epsilon = 0.000787
 h52bf                                  1      0.0000       0.00000       A     2.62558e-01     6.70547e-02    ;  uncertainty sigma = 0.000013, epsilon = 0.000515
 h53bf                                  1      0.0000       0.00000       A     2.62562e-01     6.69926e-02    ;  uncertainty sigma = 0.000011, epsilon = 0.000440
 h54bf                                  1      0.0000       0.00000       A     2.62597e-01     6.70466e-02    ;  uncertainty sigma = 0.000014, epsilon = 0.000479
 h55bf                                  1      0.0000       0.00000       A     2.62550e-01     6.67704e-02    ;  uncertainty sigma = 0.000031, epsilon = 0.000679
 h56bf                                  1      0.0000       0.00000       A     2.62560e-01     6.71373e-02    ;  uncertainty sigma = 0.000017, epsilon = 0.000539
 h57bf                                  1      0.0000       0.00000       A     2.42205e-01     8.67537e-02    ;  uncertainty sigma = 0.000015, epsilon = 0.000624
 h58bf                                  1      0.0000       0.00000       A     2.42205e-01     8.67537e-02    ;  uncertainty sigma = 0.000015, epsilon = 0.000624
 h59bf                                  1      0.0000       0.00000       A     2.42205e-01     8.67537e-02    ;  uncertainty sigma = 0.000015, epsilon = 0.000624

[ moleculetype ]
;name             nrexcl
 MOL                   3

[ atoms ]
;       nr            type      resi   res      atom      cgnr      charge          mass ; qtot
         1            c0bf         1   UNL        c0         1     0.11960       12.0110 ; qtot    0.120
         2            o1bf         1   UNL        o1         2    -0.32010       15.9990 ; qtot   -0.201
         3            c2bf         1   UNL        c2         3     0.07584       12.0110 ; qtot   -0.125
         4            c3bf         1   UNL        c3         4    -0.15014       12.0110 ; qtot   -0.275
         5            c4bf         1   UNL        c4         5    -0.15106       12.0110 ; qtot   -0.426
         6            c5bf         1   UNL        c5         6     0.16694       12.0110 ; qtot   -0.259
         7            n6bf         1   UNL        n6         7    -0.73903       14.0070 ; qtot   -0.998
         8            c7bf         1   UNL        c7         8     0.75065       12.0110 ; qtot   -0.247
         9            n8bf         1   UNL        n8         9    -0.76815       14.0070 ; qtot   -1.015
        10            c9bf         1   UNL        c9        10     0.47399       12.0110 ; qtot   -0.541
        11           c10bf         1   UNL       c10        11    -0.21980       12.0110 ; qtot   -0.761
        12           n11bf         1   UNL       n11        12     0.05302       14.0070 ; qtot   -0.708
        13           c12bf         1   UNL       c12        13    -0.21243       12.0110 ; qtot   -0.921
        14           c13bf         1   UNL       c13        14     0.01175       12.0110 ; qtot   -0.909
        15           n14bf         1   UNL       n14        15    -0.27543       14.0070 ; qtot   -1.184
        16           c15bf         1   UNL       c15        16    -0.18460       12.0110 ; qtot   -1.369
        17           c16bf         1   UNL       c16        17    -0.12399       12.0110 ; qtot   -1.493
        18           c17bf         1   UNL       c17        18    -0.09091       12.0110 ; qtot   -1.584
        19           c18bf         1   UNL       c18        19    -0.14069       12.0110 ; qtot   -1.725
        20           c19bf         1   UNL       c19        20    -0.07833       12.0110 ; qtot   -1.803
        21           c20bf         1   UNL       c20        21    -0.15397       12.0110 ; qtot   -1.957
        22           c21bf         1   UNL       c21        22    -0.06503       12.0110 ; qtot   -2.022
        23           c22bf         1   UNL       c22        23     0.68809       12.0110 ; qtot   -1.334
        24           o23bf         1   UNL       o23        24    -0.57695       15.9990 ; qtot   -1.911
        25           n24bf         1   UNL       n24        25    -0.47145       14.0070 ; qtot   -2.382
        26           c25bf         1   UNL       c25        26     0.02672       12.0110 ; qtot   -2.355
        27           c26bf         1   UNL       c26        27    -0.17820       12.0110 ; qtot   -2.534
        28           c27bf         1   UNL       c27        28    -0.15578       12.0110 ; qtot   -2.689
        29           c28bf         1   UNL       c28        29    -0.13218       12.0110 ; qtot   -2.822
        30           c29bf         1   UNL       c29        30    -0.13689       12.0110 ; qtot   -2.959
        31           c30bf         1   UNL       c30        31    -0.16158       12.0110 ; qtot   -3.120
        32           c31bf         1   UNL       c31        32     0.91080       12.0110 ; qtot   -2.209
        33           o32bf         1   UNL       o32        33    -0.83212       15.9990 ; qtot   -3.041
        34           o33bf         1   UNL       o33        34    -0.83212       15.9990 ; qtot   -3.874
        35           c34bf         1   UNL       c34        35    -0.20840       12.0110 ; qtot   -4.082
        36           c35bf         1   UNL       c35        36     0.11790       12.0110 ; qtot   -3.964
        37           o36bf         1   UNL       o36        37    -0.31927       15.9990 ; qtot   -4.283
        38           c37bf         1   UNL       c37        38     0.11995       12.0110 ; qtot   -4.163
        39           h38bf         1   UNL       h38        39     0.04337        1.0080 ; qtot   -4.120
        40           h39bf         1   UNL       h39        40     0.04337        1.0080 ; qtot   -4.077
        41           h40bf         1   UNL       h40        41     0.04337        1.0080 ; qtot   -4.033
        42           h41bf         1   UNL       h41        42     0.14091        1.0080 ; qtot   -3.892
        43           h42bf         1   UNL       h42        43     0.15302        1.0080 ; qtot   -3.739
        44           h43bf         1   UNL       h43        44     0.46165        1.0080 ; qtot   -3.278
        45           h44bf         1   UNL       h44        45     0.17424        1.0080 ; qtot   -3.103
        46           h45bf         1   UNL       h45        46     0.18619        1.0080 ; qtot   -2.917
        47           h46bf         1   UNL       h46        47     0.17120        1.0080 ; qtot   -2.746
        48           h47bf         1   UNL       h47        48     0.14240        1.0080 ; qtot   -2.604
        49           h48bf         1   UNL       h48        49     0.13869        1.0080 ; qtot   -2.465
        50           h49bf         1   UNL       h49        50     0.14604        1.0080 ; qtot   -2.319
        51           h50bf         1   UNL       h50        51     0.15611        1.0080 ; qtot   -2.163
        52           h51bf         1   UNL       h51        52     0.32023        1.0080 ; qtot   -1.843
        53           h52bf         1   UNL       h52        53     0.15194        1.0080 ; qtot   -1.691
        54           h53bf         1   UNL       h53        54     0.10377        1.0080 ; qtot   -1.587
        55           h54bf         1   UNL       h54        55     0.14631        1.0080 ; qtot   -1.441
        56           h55bf         1   UNL       h55        56     0.15481        1.0080 ; qtot   -1.286
        57           h56bf         1   UNL       h56        57     0.15565        1.0080 ; qtot   -1.130
        58           h57bf         1   UNL       h57        58     0.04337        1.0080 ; qtot   -1.087
        59           h58bf         1   UNL       h58        59     0.04337        1.0080 ; qtot   -1.043
        60           h59bf         1   UNL       h59        60     0.04334        1.0080 ; qtot   -1.000

[ bonds ]
;       ai        aj funct               r               k
         1         2     1        0.142504   247060.424561    ;  uncertainty r = 0.000030, k = 4.357279
         1        39     1        0.109559   311162.501807    ;  uncertainty r = 0.000020, k = 1.272505
         1        40     1        0.109559   311162.501807    ;  uncertainty r = 0.000020, k = 1.272505
         1        41     1        0.109559   311162.501807    ;  uncertainty r = 0.000020, k = 1.272505
         2         3     1        0.136892   321113.062012    ;  uncertainty r = 0.000059, k = 4.532937
         3         4     1        0.139488   349133.425439    ;  uncertainty r = 0.000031, k = 2.724656
         3        36     1        0.140227   349402.969629    ;  uncertainty r = 0.000054, k = 7.584627
         4         5     1        0.139369   369864.655127    ;  uncertainty r = 0.000071, k = 2.574425
         4        42     1        0.108705   336290.634375    ;  uncertainty r = 0.000024, k = 1.905467
         5         6     1        0.139713   352891.517529    ;  uncertainty r = 0.000095, k = 4.859039
         5        43     1        0.108700   336152.248779    ;  uncertainty r = 0.000031, k = 1.798265
         6         7     1        0.141333   346668.455957    ;  uncertainty r = 0.000119, k = 12.315044
         6        35     1        0.140236   355873.307031    ;  uncertainty r = 0.000083, k = 5.100092
         7         8     1        0.137988   330814.533252    ;  uncertainty r = 0.000224, k = 31.605630
         7        44     1        0.102091   426736.870264    ;  uncertainty r = 0.000039, k = 5.302920
         8         9     1        0.132294   443005.770996    ;  uncertainty r = 0.000186, k = 13.577353
         8        16     1        0.143016   286566.945654    ;  uncertainty r = 0.000095, k = 10.976562
         9        10     1        0.137509   259598.736670    ;  uncertainty r = 0.000250, k = 25.283716
        10        11     1        0.136955   381436.030127    ;  uncertainty r = 0.000105, k = 11.906471
        10        17     1        0.147260   263607.603174    ;  uncertainty r = 0.000133, k = 9.331830
        11        12     1        0.137882   325401.789697    ;  uncertainty r = 0.000063, k = 6.041351
        11        45     1        0.108486   340798.827979    ;  uncertainty r = 0.000072, k = 2.317242
        12        13     1        0.137812   342777.341064    ;  uncertainty r = 0.000099, k = 5.087994
        12        16     1        0.139016   307421.213135    ;  uncertainty r = 0.000151, k = 23.940608
        13        14     1        0.138713   413349.321582    ;  uncertainty r = 0.000044, k = 11.515297
        13        46     1        0.108153   341281.121826    ;  uncertainty r = 0.000029, k = 4.725656
        14        15     1        0.136694   264650.947314    ;  uncertainty r = 0.000104, k = 21.676776
        14        47     1        0.108374   336399.626758    ;  uncertainty r = 0.000052, k = 2.763000
        15        16     1        0.133277   447135.836621    ;  uncertainty r = 0.000097, k = 11.841732
        17        18     1        0.140010   345196.599121    ;  uncertainty r = 0.000042, k = 2.989734
        17        22     1        0.139614   339276.892871    ;  uncertainty r = 0.000072, k = 4.017810
        18        19     1        0.139321   367843.137549    ;  uncertainty r = 0.000034, k = 2.571052
        18        48     1        0.108756   334095.821973    ;  uncertainty r = 0.000021, k = 0.785576
        19        20     1        0.139393   367173.835449    ;  uncertainty r = 0.000027, k = 0.860274
        19        49     1        0.108816   332716.000879    ;  uncertainty r = 0.000021, k = 1.311989
        20        21     1        0.139945   347323.891406    ;  uncertainty r = 0.000044, k = 2.678116
        20        50     1        0.108733   333169.437793    ;  uncertainty r = 0.000011, k = 1.040734
        21        22     1        0.139511   342478.710107    ;  uncertainty r = 0.000088, k = 2.190792
        21        23     1        0.150006   228889.366699    ;  uncertainty r = 0.000053, k = 8.709340
        22        51     1        0.108716   333864.889893    ;  uncertainty r = 0.000035, k = 2.283487
        23        24     1        0.123300   722890.497852    ;  uncertainty r = 0.000032, k = 4.344680
        23        25     1        0.137822   296843.231689    ;  uncertainty r = 0.000077, k = 12.216507
        25        26     1        0.141990   317866.682520    ;  uncertainty r = 0.000089, k = 10.190040
        25        52     1        0.101459   428487.924316    ;  uncertainty r = 0.000051, k = 2.454534
        26        27     1        0.140404   351092.479248    ;  uncertainty r = 0.000097, k = 9.220278
        26        31     1        0.140085   346276.308105    ;  uncertainty r = 0.000112, k = 10.960283
        27        28     1        0.139776   363381.421484    ;  uncertainty r = 0.000095, k = 5.455736
        27        53     1        0.108668   336345.871143    ;  uncertainty r = 0.000021, k = 2.384981
        28        29     1        0.139771   361019.749609    ;  uncertainty r = 0.000075, k = 6.414504
        28        54     1        0.108917   331927.644775    ;  uncertainty r = 0.000020, k = 2.730773
        29        30     1        0.140294   350255.883545    ;  uncertainty r = 0.000057, k = 3.551334
        29        55     1        0.108621   332451.896094    ;  uncertainty r = 0.000029, k = 4.146865
        30        31     1        0.139713   352111.129004    ;  uncertainty r = 0.000099, k = 3.616067
        30        32     1        0.154710   128049.105933    ;  uncertainty r = 0.000157, k = 46.917593
        31        56     1        0.108605   334259.872363    ;  uncertainty r = 0.000080, k = 2.949517
        32        33     1        0.126464   531782.722656    ;  uncertainty r = 0.000050, k = 4.854073
        32        34     1        0.126464   531782.722656    ;  uncertainty r = 0.000050, k = 4.854073
        35        36     1        0.139270   345625.571484    ;  uncertainty r = 0.000054, k = 5.224455
        35        57     1        0.108746   339222.268994    ;  uncertainty r = 0.000057, k = 2.203703
        36        37     1        0.136641   322875.224707    ;  uncertainty r = 0.000095, k = 4.764590
        37        38     1        0.142472   247648.288818    ;  uncertainty r = 0.000036, k = 5.188423
        38        58     1        0.109559   311162.501807    ;  uncertainty r = 0.000020, k = 1.272500
        38        59     1        0.109559   311162.501807    ;  uncertainty r = 0.000020, k = 1.272500
        38        60     1        0.109559   311162.501807    ;  uncertainty r = 0.000020, k = 1.272500

[ angles ]
;       ai        aj        ak funct           theta             cth
         1         2         3     1      110.612503      514.276204    ;  uncertainty theta = 0.001142, k = 0.053109
         2         1        39     1      108.817703      445.633093    ;  uncertainty theta = 0.001397, k = 0.017155
         2         1        40     1      108.817703      445.633093    ;  uncertainty theta = 0.001397, k = 0.017155
         2         1        41     1      108.817703      445.633093    ;  uncertainty theta = 0.001397, k = 0.017155
         2         3         4     1      120.713829      429.663653    ;  uncertainty theta = 0.002887, k = 0.102450
         2         3        36     1      116.739212      371.002135    ;  uncertainty theta = 0.004292, k = 0.133275
         3         4         5     1      122.308617      511.833707    ;  uncertainty theta = 0.002874, k = 0.098838
         3         4        42     1      117.399475      269.501128    ;  uncertainty theta = 0.000644, k = 0.068639
         3        36        35     1      122.924828      372.294473    ;  uncertainty theta = 0.004880, k = 0.131595
         3        36        37     1      116.892052      375.388038    ;  uncertainty theta = 0.003912, k = 0.086739
         4         3        36     1      121.473427      368.904773    ;  uncertainty theta = 0.004194, k = 0.139265
         4         5         6     1      119.248634      497.970121    ;  uncertainty theta = 0.001680, k = 0.102369
         4         5        43     1      121.012962      296.103549    ;  uncertainty theta = 0.002653, k = 0.108838
         5         4        42     1      120.002708      276.762860    ;  uncertainty theta = 0.000635, k = 0.063553
         5         6         7     1      120.412048      523.951864    ;  uncertainty theta = 0.002787, k = 0.145671
         5         6        35     1      119.564781      370.288948    ;  uncertainty theta = 0.004616, k = 0.068311
         6         5        43     1      119.526833      271.877771    ;  uncertainty theta = 0.001413, k = 0.081499
         6         7         8     1      116.303787      381.015013    ;  uncertainty theta = 0.002927, k = 0.210540
         6         7        44     1      114.186111      355.760727    ;  uncertainty theta = 0.005751, k = 0.200139
         6        35        36     1      121.379723      503.759991    ;  uncertainty theta = 0.003678, k = 0.097545
         6        35        57     1      119.577965      269.429783    ;  uncertainty theta = 0.003301, k = 0.060634
         7         6        35     1      119.861717      533.495177    ;  uncertainty theta = 0.003869, k = 0.077420
         7         8         9     1      122.084122      743.704340    ;  uncertainty theta = 0.005979, k = 0.187139
         7         8        16     1      118.339066      493.433486    ;  uncertainty theta = 0.006804, k = 0.121645
         8         7        44     1      117.061234      430.294771    ;  uncertainty theta = 0.006370, k = 0.198641
         8         9        10     1      121.092026      437.385564    ;  uncertainty theta = 0.009289, k = 0.255263
         8        16        12     1      111.142784      333.997874    ;  uncertainty theta = 0.012736, k = 0.456017
         8        16        15     1      125.515465      293.447945    ;  uncertainty theta = 0.008643, k = 0.324339
         9         8        16     1      122.397110      559.508873    ;  uncertainty theta = 0.006110, k = 0.249098
         9        10        11     1      124.543556      546.714781    ;  uncertainty theta = 0.002872, k = 0.247730
         9        10        17     1      116.963966      455.945839    ;  uncertainty theta = 0.001426, k = 0.137000
        10        11        12     1      117.529312      532.909931    ;  uncertainty theta = 0.004092, k = 0.198409
        10        11        45     1      124.634445      233.175387    ;  uncertainty theta = 0.008734, k = 0.228842
        10        17        18     1      119.873581      404.772983    ;  uncertainty theta = 0.002360, k = 0.126906
        10        17        22     1      119.208656      396.888305    ;  uncertainty theta = 0.002346, k = 0.210181
        11        10        17     1      120.994980      375.420023    ;  uncertainty theta = 0.004458, k = 0.077932
        11        12        13     1      129.664673      428.594510    ;  uncertainty theta = 0.002270, k = 0.326701
        11        12        16     1      117.420059      429.560738    ;  uncertainty theta = 0.007263, k = 0.178528
        12        11        45     1      117.417358      315.021791    ;  uncertainty theta = 0.003619, k = 0.132845
        12        13        14     1      105.324829      767.668044    ;  uncertainty theta = 0.004981, k = 0.189091
        12        13        46     1      119.539230      282.399762    ;  uncertainty theta = 0.002926, k = 0.163945
        12        16        15     1      114.523727      791.406958    ;  uncertainty theta = 0.003446, k = 0.159720
        13        12        16     1      106.195152      846.636320    ;  uncertainty theta = 0.003800, k = 0.266753
        13        14        15     1      111.223167      865.900238    ;  uncertainty theta = 0.003390, k = 0.157111
        13        14        47     1      125.339600      238.965624    ;  uncertainty theta = 0.004247, k = 0.092338
        14        13        46     1      130.781433      240.351858    ;  uncertainty theta = 0.003259, k = 0.025087
        14        15        16     1      106.065872      820.721453    ;  uncertainty theta = 0.001716, k = 0.145916
        15        14        47     1      119.156937      297.238833    ;  uncertainty theta = 0.004129, k = 0.152925
        17        18        19     1      120.311562      529.372594    ;  uncertainty theta = 0.001859, k = 0.062575
        17        18        48     1      118.619164      269.018029    ;  uncertainty theta = 0.001373, k = 0.071414
        17        22        21     1      122.519272      513.078833    ;  uncertainty theta = 0.002494, k = 0.135587
        17        22        51     1      118.673218      268.490018    ;  uncertainty theta = 0.003891, k = 0.023478
        18        17        22     1      121.170792      430.515667    ;  uncertainty theta = 0.002829, k = 0.178402
        18        19        20     1      120.683754      518.232222    ;  uncertainty theta = 0.002543, k = 0.075513
        18        19        49     1      120.274796      284.693728    ;  uncertainty theta = 0.001302, k = 0.025006
        19        18        48     1      120.459389      291.342602    ;  uncertainty theta = 0.001794, k = 0.009196
        19        20        21     1      120.614319      517.906368    ;  uncertainty theta = 0.001567, k = 0.078762
        19        20        50     1      120.459457      287.953987    ;  uncertainty theta = 0.002786, k = 0.055552
        20        19        49     1      120.272667      282.891990    ;  uncertainty theta = 0.000802, k = 0.033100
        20        21        22     1      122.378029      447.619241    ;  uncertainty theta = 0.001332, k = 0.140231
        20        21        23     1      119.138565      320.977396    ;  uncertainty theta = 0.003243, k = 0.207438
        21        20        50     1      118.913414      268.435177    ;  uncertainty theta = 0.002890, k = 0.087974
        21        22        51     1      118.781784      268.287381    ;  uncertainty theta = 0.003995, k = 0.098747
        21        23        24     1      124.278122      544.496819    ;  uncertainty theta = 0.004630, k = 0.121257
        21        23        25     1      113.833046      458.969944    ;  uncertainty theta = 0.005349, k = 0.149150
        22        21        23     1      118.324509      333.598155    ;  uncertainty theta = 0.001455, k = 0.206879
        23        25        26     1      119.734718      428.627676    ;  uncertainty theta = 0.006844, k = 0.206250
        23        25        52     1      116.256310      336.820236    ;  uncertainty theta = 0.003776, k = 0.192245
        24        23        25     1      121.884811      732.263715    ;  uncertainty theta = 0.003488, k = 0.130036
        25        26        27     1      120.034012      516.880702    ;  uncertainty theta = 0.005274, k = 0.144424
        25        26        31     1      119.730713      517.589516    ;  uncertainty theta = 0.006764, k = 0.130308
        26        25        52     1      114.233017      312.499491    ;  uncertainty theta = 0.004571, k = 0.100255
        26        27        28     1      119.152870      506.810654    ;  uncertainty theta = 0.002137, k = 0.078737
        26        27        53     1      119.375046      271.071564    ;  uncertainty theta = 0.003467, k = 0.142242
        26        31        30     1      121.336960      507.438516    ;  uncertainty theta = 0.004093, k = 0.169999
        26        31        56     1      119.273170      265.477357    ;  uncertainty theta = 0.003226, k = 0.130493
        27        26        31     1      120.851395      388.852830    ;  uncertainty theta = 0.005481, k = 0.180790
        27        28        29     1      121.353065      502.686155    ;  uncertainty theta = 0.002709, k = 0.156526
        27        28        54     1      119.507217      280.516592    ;  uncertainty theta = 0.003247, k = 0.087191
        28        27        53     1      121.566368      312.898540    ;  uncertainty theta = 0.003544, k = 0.106481
        28        29        30     1      120.239761      525.423280    ;  uncertainty theta = 0.003898, k = 0.085522
        28        29        55     1      121.120888      288.335384    ;  uncertainty theta = 0.004200, k = 0.212413
        29        28        54     1      120.958412      284.111897    ;  uncertainty theta = 0.002430, k = 0.059239
        29        30        31     1      119.903542      462.690860    ;  uncertainty theta = 0.004051, k = 0.170517
        29        30        32     1      119.416702      343.747272    ;  uncertainty theta = 0.008571, k = 0.412658
        30        29        55     1      119.582840      263.525779    ;  uncertainty theta = 0.006019, k = 0.074908
        30        31        56     1      119.769791      267.074240    ;  uncertainty theta = 0.007309, k = 0.112029
        30        32        33     1      115.571472      399.094392    ;  uncertainty theta = 0.009715, k = 0.197618
        30        32        34     1      115.571472      399.094392    ;  uncertainty theta = 0.009715, k = 0.197618
        31        30        32     1      118.205666      347.764962    ;  uncertainty theta = 0.013568, k = 0.600665
        33        32        34     1      130.723770      786.044293    ;  uncertainty theta = 0.006884, k = 0.143137
        35        36        37     1      119.984230      446.391321    ;  uncertainty theta = 0.002825, k = 0.109279
        36        35        57     1      118.198837      267.442262    ;  uncertainty theta = 0.001362, k = 0.058522
        36        37        38     1      110.584335      514.931710    ;  uncertainty theta = 0.000760, k = 0.054259
        37        38        58     1      108.804794      446.467230    ;  uncertainty theta = 0.001256, k = 0.017592
        37        38        59     1      108.804794      446.467230    ;  uncertainty theta = 0.001256, k = 0.017592
        37        38        60     1      108.804810      446.467230    ;  uncertainty theta = 0.001256, k = 0.017592
        39         1        40     1      109.159256      331.008596    ;  uncertainty theta = 0.001734, k = 0.015289
        39         1        41     1      109.159256      331.008596    ;  uncertainty theta = 0.001734, k = 0.015289
        40         1        41     1      109.159256      331.008596    ;  uncertainty theta = 0.001734, k = 0.015289
        58        38        59     1      109.159256      331.008596    ;  uncertainty theta = 0.001734, k = 0.015290
        58        38        60     1      109.159256      331.008596    ;  uncertainty theta = 0.001734, k = 0.015290
        59        38        60     1      109.159256      331.008596    ;  uncertainty theta = 0.001734, k = 0.015290

[ dihedrals ] ; propers for gromacs 4.5 or higher, use funct 9
;       ai        aj        ak        al funct           phase               k        pn
         1         2         3         4     9        0.000000        1.161590         1    ;  uncertainty k = 0.424580
         1         2         3         4     9      180.000000        5.978609         2    ;  uncertainty k = 0.113714
         1         2         3         4     9        0.000000       -0.081692         3    ;  uncertainty k = 0.147719
         1         2         3         4     9      180.000000        0.002725         4    ;  uncertainty k = 0.132587
         1         2         3        36     9        0.000000        0.710048         1    ;  uncertainty k = 0.461814
         1         2         3        36     9      180.000000        5.168557         2    ;  uncertainty k = 0.168705
         1         2         3        36     9        0.000000        1.522737         3    ;  uncertainty k = 0.085019
         1         2         3        36     9      180.000000        0.086569         4    ;  uncertainty k = 0.079161
         2         3         4         5     9        0.000000        0.075453         1    ;  uncertainty k = 0.391184
         2         3         4         5     9      180.000000       11.200366         2    ;  uncertainty k = 0.281957
         2         3         4         5     9        0.000000        1.350673         3    ;  uncertainty k = 0.315697
         2         3         4         5     9      180.000000        1.737822         4    ;  uncertainty k = 0.262819
         2         3         4        42     9        0.000000       -0.165175         1    ;  uncertainty k = 0.217547
         2         3         4        42     9      180.000000        9.159951         2    ;  uncertainty k = 0.396817
         2         3         4        42     9        0.000000        0.851185         3    ;  uncertainty k = 0.126617
         2         3         4        42     9      180.000000        1.218800         4    ;  uncertainty k = 0.309716
         2         3        36        35     9        0.000000        0.515556         1    ;  uncertainty k = 0.299239
         2         3        36        35     9      180.000000        7.954903         2    ;  uncertainty k = 0.736958
         2         3        36        35     9        0.000000        1.164308         3    ;  uncertainty k = 0.363484
         2         3        36        35     9      180.000000        1.614907         4    ;  uncertainty k = 0.248125
         2         3        36        37     9        0.000000       -0.341456         1    ;  uncertainty k = 1.859913
         2         3        36        37     9      180.000000       13.064537         2    ;  uncertainty k = 0.569185
         2         3        36        37     9        0.000000        0.817588         3    ;  uncertainty k = 0.428631
         2         3        36        37     9      180.000000        1.204285         4    ;  uncertainty k = 0.526598
         3         2         1        39     9        0.000000        1.112847         1    ;  uncertainty k = 0.103175
         3         2         1        39     9      180.000000       -2.022644         2    ;  uncertainty k = 0.082864
         3         2         1        39     9        0.000000        1.040477         3    ;  uncertainty k = 0.039004
         3         2         1        39     9      180.000000        0.229250         4    ;  uncertainty k = 0.034227
         3         2         1        40     9        0.000000        1.112847         1    ;  uncertainty k = 0.103175
         3         2         1        40     9      180.000000       -2.022644         2    ;  uncertainty k = 0.082864
         3         2         1        40     9        0.000000        1.040477         3    ;  uncertainty k = 0.039004
         3         2         1        40     9      180.000000        0.229250         4    ;  uncertainty k = 0.034227
         3         2         1        41     9        0.000000        1.112847         1    ;  uncertainty k = 0.103175
         3         2         1        41     9      180.000000       -2.022644         2    ;  uncertainty k = 0.082864
         3         2         1        41     9        0.000000        1.040477         3    ;  uncertainty k = 0.039004
         3         2         1        41     9      180.000000        0.229250         4    ;  uncertainty k = 0.034227
         3         4         5         6     9        0.000000        0.022057         1    ;  uncertainty k = 0.194405
         3         4         5         6     9      180.000000       12.959076         2    ;  uncertainty k = 0.175269
         3         4         5         6     9        0.000000       -0.661284         3    ;  uncertainty k = 0.452963
         3         4         5         6     9      180.000000        0.977500         4    ;  uncertainty k = 0.267395
         3         4         5        43     9        0.000000        0.089133         1    ;  uncertainty k = 0.324049
         3         4         5        43     9      180.000000        7.832723         2    ;  uncertainty k = 0.398222
         3         4         5        43     9        0.000000        1.298747         3    ;  uncertainty k = 0.324375
         3         4         5        43     9      180.000000        1.779745         4    ;  uncertainty k = 0.055930
         3        36        35         6     9        0.000000        0.071802         1    ;  uncertainty k = 0.106893
         3        36        35         6     9      180.000000        8.578020         2    ;  uncertainty k = 0.448413
         3        36        35         6     9        0.000000        0.405195         3    ;  uncertainty k = 0.328173
         3        36        35         6     9      180.000000        1.390162         4    ;  uncertainty k = 0.291061
         3        36        35        57     9        0.000000        0.127329         1    ;  uncertainty k = 0.442115
         3        36        35        57     9      180.000000        6.705908         2    ;  uncertainty k = 0.374607
         3        36        35        57     9        0.000000        1.449705         3    ;  uncertainty k = 0.216502
         3        36        35        57     9      180.000000        1.651952         4    ;  uncertainty k = 0.099448
         3        36        37        38     9        0.000000        0.964833         1    ;  uncertainty k = 0.487894
         3        36        37        38     9      180.000000        5.588064         2    ;  uncertainty k = 0.185698
         3        36        37        38     9        0.000000        1.649424         3    ;  uncertainty k = 0.107622
         3        36        37        38     9      180.000000        0.043020         4    ;  uncertainty k = 0.050223
         4         3        36        35     9        0.000000       -0.246361         1    ;  uncertainty k = 0.323015
         4         3        36        35     9      180.000000        5.364289         2    ;  uncertainty k = 1.281071
         4         3        36        35     9        0.000000        0.277799         3    ;  uncertainty k = 0.286511
         4         3        36        35     9      180.000000        1.297118         4    ;  uncertainty k = 0.309451
         4         3        36        37     9        0.000000        0.651705         1    ;  uncertainty k = 0.176594
         4         3        36        37     9      180.000000        7.590394         2    ;  uncertainty k = 0.603024
         4         3        36        37     9        0.000000        1.174713         3    ;  uncertainty k = 0.330890
         4         3        36        37     9      180.000000        1.724084         4    ;  uncertainty k = 0.232454
         4         5         6         7     9        0.000000        0.058897         1    ;  uncertainty k = 0.517002
         4         5         6         7     9      180.000000        9.907040         2    ;  uncertainty k = 0.506714
         4         5         6         7     9        0.000000        0.979239         3    ;  uncertainty k = 0.327123
         4         5         6         7     9      180.000000        1.580944         4    ;  uncertainty k = 0.224706
         4         5         6        35     9        0.000000       -0.065841         1    ;  uncertainty k = 0.278588
         4         5         6        35     9      180.000000        9.979296         2    ;  uncertainty k = 0.397780
         4         5         6        35     9        0.000000       -0.194578         3    ;  uncertainty k = 0.190668
         4         5         6        35     9      180.000000        1.171069         4    ;  uncertainty k = 0.255361
         5         4         3        36     9        0.000000        0.085734         1    ;  uncertainty k = 0.237541
         5         4         3        36     9      180.000000        8.042168         2    ;  uncertainty k = 0.816838
         5         4         3        36     9        0.000000        0.289471         3    ;  uncertainty k = 0.178601
         5         4         3        36     9      180.000000        1.427392         4    ;  uncertainty k = 0.249188
         5         6         7         8     9        0.000000        1.717569         1    ;  uncertainty k = 0.660151
         5         6         7         8     9      180.000000        5.521741         2    ;  uncertainty k = 0.179949
         5         6         7         8     9        0.000000        0.912155         3    ;  uncertainty k = 0.268355
         5         6         7         8     9      180.000000        0.224590         4    ;  uncertainty k = 0.108908
         5         6         7        44     9        0.000000        2.355176         1    ;  uncertainty k = 0.449212
         5         6         7        44     9      180.000000        4.348203         2    ;  uncertainty k = 0.302695
         5         6         7        44     9        0.000000        0.613845         3    ;  uncertainty k = 0.145998
         5         6         7        44     9      180.000000        0.455801         4    ;  uncertainty k = 0.028343
         5         6        35        36     9        0.000000        0.019455         1    ;  uncertainty k = 0.133757
         5         6        35        36     9      180.000000        8.784468         2    ;  uncertainty k = 0.478984
         5         6        35        36     9        0.000000        0.119276         3    ;  uncertainty k = 0.283810
         5         6        35        36     9      180.000000        1.288078         4    ;  uncertainty k = 0.208847
         5         6        35        57     9        0.000000        0.155297         1    ;  uncertainty k = 0.281422
         5         6        35        57     9      180.000000        6.373831         2    ;  uncertainty k = 0.633801
         5         6        35        57     9        0.000000        1.253627         3    ;  uncertainty k = 0.220579
         5         6        35        57     9      180.000000        1.460767         4    ;  uncertainty k = 0.207379
         6         5         4        42     9        0.000000       -0.099823         1    ;  uncertainty k = 0.241524
         6         5         4        42     9      180.000000        7.800452         2    ;  uncertainty k = 0.321389
         6         5         4        42     9        0.000000        1.212039         3    ;  uncertainty k = 0.364603
         6         5         4        42     9      180.000000        1.643100         4    ;  uncertainty k = 0.155684
         6         7         8         9     9        0.000000        4.371472         1    ;  uncertainty k = 1.288133
         6         7         8         9     9      180.000000       10.778641         2    ;  uncertainty k = 0.228702
         6         7         8         9     9        0.000000        0.680673         3    ;  uncertainty k = 0.311323
         6         7         8         9     9      180.000000       -0.507606         4    ;  uncertainty k = 0.056382
         6         7         8        16     9        0.000000        7.039559         1    ;  uncertainty k = 0.599174
         6         7         8        16     9      180.000000        8.681781         2    ;  uncertainty k = 0.097887
         6         7         8        16     9        0.000000        0.920441         3    ;  uncertainty k = 0.381757
         6         7         8        16     9      180.000000       -0.164553         4    ;  uncertainty k = 0.221364
         6        35        36        37     9        0.000000        0.152072         1    ;  uncertainty k = 0.236865
         6        35        36        37     9      180.000000       11.350413         2    ;  uncertainty k = 0.544002
         6        35        36        37     9        0.000000        1.355669         3    ;  uncertainty k = 0.349766
         6        35        36        37     9      180.000000        1.696486         4    ;  uncertainty k = 0.237430
         7         6         5        43     9        0.000000       -0.291936         1    ;  uncertainty k = 0.233190
         7         6         5        43     9      180.000000        7.944711         2    ;  uncertainty k = 0.164350
         7         6         5        43     9        0.000000        0.918004         3    ;  uncertainty k = 0.228756
         7         6         5        43     9      180.000000        1.083856         4    ;  uncertainty k = 0.164907
         7         6        35        36     9        0.000000        0.148911         1    ;  uncertainty k = 0.574988
         7         6        35        36     9      180.000000        9.899588         2    ;  uncertainty k = 0.247388
         7         6        35        36     9        0.000000        1.000997         3    ;  uncertainty k = 0.351814
         7         6        35        36     9      180.000000        1.610986         4    ;  uncertainty k = 0.137508
         7         6        35        57     9        0.000000       -0.272934         1    ;  uncertainty k = 0.329125
         7         6        35        57     9      180.000000        7.865305         2    ;  uncertainty k = 0.242076
         7         6        35        57     9        0.000000        0.914516         3    ;  uncertainty k = 0.283703
         7         6        35        57     9      180.000000        1.068016         4    ;  uncertainty k = 0.243003
         7         8         9        10     9        0.000000        1.093749         1    ;  uncertainty k = 1.036215
         7         8         9        10     9      180.000000       17.904277         2    ;  uncertainty k = 0.458529
         7         8         9        10     9        0.000000        2.916476         3    ;  uncertainty k = 0.276349
         7         8         9        10     9      180.000000        1.662492         4    ;  uncertainty k = 0.298464
         7         8        16        12     9        0.000000       -0.953522         1    ;  uncertainty k = 0.960772
         7         8        16        12     9      180.000000        5.426483         2    ;  uncertainty k = 0.732995
         7         8        16        12     9        0.000000        0.463830         3    ;  uncertainty k = 0.276198
         7         8        16        12     9      180.000000        0.425035         4    ;  uncertainty k = 0.145521
         7         8        16        15     9        0.000000       -0.723785         1    ;  uncertainty k = 0.708754
         7         8        16        15     9      180.000000        4.584250         2    ;  uncertainty k = 1.077487
         7         8        16        15     9        0.000000        0.569780         3    ;  uncertainty k = 0.418447
         7         8        16        15     9      180.000000        0.322209         4    ;  uncertainty k = 0.225420
         8         7         6        35     9        0.000000        1.597949         1    ;  uncertainty k = 0.980885
         8         7         6        35     9      180.000000        5.574010         2    ;  uncertainty k = 0.231880
         8         7         6        35     9        0.000000        0.917733         3    ;  uncertainty k = 0.237919
         8         7         6        35     9      180.000000        0.218590         4    ;  uncertainty k = 0.147859
         8         9        10        11     9        0.000000        0.939473         1    ;  uncertainty k = 1.501292
         8         9        10        11     9      180.000000        5.478745         2    ;  uncertainty k = 1.436527
         8         9        10        11     9        0.000000        1.155133         3    ;  uncertainty k = 0.833321
         8         9        10        11     9      180.000000        0.505236         4    ;  uncertainty k = 0.531950
         8         9        10        17     9        0.000000        0.794449         1    ;  uncertainty k = 1.385570
         8         9        10        17     9      180.000000        8.981132         2    ;  uncertainty k = 0.771214
         8         9        10        17     9        0.000000        1.556128         3    ;  uncertainty k = 0.550783
         8         9        10        17     9      180.000000        0.428246         4    ;  uncertainty k = 0.313577
         8        16        12        11     9        0.000000       -0.074403         1    ;  uncertainty k = 0.950775
         8        16        12        11     9      180.000000        5.131695         2    ;  uncertainty k = 1.540544
         8        16        12        11     9        0.000000        1.364864         3    ;  uncertainty k = 0.461387
         8        16        12        11     9      180.000000        0.396564         4    ;  uncertainty k = 0.312989
         8        16        12        13     9        0.000000        0.340421         1    ;  uncertainty k = 0.792595
         8        16        12        13     9      180.000000        6.024515         2    ;  uncertainty k = 0.492566
         8        16        12        13     9        0.000000        0.209998         3    ;  uncertainty k = 0.527723
         8        16        12        13     9      180.000000        0.585310         4    ;  uncertainty k = 0.374830
         8        16        15        14     9        0.000000       -0.258736         1    ;  uncertainty k = 0.813751
         8        16        15        14     9      180.000000       16.417004         2    ;  uncertainty k = 0.455553
         8        16        15        14     9        0.000000        0.694004         3    ;  uncertainty k = 0.637623
         8        16        15        14     9      180.000000        1.345365         4    ;  uncertainty k = 0.597909
         9         8         7        44     9        0.000000        8.922955         1    ;  uncertainty k = 0.590684
         9         8         7        44     9      180.000000        9.664259         2    ;  uncertainty k = 0.294391
         9         8         7        44     9        0.000000        1.087484         3    ;  uncertainty k = 0.311608
         9         8         7        44     9      180.000000       -0.057210         4    ;  uncertainty k = 0.149117
         9         8        16        12     9        0.000000       -0.501338         1    ;  uncertainty k = 0.640960
         9         8        16        12     9      180.000000        6.017651         2    ;  uncertainty k = 0.720253
         9         8        16        12     9        0.000000       -0.364995         3    ;  uncertainty k = 0.314830
         9         8        16        12     9      180.000000        0.566313         4    ;  uncertainty k = 0.158573
         9         8        16        15     9        0.000000       -1.422782         1    ;  uncertainty k = 2.244569
         9         8        16        15     9      180.000000        4.485013         2    ;  uncertainty k = 0.589709
         9         8        16        15     9        0.000000        0.451575         3    ;  uncertainty k = 0.408180
         9         8        16        15     9      180.000000        0.387928         4    ;  uncertainty k = 0.297232
         9        10        11        12     9        0.000000        0.000363         1    ;  uncertainty k = 0.567485
         9        10        11        12     9      180.000000       21.321779         2    ;  uncertainty k = 0.622601
         9        10        11        12     9        0.000000        0.535648         3    ;  uncertainty k = 0.315066
         9        10        11        12     9      180.000000        0.534100         4    ;  uncertainty k = 0.517790
         9        10        11        45     9        0.000000        0.400301         1    ;  uncertainty k = 0.999409
         9        10        11        45     9      180.000000       12.773519         2    ;  uncertainty k = 0.371019
         9        10        11        45     9        0.000000        1.630574         3    ;  uncertainty k = 0.622599
         9        10        11        45     9      180.000000        1.089831         4    ;  uncertainty k = 0.430456
         9        10        17        18     9        0.000000       -0.842925         1    ;  uncertainty k = 1.576912
         9        10        17        18     9      180.000000        4.811965         2    ;  uncertainty k = 0.164611
         9        10        17        18     9        0.000000        0.396917         3    ;  uncertainty k = 0.157236
         9        10        17        18     9      180.000000        0.104740         4    ;  uncertainty k = 0.135081
         9        10        17        22     9        0.000000       -0.372741         1    ;  uncertainty k = 1.621860
         9        10        17        22     9      180.000000        4.794671         2    ;  uncertainty k = 0.205596
         9        10        17        22     9        0.000000        0.390302         3    ;  uncertainty k = 0.141423
         9        10        17        22     9      180.000000        0.081330         4    ;  uncertainty k = 0.149739
        10         9         8        16     9        0.000000       -0.079278         1    ;  uncertainty k = 2.218226
        10         9         8        16     9      180.000000       13.592964         2    ;  uncertainty k = 0.610320
        10         9         8        16     9        0.000000        2.514815         3    ;  uncertainty k = 0.854000
        10         9         8        16     9      180.000000        1.355385         4    ;  uncertainty k = 0.396240
        10        11        12        13     9        0.000000        0.426659         1    ;  uncertainty k = 1.499796
        10        11        12        13     9      180.000000        4.652439         2    ;  uncertainty k = 0.599161
        10        11        12        13     9        0.000000        0.715391         3    ;  uncertainty k = 0.332561
        10        11        12        13     9      180.000000        0.335558         4    ;  uncertainty k = 0.092544
        10        11        12        16     9        0.000000       -0.092029         1    ;  uncertainty k = 1.657469
        10        11        12        16     9      180.000000        6.297307         2    ;  uncertainty k = 0.496588
        10        11        12        16     9        0.000000       -0.827331         3    ;  uncertainty k = 0.837728
        10        11        12        16     9      180.000000        0.591428         4    ;  uncertainty k = 0.145931
        10        17        18        19     9        0.000000        0.059497         1    ;  uncertainty k = 0.170006
        10        17        18        19     9      180.000000        9.082568         2    ;  uncertainty k = 0.568611
        10        17        18        19     9        0.000000        1.268651         3    ;  uncertainty k = 0.336252
        10        17        18        19     9      180.000000        1.713418         4    ;  uncertainty k = 0.243957
        10        17        18        48     9        0.000000        0.004901         1    ;  uncertainty k = 0.159334
        10        17        18        48     9      180.000000        7.002721         2    ;  uncertainty k = 0.358409
        10        17        18        48     9        0.000000        0.662383         3    ;  uncertainty k = 0.254752
        10        17        18        48     9      180.000000        1.137411         4    ;  uncertainty k = 0.196708
        10        17        22        21     9        0.000000       -0.009980         1    ;  uncertainty k = 0.175009
        10        17        22        21     9      180.000000        8.877143         2    ;  uncertainty k = 0.512528
        10        17        22        21     9        0.000000        1.246806         3    ;  uncertainty k = 0.254355
        10        17        22        21     9      180.000000        1.710790         4    ;  uncertainty k = 0.090191
        10        17        22        51     9        0.000000        0.027708         1    ;  uncertainty k = 0.271704
        10        17        22        51     9      180.000000        7.234969         2    ;  uncertainty k = 0.297321
        10        17        22        51     9        0.000000        0.739096         3    ;  uncertainty k = 0.231374
        10        17        22        51     9      180.000000        1.270063         4    ;  uncertainty k = 0.187282
        11        10        17        18     9        0.000000       -0.073071         1    ;  uncertainty k = 0.402831
        11        10        17        18     9      180.000000        3.730323         2    ;  uncertainty k = 0.332927
        11        10        17        18     9        0.000000        0.762575         3    ;  uncertainty k = 0.247152
        11        10        17        18     9      180.000000       -0.326397         4    ;  uncertainty k = 0.135735
        11        10        17        22     9        0.000000       -0.186095         1    ;  uncertainty k = 0.280725
        11        10        17        22     9      180.000000        3.699147         2    ;  uncertainty k = 0.287042
        11        10        17        22     9        0.000000        0.865801         3    ;  uncertainty k = 0.199031
        11        10        17        22     9      180.000000       -0.305306         4    ;  uncertainty k = 0.142108
        11        12        13        14     9        0.000000        0.230793         1    ;  uncertainty k = 1.269739
        11        12        13        14     9      180.000000        9.569834         2    ;  uncertainty k = 0.766860
        11        12        13        14     9        0.000000        0.431848         3    ;  uncertainty k = 0.749472
        11        12        13        14     9      180.000000        0.562970         4    ;  uncertainty k = 0.317996
        11        12        13        46     9        0.000000        0.582735         1    ;  uncertainty k = 1.282918
        11        12        13        46     9      180.000000        2.797133         2    ;  uncertainty k = 1.416072
        11        12        13        46     9        0.000000        1.235337         3    ;  uncertainty k = 0.396602
        11        12        13        46     9      180.000000        0.134008         4    ;  uncertainty k = 0.120872
        11        12        16        15     9        0.000000        0.339778         1    ;  uncertainty k = 0.557633
        11        12        16        15     9      180.000000        8.702718         2    ;  uncertainty k = 0.552036
        11        12        16        15     9        0.000000        0.461034         3    ;  uncertainty k = 0.395644
        11        12        16        15     9      180.000000        0.883729         4    ;  uncertainty k = 0.214014
        12        11        10        17     9        0.000000        0.591759         1    ;  uncertainty k = 0.266729
        12        11        10        17     9      180.000000       17.691273         2    ;  uncertainty k = 0.416571
        12        11        10        17     9        0.000000        1.855432         3    ;  uncertainty k = 0.438797
        12        11        10        17     9      180.000000        0.749920         4    ;  uncertainty k = 0.228530
        12        13        14        15     9        0.000000       -0.424259         1    ;  uncertainty k = 0.720471
        12        13        14        15     9      180.000000       21.948844         2    ;  uncertainty k = 0.272817
        12        13        14        15     9        0.000000       -9.453916         3    ;  uncertainty k = 0.408148
        12        13        14        15     9      180.000000        1.578950         4    ;  uncertainty k = 0.654473
        12        13        14        47     9        0.000000        0.427383         1    ;  uncertainty k = 0.828520
        12        13        14        47     9      180.000000       13.870596         2    ;  uncertainty k = 0.182398
        12        13        14        47     9        0.000000        1.815389         3    ;  uncertainty k = 0.320274
        12        13        14        47     9      180.000000        0.903574         4    ;  uncertainty k = 0.223947
        12        16        15        14     9        0.000000       -0.698106         1    ;  uncertainty k = 0.543243
        12        16        15        14     9      180.000000       23.970051         2    ;  uncertainty k = 0.495895
        12        16        15        14     9        0.000000      -11.206153         3    ;  uncertainty k = 1.161985
        12        16        15        14     9      180.000000        1.981051         4    ;  uncertainty k = 0.603215
        13        12        11        45     9        0.000000        1.227127         1    ;  uncertainty k = 1.232866
        13        12        11        45     9      180.000000        2.938476         2    ;  uncertainty k = 1.102518
        13        12        11        45     9        0.000000        1.033215         3    ;  uncertainty k = 0.512498
        13        12        11        45     9      180.000000        0.184974         4    ;  uncertainty k = 0.169272
        13        12        16        15     9        0.000000       -0.600194         1    ;  uncertainty k = 0.427509
        13        12        16        15     9      180.000000       12.032075         2    ;  uncertainty k = 0.540572
        13        12        16        15     9        0.000000       -4.884606         3    ;  uncertainty k = 1.243656
        13        12        16        15     9      180.000000        1.176890         4    ;  uncertainty k = 0.463084
        13        14        15        16     9        0.000000       -0.719371         1    ;  uncertainty k = 0.806440
        13        14        15        16     9      180.000000       16.306391         2    ;  uncertainty k = 0.372137
        13        14        15        16     9        0.000000       -5.546726         3    ;  uncertainty k = 0.784851
        13        14        15        16     9      180.000000        2.138755         4    ;  uncertainty k = 0.319469
        14        13        12        16     9        0.000000        0.425340         1    ;  uncertainty k = 0.911889
        14        13        12        16     9      180.000000       13.121731         2    ;  uncertainty k = 1.266973
        14        13        12        16     9        0.000000      -13.119121         3    ;  uncertainty k = 1.817832
        14        13        12        16     9      180.000000        1.693366         4    ;  uncertainty k = 0.377703
        15        14        13        46     9        0.000000       -0.210816         1    ;  uncertainty k = 0.409318
        15        14        13        46     9      180.000000       14.525460         2    ;  uncertainty k = 0.474526
        15        14        13        46     9        0.000000        1.399987         3    ;  uncertainty k = 0.472591
        15        14        13        46     9      180.000000        0.597840         4    ;  uncertainty k = 0.116226
        16         8         7        44     9        0.000000        5.299478         1    ;  uncertainty k = 1.071663
        16         8         7        44     9      180.000000        6.121003         2    ;  uncertainty k = 0.320629
        16         8         7        44     9        0.000000        1.371092         3    ;  uncertainty k = 0.426496
        16         8         7        44     9      180.000000       -0.017304         4    ;  uncertainty k = 0.216319
        16        12        11        45     9        0.000000        1.224013         1    ;  uncertainty k = 1.441620
        16        12        11        45     9      180.000000        4.285564         2    ;  uncertainty k = 0.541130
        16        12        11        45     9        0.000000        1.126046         3    ;  uncertainty k = 0.359170
        16        12        11        45     9      180.000000        0.200397         4    ;  uncertainty k = 0.127762
        16        12        13        46     9        0.000000        0.337817         1    ;  uncertainty k = 0.998519
        16        12        13        46     9      180.000000        7.392009         2    ;  uncertainty k = 0.385665
        16        12        13        46     9        0.000000        1.061986         3    ;  uncertainty k = 0.365240
        16        12        13        46     9      180.000000        0.171584         4    ;  uncertainty k = 0.281011
        16        15        14        47     9        0.000000       -0.095582         1    ;  uncertainty k = 0.393923
        16        15        14        47     9      180.000000       14.177386         2    ;  uncertainty k = 0.352374
        16        15        14        47     9        0.000000        1.588169         3    ;  uncertainty k = 0.688228
        16        15        14        47     9      180.000000        0.904862         4    ;  uncertainty k = 0.448977
        17        10        11        45     9        0.000000       -0.216929         1    ;  uncertainty k = 0.346341
        17        10        11        45     9      180.000000        9.418175         2    ;  uncertainty k = 0.495732
        17        10        11        45     9        0.000000        1.500648         3    ;  uncertainty k = 0.314168
        17        10        11        45     9      180.000000        1.007881         4    ;  uncertainty k = 0.136891
        17        18        19        20     9        0.000000       -0.012056         1    ;  uncertainty k = 0.151619
        17        18        19        20     9      180.000000       13.850233         2    ;  uncertainty k = 0.338643
        17        18        19        20     9        0.000000       -0.893392         3    ;  uncertainty k = 0.307528
        17        18        19        20     9      180.000000        0.681687         4    ;  uncertainty k = 0.299982
        17        18        19        49     9        0.000000        0.060657         1    ;  uncertainty k = 0.117379
        17        18        19        49     9      180.000000        7.697438         2    ;  uncertainty k = 0.360549
        17        18        19        49     9        0.000000        1.435852         3    ;  uncertainty k = 0.226550
        17        18        19        49     9      180.000000        1.851608         4    ;  uncertainty k = 0.107762
        17        22        21        20     9        0.000000       -0.042378         1    ;  uncertainty k = 0.140862
        17        22        21        20     9      180.000000       10.650534         2    ;  uncertainty k = 0.356487
        17        22        21        20     9        0.000000       -0.298412         3    ;  uncertainty k = 0.337589
        17        22        21        20     9      180.000000        1.089194         4    ;  uncertainty k = 0.278688
        17        22        21        23     9        0.000000        0.534429         1    ;  uncertainty k = 0.111543
        17        22        21        23     9      180.000000        9.192381         2    ;  uncertainty k = 0.655105
        17        22        21        23     9        0.000000        1.531091         3    ;  uncertainty k = 0.184351
        17        22        21        23     9      180.000000        1.837484         4    ;  uncertainty k = 0.326806
        18        17        22        21     9        0.000000       -0.012458         1    ;  uncertainty k = 0.090713
        18        17        22        21     9      180.000000       10.180230         2    ;  uncertainty k = 0.276967
        18        17        22        21     9        0.000000       -0.056222         3    ;  uncertainty k = 0.291321
        18        17        22        21     9      180.000000        1.125297         4    ;  uncertainty k = 0.190464
        18        17        22        51     9        0.000000        0.181574         1    ;  uncertainty k = 0.115113
        18        17        22        51     9      180.000000        7.261847         2    ;  uncertainty k = 0.554433
        18        17        22        51     9        0.000000        1.303618         3    ;  uncertainty k = 0.158239
        18        17        22        51     9      180.000000        1.634910         4    ;  uncertainty k = 0.232983
        18        19        20        21     9        0.000000       -0.139381         1    ;  uncertainty k = 0.136332
        18        19        20        21     9      180.000000       13.339094         2    ;  uncertainty k = 0.375750
        18        19        20        21     9        0.000000       -0.717445         3    ;  uncertainty k = 0.324664
        18        19        20        21     9      180.000000        0.797221         4    ;  uncertainty k = 0.243008
        18        19        20        50     9        0.000000        0.068501         1    ;  uncertainty k = 0.079350
        18        19        20        50     9      180.000000        7.276537         2    ;  uncertainty k = 0.273483
        18        19        20        50     9        0.000000        1.393917         3    ;  uncertainty k = 0.234871
        18        19        20        50     9      180.000000        1.819480         4    ;  uncertainty k = 0.136310
        19        18        17        22     9        0.000000       -0.070634         1    ;  uncertainty k = 0.075332
        19        18        17        22     9      180.000000       10.756696         2    ;  uncertainty k = 0.285727
        19        18        17        22     9        0.000000       -0.527966         3    ;  uncertainty k = 0.267428
        19        18        17        22     9      180.000000        0.956766         4    ;  uncertainty k = 0.212678
        19        20        21        22     9        0.000000       -0.109854         1    ;  uncertainty k = 0.137131
        19        20        21        22     9      180.000000       10.905346         2    ;  uncertainty k = 0.374386
        19        20        21        22     9        0.000000       -0.711942         3    ;  uncertainty k = 0.170744
        19        20        21        22     9      180.000000        0.964915         4    ;  uncertainty k = 0.195521
        19        20        21        23     9        0.000000        0.358468         1    ;  uncertainty k = 0.141658
        19        20        21        23     9      180.000000        9.364145         2    ;  uncertainty k = 0.630542
        19        20        21        23     9        0.000000        1.429780         3    ;  uncertainty k = 0.340637
        19        20        21        23     9      180.000000        1.818460         4    ;  uncertainty k = 0.299565
        20        19        18        48     9        0.000000        0.091673         1    ;  uncertainty k = 0.056305
        20        19        18        48     9      180.000000        7.393375         2    ;  uncertainty k = 0.308206
        20        19        18        48     9        0.000000        1.415456         3    ;  uncertainty k = 0.242920
        20        19        18        48     9      180.000000        1.825501         4    ;  uncertainty k = 0.122623
        20        21        22        51     9        0.000000        0.352611         1    ;  uncertainty k = 0.263430
        20        21        22        51     9      180.000000        7.518730         2    ;  uncertainty k = 0.471068
        20        21        22        51     9        0.000000        1.236785         3    ;  uncertainty k = 0.248635
        20        21        22        51     9      180.000000        1.686867         4    ;  uncertainty k = 0.251884
        20        21        23        24     9        0.000000       -0.561310         1    ;  uncertainty k = 0.394341
        20        21        23        24     9      180.000000        3.721701         2    ;  uncertainty k = 0.304204
        20        21        23        24     9        0.000000        0.367548         3    ;  uncertainty k = 0.197809
        20        21        23        24     9      180.000000       -0.044178         4    ;  uncertainty k = 0.073166
        20        21        23        25     9        0.000000        0.467136         1    ;  uncertainty k = 0.365463
        20        21        23        25     9      180.000000        3.160367         2    ;  uncertainty k = 0.127993
        20        21        23        25     9        0.000000        0.129527         3    ;  uncertainty k = 0.232172
        20        21        23        25     9      180.000000       -0.134450         4    ;  uncertainty k = 0.091549
        21        20        19        49     9        0.000000       -0.096751         1    ;  uncertainty k = 0.244414
        21        20        19        49     9      180.000000        8.104427         2    ;  uncertainty k = 0.284429
        21        20        19        49     9        0.000000        1.374024         3    ;  uncertainty k = 0.182476
        21        20        19        49     9      180.000000        1.777524         4    ;  uncertainty k = 0.143784
        21        23        25        26     9        0.000000        5.130249         1    ;  uncertainty k = 1.337906
        21        23        25        26     9      180.000000       11.505497         2    ;  uncertainty k = 0.185188
        21        23        25        26     9        0.000000        1.952180         3    ;  uncertainty k = 0.217636
        21        23        25        26     9      180.000000       -1.353620         4    ;  uncertainty k = 0.517973
        21        23        25        52     9        0.000000       -1.593484         1    ;  uncertainty k = 0.534059
        21        23        25        52     9      180.000000        6.160232         2    ;  uncertainty k = 0.707342
        21        23        25        52     9        0.000000        2.307981         3    ;  uncertainty k = 0.330910
        21        23        25        52     9      180.000000        0.107396         4    ;  uncertainty k = 0.292240
        22        17        18        48     9        0.000000        0.214331         1    ;  uncertainty k = 0.100066
        22        17        18        48     9      180.000000        6.830142         2    ;  uncertainty k = 0.464069
        22        17        18        48     9        0.000000        1.336016         3    ;  uncertainty k = 0.189897
        22        17        18        48     9      180.000000        1.643551         4    ;  uncertainty k = 0.238792
        22        21        20        50     9        0.000000        0.371817         1    ;  uncertainty k = 0.211011
        22        21        20        50     9      180.000000        7.161686         2    ;  uncertainty k = 0.494660
        22        21        20        50     9        0.000000        1.269366         3    ;  uncertainty k = 0.269259
        22        21        20        50     9      180.000000        1.675677         4    ;  uncertainty k = 0.260198
        22        21        23        24     9        0.000000       -0.325455         1    ;  uncertainty k = 0.582175
        22        21        23        24     9      180.000000        3.617189         2    ;  uncertainty k = 0.440175
        22        21        23        24     9        0.000000        0.338274         3    ;  uncertainty k = 0.183020
        22        21        23        24     9      180.000000       -0.038581         4    ;  uncertainty k = 0.081435
        22        21        23        25     9        0.000000        0.420724         1    ;  uncertainty k = 0.332520
        22        21        23        25     9      180.000000        3.202548         2    ;  uncertainty k = 0.179074
        22        21        23        25     9        0.000000        0.064779         3    ;  uncertainty k = 0.208543
        22        21        23        25     9      180.000000       -0.099870         4    ;  uncertainty k = 0.087909
        23        21        20        50     9        0.000000       -0.072403         1    ;  uncertainty k = 0.402340
        23        21        20        50     9      180.000000        8.074982         2    ;  uncertainty k = 0.442134
        23        21        20        50     9        0.000000        0.956914         3    ;  uncertainty k = 0.223886
        23        21        20        50     9      180.000000        1.118668         4    ;  uncertainty k = 0.216780
        23        21        22        51     9        0.000000        0.072632         1    ;  uncertainty k = 0.672942
        23        21        22        51     9      180.000000        8.146616         2    ;  uncertainty k = 0.443491
        23        21        22        51     9        0.000000        1.060816         3    ;  uncertainty k = 0.252472
        23        21        22        51     9      180.000000        1.243253         4    ;  uncertainty k = 0.262901
        23        25        26        27     9        0.000000        1.142420         1    ;  uncertainty k = 0.668042
        23        25        26        27     9      180.000000        3.748528         2    ;  uncertainty k = 0.231955
        23        25        26        27     9        0.000000        0.885588         3    ;  uncertainty k = 0.127731
        23        25        26        27     9      180.000000        0.318895         4    ;  uncertainty k = 0.054395
        23        25        26        31     9        0.000000        1.146042         1    ;  uncertainty k = 0.934458
        23        25        26        31     9      180.000000        3.616668         2    ;  uncertainty k = 0.155214
        23        25        26        31     9        0.000000        0.845706         3    ;  uncertainty k = 0.140300
        23        25        26        31     9      180.000000        0.358401         4    ;  uncertainty k = 0.102600
        24        23        25        26     9        0.000000        0.878626         1    ;  uncertainty k = 1.213576
        24        23        25        26     9      180.000000       11.527776         2    ;  uncertainty k = 0.107348
        24        23        25        26     9        0.000000        0.896509         3    ;  uncertainty k = 0.332115
        24        23        25        26     9      180.000000       -0.319687         4    ;  uncertainty k = 0.131451
        24        23        25        52     9        0.000000        2.425172         1    ;  uncertainty k = 0.881479
        24        23        25        52     9      180.000000       13.401577         2    ;  uncertainty k = 0.256718
        24        23        25        52     9        0.000000        1.826911         3    ;  uncertainty k = 0.337282
        24        23        25        52     9      180.000000       -0.408400         4    ;  uncertainty k = 0.145815
        25        26        27        28     9        0.000000       -0.058734         1    ;  uncertainty k = 0.161003
        25        26        27        28     9      180.000000       10.417765         2    ;  uncertainty k = 0.639059
        25        26        27        28     9        0.000000        1.027070         3    ;  uncertainty k = 0.416436
        25        26        27        28     9      180.000000        1.694462         4    ;  uncertainty k = 0.343602
        25        26        27        53     9        0.000000       -0.200716         1    ;  uncertainty k = 0.186749
        25        26        27        53     9      180.000000        8.081995         2    ;  uncertainty k = 0.369999
        25        26        27        53     9        0.000000        0.776051         3    ;  uncertainty k = 0.238351
        25        26        27        53     9      180.000000        1.162230         4    ;  uncertainty k = 0.252933
        25        26        31        30     9        0.000000        0.362002         1    ;  uncertainty k = 0.257422
        25        26        31        30     9      180.000000       10.771848         2    ;  uncertainty k = 0.619627
        25        26        31        30     9        0.000000        0.916192         3    ;  uncertainty k = 0.281777
        25        26        31        30     9      180.000000        1.408958         4    ;  uncertainty k = 0.485766
        25        26        31        56     9        0.000000       -0.261231         1    ;  uncertainty k = 0.345156
        25        26        31        56     9      180.000000        8.440715         2    ;  uncertainty k = 0.525757
        25        26        31        56     9        0.000000        0.784948         3    ;  uncertainty k = 0.232824
        25        26        31        56     9      180.000000        1.110741         4    ;  uncertainty k = 0.257292
        26        27        28        29     9        0.000000       -0.176424         1    ;  uncertainty k = 0.100854
        26        27        28        29     9      180.000000       13.958834         2    ;  uncertainty k = 0.131124
        26        27        28        29     9        0.000000       -0.862744         3    ;  uncertainty k = 0.209770
        26        27        28        29     9      180.000000        0.726794         4    ;  uncertainty k = 0.134580
        26        27        28        54     9        0.000000       -0.062435         1    ;  uncertainty k = 0.243204
        26        27        28        54     9      180.000000        8.095422         2    ;  uncertainty k = 0.568770
        26        27        28        54     9        0.000000        1.146662         3    ;  uncertainty k = 0.341024
        26        27        28        54     9      180.000000        1.599163         4    ;  uncertainty k = 0.162314
        26        31        30        29     9        0.000000       -0.274752         1    ;  uncertainty k = 0.263699
        26        31        30        29     9      180.000000        9.922104         2    ;  uncertainty k = 0.499041
        26        31        30        29     9        0.000000       -0.055984         3    ;  uncertainty k = 0.349794
        26        31        30        29     9      180.000000        1.146532         4    ;  uncertainty k = 0.186274
        26        31        30        32     9        0.000000        0.055720         1    ;  uncertainty k = 0.495267
        26        31        30        32     9      180.000000        7.535676         2    ;  uncertainty k = 1.168732
        26        31        30        32     9        0.000000        1.553022         3    ;  uncertainty k = 0.249603
        26        31        30        32     9      180.000000        1.780564         4    ;  uncertainty k = 0.515969
        27        26        25        52     9        0.000000       -0.025247         1    ;  uncertainty k = 0.455505
        27        26        25        52     9      180.000000        3.238055         2    ;  uncertainty k = 0.241875
        27        26        25        52     9        0.000000        0.569693         3    ;  uncertainty k = 0.157201
        27        26        25        52     9      180.000000        0.336555         4    ;  uncertainty k = 0.092155
        27        26        31        30     9        0.000000       -0.051383         1    ;  uncertainty k = 0.443999
        27        26        31        30     9      180.000000        9.172212         2    ;  uncertainty k = 0.523817
        27        26        31        30     9        0.000000        0.108031         3    ;  uncertainty k = 0.362554
        27        26        31        30     9      180.000000        1.165291         4    ;  uncertainty k = 0.219010
        27        26        31        56     9        0.000000        0.276124         1    ;  uncertainty k = 0.438205
        27        26        31        56     9      180.000000        7.277317         2    ;  uncertainty k = 0.565119
        27        26        31        56     9        0.000000        1.169432         3    ;  uncertainty k = 0.238137
        27        26        31        56     9      180.000000        1.493880         4    ;  uncertainty k = 0.255683
        27        28        29        30     9        0.000000       -0.064124         1    ;  uncertainty k = 0.499937
        27        28        29        30     9      180.000000       13.321627         2    ;  uncertainty k = 0.420725
        27        28        29        30     9        0.000000       -0.832421         3    ;  uncertainty k = 0.447569
        27        28        29        30     9      180.000000        0.849249         4    ;  uncertainty k = 0.241934
        27        28        29        55     9        0.000000        0.234504         1    ;  uncertainty k = 0.450513
        27        28        29        55     9      180.000000        7.891453         2    ;  uncertainty k = 0.420015
        27        28        29        55     9        0.000000        1.429274         3    ;  uncertainty k = 0.212236
        27        28        29        55     9      180.000000        1.842412         4    ;  uncertainty k = 0.227569
        28        27        26        31     9        0.000000       -0.063632         1    ;  uncertainty k = 0.267741
        28        27        26        31     9      180.000000       10.227114         2    ;  uncertainty k = 0.417556
        28        27        26        31     9        0.000000       -0.307685         3    ;  uncertainty k = 0.114782
        28        27        26        31     9      180.000000        1.078140         4    ;  uncertainty k = 0.158836
        28        29        30        31     9        0.000000       -0.164319         1    ;  uncertainty k = 0.383716
        28        29        30        31     9      180.000000       10.395132         2    ;  uncertainty k = 0.431545
        28        29        30        31     9        0.000000       -0.387190         3    ;  uncertainty k = 0.558289
        28        29        30        31     9      180.000000        1.008187         4    ;  uncertainty k = 0.131246
        28        29        30        32     9        0.000000        0.041883         1    ;  uncertainty k = 0.759567
        28        29        30        32     9      180.000000        7.415022         2    ;  uncertainty k = 0.806751
        28        29        30        32     9        0.000000        1.497168         3    ;  uncertainty k = 0.247883
        28        29        30        32     9      180.000000        1.812068         4    ;  uncertainty k = 0.434247
        29        28        27        53     9        0.000000        0.111099         1    ;  uncertainty k = 0.100503
        29        28        27        53     9      180.000000        8.078454         2    ;  uncertainty k = 0.435775
        29        28        27        53     9        0.000000        1.450530         3    ;  uncertainty k = 0.217523
        29        28        27        53     9      180.000000        1.827876         4    ;  uncertainty k = 0.218525
        29        30        31        56     9        0.000000        0.526898         1    ;  uncertainty k = 0.501845
        29        30        31        56     9      180.000000        7.382453         2    ;  uncertainty k = 0.743041
        29        30        31        56     9        0.000000        1.247724         3    ;  uncertainty k = 0.131693
        29        30        31        56     9      180.000000        1.645050         4    ;  uncertainty k = 0.472295
        29        30        32        33     9        0.000000       -1.132867         1    ;  uncertainty k = 0.874088
        29        30        32        33     9      180.000000        1.737048         2    ;  uncertainty k = 0.118872
        29        30        32        33     9        0.000000        0.211720         3    ;  uncertainty k = 0.225648
        29        30        32        33     9      180.000000        0.085742         4    ;  uncertainty k = 0.062950
        29        30        32        34     9        0.000000       -1.132867         1    ;  uncertainty k = 0.874088
        29        30        32        34     9      180.000000        1.737048         2    ;  uncertainty k = 0.118872
        29        30        32        34     9        0.000000        0.211720         3    ;  uncertainty k = 0.225648
        29        30        32        34     9      180.000000        0.085742         4    ;  uncertainty k = 0.062950
        30        29        28        54     9        0.000000        0.064069         1    ;  uncertainty k = 0.432343
        30        29        28        54     9      180.000000        8.187010         2    ;  uncertainty k = 0.581526
        30        29        28        54     9        0.000000        1.153611         3    ;  uncertainty k = 0.145581
        30        29        28        54     9      180.000000        1.597624         4    ;  uncertainty k = 0.221996
        31        26        25        52     9        0.000000        0.837142         1    ;  uncertainty k = 0.474793
        31        26        25        52     9      180.000000        3.143228         2    ;  uncertainty k = 0.568691
        31        26        25        52     9        0.000000        0.566312         3    ;  uncertainty k = 0.198825
        31        26        25        52     9      180.000000        0.280577         4    ;  uncertainty k = 0.108308
        31        26        27        53     9        0.000000        0.105631         1    ;  uncertainty k = 0.307924
        31        26        27        53     9      180.000000        6.896537         2    ;  uncertainty k = 0.587811
        31        26        27        53     9        0.000000        1.146763         3    ;  uncertainty k = 0.346496
        31        26        27        53     9      180.000000        1.459607         4    ;  uncertainty k = 0.186827
        31        30        29        55     9        0.000000        0.407127         1    ;  uncertainty k = 0.223122
        31        30        29        55     9      180.000000        6.738109         2    ;  uncertainty k = 0.794427
        31        30        29        55     9        0.000000        1.100639         3    ;  uncertainty k = 0.210971
        31        30        29        55     9      180.000000        1.686765         4    ;  uncertainty k = 0.343316
        31        30        32        33     9        0.000000       -0.885514         1    ;  uncertainty k = 0.923619
        31        30        32        33     9      180.000000        1.915886         2    ;  uncertainty k = 0.342657
        31        30        32        33     9        0.000000        0.250469         3    ;  uncertainty k = 0.185555
        31        30        32        33     9      180.000000        0.114940         4    ;  uncertainty k = 0.070988
        31        30        32        34     9        0.000000       -0.885514         1    ;  uncertainty k = 0.923619
        31        30        32        34     9      180.000000        1.915886         2    ;  uncertainty k = 0.342657
        31        30        32        34     9        0.000000        0.250469         3    ;  uncertainty k = 0.185555
        31        30        32        34     9      180.000000        0.114940         4    ;  uncertainty k = 0.070988
        32        30        29        55     9        0.000000       -0.127017         1    ;  uncertainty k = 0.452495
        32        30        29        55     9      180.000000        7.427802         2    ;  uncertainty k = 0.878088
        32        30        29        55     9        0.000000        1.008984         3    ;  uncertainty k = 0.356041
        32        30        29        55     9      180.000000        1.208500         4    ;  uncertainty k = 0.358128
        32        30        31        56     9        0.000000       -0.046462         1    ;  uncertainty k = 0.301937
        32        30        31        56     9      180.000000        7.563275         2    ;  uncertainty k = 1.106423
        32        30        31        56     9        0.000000        1.094085         3    ;  uncertainty k = 0.467521
        32        30        31        56     9      180.000000        1.360330         4    ;  uncertainty k = 0.329116
        35         6         5        43     9        0.000000        0.060116         1    ;  uncertainty k = 0.285327
        35         6         5        43     9      180.000000        6.705137         2    ;  uncertainty k = 0.811645
        35         6         5        43     9        0.000000        1.254749         3    ;  uncertainty k = 0.282861
        35         6         5        43     9      180.000000        1.489480         4    ;  uncertainty k = 0.123486
        35         6         7        44     9        0.000000        3.766903         1    ;  uncertainty k = 0.282406
        35         6         7        44     9      180.000000        4.224135         2    ;  uncertainty k = 0.219472
        35         6         7        44     9        0.000000        0.731781         3    ;  uncertainty k = 0.239894
        35         6         7        44     9      180.000000        0.435986         4    ;  uncertainty k = 0.107235
        35        36        37        38     9        0.000000        1.341409         1    ;  uncertainty k = 0.791973
        35        36        37        38     9      180.000000        6.361826         2    ;  uncertainty k = 0.220151
        35        36        37        38     9        0.000000       -0.225719         3    ;  uncertainty k = 0.095998
        35        36        37        38     9      180.000000        0.006631         4    ;  uncertainty k = 0.110606
        36         3         4        42     9        0.000000       -0.032441         1    ;  uncertainty k = 0.368382
        36         3         4        42     9      180.000000        5.959632         2    ;  uncertainty k = 0.432853
        36         3         4        42     9        0.000000        1.321132         3    ;  uncertainty k = 0.261791
        36         3         4        42     9      180.000000        1.598351         4    ;  uncertainty k = 0.068542
        36        37        38        58     9        0.000000        1.110243         1    ;  uncertainty k = 0.221947
        36        37        38        58     9      180.000000       -2.083404         2    ;  uncertainty k = 0.117430
        36        37        38        58     9        0.000000        1.033193         3    ;  uncertainty k = 0.049823
        36        37        38        58     9      180.000000        0.223294         4    ;  uncertainty k = 0.039928
        36        37        38        59     9        0.000000        1.110243         1    ;  uncertainty k = 0.221947
        36        37        38        59     9      180.000000       -2.083404         2    ;  uncertainty k = 0.117430
        36        37        38        59     9        0.000000        1.033193         3    ;  uncertainty k = 0.049823
        36        37        38        59     9      180.000000        0.223294         4    ;  uncertainty k = 0.039928
        36        37        38        60     9        0.000000        1.110243         1    ;  uncertainty k = 0.221947
        36        37        38        60     9      180.000000       -2.083404         2    ;  uncertainty k = 0.117430
        36        37        38        60     9        0.000000        1.033193         3    ;  uncertainty k = 0.049823
        36        37        38        60     9      180.000000        0.223294         4    ;  uncertainty k = 0.039928
        37        36        35        57     9        0.000000       -0.013362         1    ;  uncertainty k = 0.227812
        37        36        35        57     9      180.000000        9.629865         2    ;  uncertainty k = 0.341224
        37        36        35        57     9        0.000000        0.885574         3    ;  uncertainty k = 0.134168
        37        36        35        57     9      180.000000        1.294493         4    ;  uncertainty k = 0.314813
        42         4         5        43     9        0.000000       -0.108356         1    ;  uncertainty k = 0.187628
        42         4         5        43     9      180.000000        7.451232         2    ;  uncertainty k = 0.478631
        42         4         5        43     9        0.000000       -0.297348         3    ;  uncertainty k = 0.298879
        42         4         5        43     9      180.000000        0.257401         4    ;  uncertainty k = 0.173209
        46        13        14        47     9        0.000000       -0.311075         1    ;  uncertainty k = 0.492453
        46        13        14        47     9      180.000000        5.384359         2    ;  uncertainty k = 0.598234
        46        13        14        47     9        0.000000        1.243313         3    ;  uncertainty k = 0.430720
        46        13        14        47     9      180.000000        0.271791         4    ;  uncertainty k = 0.092255
        48        18        19        49     9        0.000000       -0.168338         1    ;  uncertainty k = 0.209338
        48        18        19        49     9      180.000000        7.942593         2    ;  uncertainty k = 0.305250
        48        18        19        49     9        0.000000       -0.425408         3    ;  uncertainty k = 0.239928
        48        18        19        49     9      180.000000        0.154353         4    ;  uncertainty k = 0.150806
        49        19        20        50     9        0.000000       -0.184966         1    ;  uncertainty k = 0.269498
        49        19        20        50     9      180.000000        7.819208         2    ;  uncertainty k = 0.379674
        49        19        20        50     9        0.000000       -0.376880         3    ;  uncertainty k = 0.213324
        49        19        20        50     9      180.000000        0.166141         4    ;  uncertainty k = 0.144263
        53        27        28        54     9        0.000000       -0.187333         1    ;  uncertainty k = 0.523620
        53        27        28        54     9      180.000000        7.472540         2    ;  uncertainty k = 0.517830
        53        27        28        54     9        0.000000       -0.475887         3    ;  uncertainty k = 0.286154
        53        27        28        54     9      180.000000        0.221313         4    ;  uncertainty k = 0.161156
        54        28        29        55     9        0.000000       -0.124588         1    ;  uncertainty k = 0.264633
        54        28        29        55     9      180.000000        7.310070         2    ;  uncertainty k = 0.607293
        54        28        29        55     9        0.000000       -0.213908         3    ;  uncertainty k = 0.336916
        54        28        29        55     9      180.000000        0.229827         4    ;  uncertainty k = 0.294555

[ dihedrals ] ; impropers
;       ai        aj        ak        al funct           phase               k        pn
         3         2         4        36     4      180.000000       15.206029         2    ;  uncertainty k = 0.074967
         3         4        36         2     4      180.000000       15.206029         2    ;  uncertainty k = 0.074967
         3        36         2         4     4      180.000000       15.206029         2    ;  uncertainty k = 0.074967
         4         3         5        42     4      180.000000        2.008335         2    ;  uncertainty k = 0.230964
         4         5        42         3     4      180.000000        2.008335         2    ;  uncertainty k = 0.230964
         4        42         3         5     4      180.000000        2.008335         2    ;  uncertainty k = 0.230964
         5         4         6        43     4      180.000000        2.607477         2    ;  uncertainty k = 0.379217
         5         6        43         4     4      180.000000        2.607477         2    ;  uncertainty k = 0.379217
         5        43         4         6     4      180.000000        2.607477         2    ;  uncertainty k = 0.379217
         6         5         7        35     4      180.000000       17.507517         2    ;  uncertainty k = 0.057196
         6         7        35         5     4      180.000000       17.507517         2    ;  uncertainty k = 0.057196
         6        35         5         7     4      180.000000       17.507517         2    ;  uncertainty k = 0.057196
         7         6         8        44     4      180.000000        1.622505         2    ;  uncertainty k = 0.666333
         7         8        44         6     4      180.000000        1.622505         2    ;  uncertainty k = 0.666333
         7        44         6         8     4      180.000000        1.622505         2    ;  uncertainty k = 0.666333
         8         7         9        16     4      180.000000       28.356151         2    ;  uncertainty k = 0.063061
         8         9        16         7     4      180.000000       28.356151         2    ;  uncertainty k = 0.063061
         8        16         7         9     4      180.000000       28.356151         2    ;  uncertainty k = 0.063061
        10         9        11        17     4      180.000000       19.449388         2    ;  uncertainty k = 0.082010
        10        11        17         9     4      180.000000       19.449388         2    ;  uncertainty k = 0.082010
        10        17         9        11     4      180.000000       19.449388         2    ;  uncertainty k = 0.082010
        11        10        12        45     4      180.000000        1.395890         2    ;  uncertainty k = 1.170220
        11        12        45        10     4      180.000000        1.395890         2    ;  uncertainty k = 1.170220
        11        45        10        12     4      180.000000        1.395890         2    ;  uncertainty k = 1.170220
        12        11        13        16     4      180.000000        1.589327         2    ;  uncertainty k = 1.390534
        12        13        16        11     4      180.000000        1.589327         2    ;  uncertainty k = 1.390534
        12        16        11        13     4      180.000000        1.589327         2    ;  uncertainty k = 1.390534
        13        12        14        46     4      180.000000        0.105195         2    ;  uncertainty k = 0.235223
        13        14        46        12     4      180.000000        0.105195         2    ;  uncertainty k = 0.235223
        13        46        12        14     4      180.000000        0.105195         2    ;  uncertainty k = 0.235223
        14        13        15        47     4      180.000000        1.779599         2    ;  uncertainty k = 0.230150
        14        15        47        13     4      180.000000        1.779599         2    ;  uncertainty k = 0.230150
        14        47        13        15     4      180.000000        1.779599         2    ;  uncertainty k = 0.230150
        16         8        12        15     4      180.000000        2.165381         2    ;  uncertainty k = 0.627947
        16        12        15         8     4      180.000000        2.165381         2    ;  uncertainty k = 0.627947
        16        15         8        12     4      180.000000        2.165381         2    ;  uncertainty k = 0.627947
        17        10        18        22     4      180.000000       10.912960         2    ;  uncertainty k = 0.153895
        17        18        22        10     4      180.000000       10.912960         2    ;  uncertainty k = 0.153895
        17        22        10        18     4      180.000000       10.912960         2    ;  uncertainty k = 0.153895
        18        17        19        48     4      180.000000        4.456891         2    ;  uncertainty k = 0.077296
        18        19        48        17     4      180.000000        4.456891         2    ;  uncertainty k = 0.077296
        18        48        17        19     4      180.000000        4.456891         2    ;  uncertainty k = 0.077296
        19        18        20        49     4      180.000000        3.384206         2    ;  uncertainty k = 0.178258
        19        20        49        18     4      180.000000        3.384206         2    ;  uncertainty k = 0.178258
        19        49        18        20     4      180.000000        3.384206         2    ;  uncertainty k = 0.178258
        20        19        21        50     4      180.000000        4.336299         2    ;  uncertainty k = 0.147129
        20        21        50        19     4      180.000000        4.336299         2    ;  uncertainty k = 0.147129
        20        50        19        21     4      180.000000        4.336299         2    ;  uncertainty k = 0.147129
        21        20        22        23     4      180.000000        7.405496         2    ;  uncertainty k = 0.127913
        21        22        23        20     4      180.000000        7.405496         2    ;  uncertainty k = 0.127913
        21        23        20        22     4      180.000000        7.405496         2    ;  uncertainty k = 0.127913
        22        17        21        51     4      180.000000        4.458779         2    ;  uncertainty k = 0.241907
        22        21        51        17     4      180.000000        4.458779         2    ;  uncertainty k = 0.241907
        22        51        17        21     4      180.000000        4.458779         2    ;  uncertainty k = 0.241907
        23        21        24        25     4      180.000000       52.737483         2    ;  uncertainty k = 0.035431
        23        24        25        21     4      180.000000       52.737483         2    ;  uncertainty k = 0.035431
        23        25        21        24     4      180.000000       52.737483         2    ;  uncertainty k = 0.035431
        25        23        26        52     4      180.000000        0.427170         2    ;  uncertainty k = 0.789136
        25        26        52        23     4      180.000000        0.427170         2    ;  uncertainty k = 0.789136
        25        52        23        26     4      180.000000        0.427170         2    ;  uncertainty k = 0.789136
        26        25        27        31     4      180.000000       15.809905         2    ;  uncertainty k = 0.166565
        26        27        31        25     4      180.000000       15.809905         2    ;  uncertainty k = 0.166565
        26        31        25        27     4      180.000000       15.809905         2    ;  uncertainty k = 0.166565
        27        26        28        53     4      180.000000        2.155932         2    ;  uncertainty k = 0.312614
        27        28        53        26     4      180.000000        2.155932         2    ;  uncertainty k = 0.312614
        27        53        26        28     4      180.000000        2.155932         2    ;  uncertainty k = 0.312614
        28        27        29        54     4      180.000000        3.501728         2    ;  uncertainty k = 0.412293
        28        29        54        27     4      180.000000        3.501728         2    ;  uncertainty k = 0.412293
        28        54        27        29     4      180.000000        3.501728         2    ;  uncertainty k = 0.412293
        29        28        30        55     4      180.000000        3.646779         2    ;  uncertainty k = 0.348784
        29        30        55        28     4      180.000000        3.646779         2    ;  uncertainty k = 0.348784
        29        55        28        30     4      180.000000        3.646779         2    ;  uncertainty k = 0.348784
        30        29        31        32     4      180.000000       13.373494         2    ;  uncertainty k = 0.370913
        30        31        32        29     4      180.000000       13.373494         2    ;  uncertainty k = 0.370913
        30        32        29        31     4      180.000000       13.373494         2    ;  uncertainty k = 0.370913
        31        26        30        56     4      180.000000        3.955247         2    ;  uncertainty k = 0.322483
        31        30        56        26     4      180.000000        3.955247         2    ;  uncertainty k = 0.322483
        31        56        26        30     4      180.000000        3.955247         2    ;  uncertainty k = 0.322483
        32        30        33        34     4      180.000000       65.798591         2    ;  uncertainty k = 0.052772
        32        33        34        30     4      180.000000       65.798591         2    ;  uncertainty k = 0.052772
        32        34        30        33     4      180.000000       65.798591         2    ;  uncertainty k = 0.052772
        35         6        36        57     4      180.000000        1.689048         2    ;  uncertainty k = 0.529654
        35        36        57         6     4      180.000000        1.689048         2    ;  uncertainty k = 0.529654
        35        57         6        36     4      180.000000        1.689048         2    ;  uncertainty k = 0.529654
        36         3        35        37     4      180.000000       16.672261         2    ;  uncertainty k = 0.075717
        36        35        37         3     4      180.000000       16.672261         2    ;  uncertainty k = 0.075717
        36        37         3        35     4      180.000000       16.672261         2    ;  uncertainty k = 0.075717

[ pairs ]
;       ai        aj funct
         1         4     1
         1        36     1
         2         5     1
         2        35     1
         2        37     1
         2        42     1
         3         6     1
         3        38     1
         3        39     1
         3        40     1
         3        41     1
         3        43     1
         3        57     1
         4         7     1
         4        35     1
         4        37     1
         5         8     1
         5        36     1
         5        44     1
         5        57     1
         6         9     1
         6        16     1
         6        37     1
         6        42     1
         7        10     1
         7        12     1
         7        15     1
         7        36     1
         7        43     1
         7        57     1
         8        11     1
         8        13     1
         8        14     1
         8        17     1
         8        35     1
         9        12     1
         9        15     1
         9        18     1
         9        22     1
         9        44     1
         9        45     1
        10        13     1
        10        16     1
        10        19     1
        10        21     1
        10        48     1
        10        51     1
        11        14     1
        11        15     1
        11        18     1
        11        22     1
        11        46     1
        12        17     1
        12        47     1
        13        45     1
        15        46     1
        16        44     1
        16        45     1
        16        46     1
        16        47     1
        17        20     1
        17        23     1
        17        45     1
        17        49     1
        18        21     1
        18        50     1
        18        51     1
        19        22     1
        19        23     1
        20        24     1
        20        25     1
        20        48     1
        20        51     1
        21        26     1
        21        49     1
        21        52     1
        22        24     1
        22        25     1
        22        48     1
        22        50     1
        23        27     1
        23        31     1
        23        50     1
        23        51     1
        24        26     1
        24        52     1
        25        28     1
        25        30     1
        25        53     1
        25        56     1
        26        29     1
        26        32     1
        26        54     1
        27        30     1
        27        52     1
        27        55     1
        27        56     1
        28        31     1
        28        32     1
        29        33     1
        29        34     1
        29        53     1
        29        56     1
        30        54     1
        31        33     1
        31        34     1
        31        52     1
        31        53     1
        31        55     1
        32        55     1
        32        56     1
        35        38     1
        35        43     1
        35        44     1
        36        42     1
        36        58     1
        36        59     1
        36        60     1
        37        57     1
        42        43     1
        46        47     1
        48        49     1
        49        50     1
        53        54     1
        54        55     1
