; ITP file created by ByteFF-joint-25, 2026-02-17 09:44:37.555410

[ atomtypes ]
;name           bonded.type        at.num        mass        charge   ptype           sigma         epsilon
 c0bf                                   6      0.0000       0.00000       A     3.39783e-01     4.51239e-01    ;  uncertainty sigma = 0.000005, epsilon = 0.000644
 n1bf                                   7      0.0000       0.00000       A     3.19009e-01     8.98983e-01    ;  uncertainty sigma = 0.000032, epsilon = 0.002836
 c2bf                                   6      0.0000       0.00000       A     3.39797e-01     4.50650e-01    ;  uncertainty sigma = 0.000008, epsilon = 0.000865
 c3bf                                   6      0.0000       0.00000       A     3.39787e-01     4.50511e-01    ;  uncertainty sigma = 0.000022, epsilon = 0.000551
 o4bf                                   8      0.0000       0.00000       A     3.24275e-01     3.88183e-01    ;  uncertainty sigma = 0.000029, epsilon = 0.001318
 c5bf                                   6      0.0000       0.00000       A     3.31532e-01     4.13300e-01    ;  uncertainty sigma = 0.000013, epsilon = 0.001180
 c6bf                                   6      0.0000       0.00000       A     3.31528e-01     4.13510e-01    ;  uncertainty sigma = 0.000005, epsilon = 0.000567
 c7bf                                   6      0.0000       0.00000       A     3.31518e-01     4.13406e-01    ;  uncertainty sigma = 0.000011, epsilon = 0.000822
 c8bf                                   6      0.0000       0.00000       A     3.31525e-01     4.13461e-01    ;  uncertainty sigma = 0.000004, epsilon = 0.001015
 n9bf                                   7      0.0000       0.00000       A     3.27838e-01     6.46213e-01    ;  uncertainty sigma = 0.000040, epsilon = 0.003240
 c10bf                                  6      0.0000       0.00000       A     3.31526e-01     4.13887e-01    ;  uncertainty sigma = 0.000017, epsilon = 0.001682
 n11bf                                  7      0.0000       0.00000       A     3.38464e-01     3.93282e-01    ;  uncertainty sigma = 0.000032, epsilon = 0.000680
 c12bf                                  6      0.0000       0.00000       A     3.31551e-01     4.13482e-01    ;  uncertainty sigma = 0.000026, epsilon = 0.000675
 c13bf                                  6      0.0000       0.00000       A     3.31561e-01     4.13642e-01    ;  uncertainty sigma = 0.000012, epsilon = 0.001524
 n14bf                                  7      0.0000       0.00000       A     3.20547e-01     8.53303e-01    ;  uncertainty sigma = 0.000017, epsilon = 0.000844
 c15bf                                  6      0.0000       0.00000       A     3.31503e-01     4.12978e-01    ;  uncertainty sigma = 0.000012, epsilon = 0.001136
 c16bf                                  6      0.0000       0.00000       A     3.31531e-01     4.13187e-01    ;  uncertainty sigma = 0.000008, epsilon = 0.000699
 n17bf                                  7      0.0000       0.00000       A     3.38427e-01     3.92895e-01    ;  uncertainty sigma = 0.000039, epsilon = 0.000415
 c18bf                                  6      0.0000       0.00000       A     3.31554e-01     4.12537e-01    ;  uncertainty sigma = 0.000015, epsilon = 0.000432
 c19bf                                  6      0.0000       0.00000       A     3.31495e-01     4.12862e-01    ;  uncertainty sigma = 0.000015, epsilon = 0.000655
 c20bf                                  6      0.0000       0.00000       A     3.31522e-01     4.13340e-01    ;  uncertainty sigma = 0.000008, epsilon = 0.000498
 c21bf                                  6      0.0000       0.00000       A     3.31514e-01     4.13292e-01    ;  uncertainty sigma = 0.000012, epsilon = 0.000796
 c22bf                                  6      0.0000       0.00000       A     3.31509e-01     4.13757e-01    ;  uncertainty sigma = 0.000011, epsilon = 0.000799
 c23bf                                  6      0.0000       0.00000       A     3.31513e-01     4.13361e-01    ;  uncertainty sigma = 0.000005, epsilon = 0.000518
 n24bf                                  7      0.0000       0.00000       A     3.38391e-01     3.93277e-01    ;  uncertainty sigma = 0.000010, epsilon = 0.000960
 n25bf                                  7      0.0000       0.00000       A     3.20633e-01     8.53349e-01    ;  uncertainty sigma = 0.000014, epsilon = 0.001516
 c26bf                                  6      0.0000       0.00000       A     3.31512e-01     4.13040e-01    ;  uncertainty sigma = 0.000009, epsilon = 0.000957
 c27bf                                  6      0.0000       0.00000       A     3.31510e-01     4.13220e-01    ;  uncertainty sigma = 0.000011, epsilon = 0.001090
 c28bf                                  6      0.0000       0.00000       A     3.31518e-01     4.13406e-01    ;  uncertainty sigma = 0.000011, epsilon = 0.000822
 c29bf                                  6      0.0000       0.00000       A     3.31528e-01     4.13510e-01    ;  uncertainty sigma = 0.000005, epsilon = 0.000567
 h30bf                                  1      0.0000       0.00000       A     2.42199e-01     8.67476e-02    ;  uncertainty sigma = 0.000016, epsilon = 0.000538
 h31bf                                  1      0.0000       0.00000       A     2.42199e-01     8.67476e-02    ;  uncertainty sigma = 0.000016, epsilon = 0.000538
 h32bf                                  1      0.0000       0.00000       A     2.42199e-01     8.67476e-02    ;  uncertainty sigma = 0.000016, epsilon = 0.000538
 h33bf                                  1      0.0000       0.00000       A     2.42205e-01     8.66041e-02    ;  uncertainty sigma = 0.000035, epsilon = 0.000771
 h34bf                                  1      0.0000       0.00000       A     2.42205e-01     8.66041e-02    ;  uncertainty sigma = 0.000035, epsilon = 0.000771
 h35bf                                  1      0.0000       0.00000       A     2.42129e-01     8.63616e-02    ;  uncertainty sigma = 0.000019, epsilon = 0.000709
 h36bf                                  1      0.0000       0.00000       A     2.42129e-01     8.63616e-02    ;  uncertainty sigma = 0.000019, epsilon = 0.000709
 h37bf                                  1      0.0000       0.00000       A     5.37995e-02     1.93817e-02    ;  uncertainty sigma = 0.000100, epsilon = 0.001338
 h38bf                                  1      0.0000       0.00000       A     2.62565e-01     6.71969e-02    ;  uncertainty sigma = 0.000012, epsilon = 0.000593
 h39bf                                  1      0.0000       0.00000       A     2.62567e-01     6.70631e-02    ;  uncertainty sigma = 0.000015, epsilon = 0.000416
 h40bf                                  1      0.0000       0.00000       A     1.10708e-01     4.06502e-02    ;  uncertainty sigma = 0.000118, epsilon = 0.000465
 h41bf                                  1      0.0000       0.00000       A     2.53612e-01     6.73648e-02    ;  uncertainty sigma = 0.000081, epsilon = 0.000889
 h42bf                                  1      0.0000       0.00000       A     2.53649e-01     6.68496e-02    ;  uncertainty sigma = 0.000023, epsilon = 0.000657
 h43bf                                  1      0.0000       0.00000       A     2.53645e-01     6.69492e-02    ;  uncertainty sigma = 0.000020, epsilon = 0.000834
 h44bf                                  1      0.0000       0.00000       A     2.62566e-01     6.71205e-02    ;  uncertainty sigma = 0.000011, epsilon = 0.000550
 h45bf                                  1      0.0000       0.00000       A     2.62563e-01     6.68746e-02    ;  uncertainty sigma = 0.000013, epsilon = 0.000544
 h46bf                                  1      0.0000       0.00000       A     2.53655e-01     6.72548e-02    ;  uncertainty sigma = 0.000027, epsilon = 0.000407
 h47bf                                  1      0.0000       0.00000       A     1.10649e-01     4.13996e-02    ;  uncertainty sigma = 0.000067, epsilon = 0.000803
 h48bf                                  1      0.0000       0.00000       A     2.62569e-01     6.71239e-02    ;  uncertainty sigma = 0.000008, epsilon = 0.000504
 h49bf                                  1      0.0000       0.00000       A     2.62567e-01     6.70633e-02    ;  uncertainty sigma = 0.000015, epsilon = 0.000416
 h50bf                                  1      0.0000       0.00000       A     2.62565e-01     6.71969e-02    ;  uncertainty sigma = 0.000012, epsilon = 0.000594

[ moleculetype ]
;name             nrexcl
 MOL                   3

[ atoms ]
;       nr            type      resi   res      atom      cgnr      charge          mass ; qtot
         1            c0bf         1   UNL        c0         1     0.19620       12.0110 ; qtot    0.196
         2            n1bf         1   UNL        n1         2    -0.69004       14.0070 ; qtot   -0.494
         3            c2bf         1   UNL        c2         3     0.18318       12.0110 ; qtot   -0.311
         4            c3bf         1   UNL        c3         4     0.11500       12.0110 ; qtot   -0.196
         5            o4bf         1   UNL        o4         5    -0.60116       15.9990 ; qtot   -0.797
         6            c5bf         1   UNL        c5         6     0.14316       12.0110 ; qtot   -0.654
         7            c6bf         1   UNL        c6         7    -0.16968       12.0110 ; qtot   -0.823
         8            c7bf         1   UNL        c7         8    -0.12823       12.0110 ; qtot   -0.952
         9            c8bf         1   UNL        c8         9     0.14570       12.0110 ; qtot   -0.806
        10            n9bf         1   UNL        n9        10    -0.73953       14.0070 ; qtot   -1.545
        11           c10bf         1   UNL       c10        11     0.75024       12.0110 ; qtot   -0.795
        12           n11bf         1   UNL       n11        12    -0.76973       14.0070 ; qtot   -1.565
        13           c12bf         1   UNL       c12        13     0.47542       12.0110 ; qtot   -1.089
        14           c13bf         1   UNL       c13        14    -0.22208       12.0110 ; qtot   -1.312
        15           n14bf         1   UNL       n14        15     0.05408       14.0070 ; qtot   -1.257
        16           c15bf         1   UNL       c15        16    -0.21243       12.0110 ; qtot   -1.470
        17           c16bf         1   UNL       c16        17     0.01175       12.0110 ; qtot   -1.458
        18           n17bf         1   UNL       n17        18    -0.27543       14.0070 ; qtot   -1.734
        19           c18bf         1   UNL       c18        19    -0.18460       12.0110 ; qtot   -1.918
        20           c19bf         1   UNL       c19        20    -0.09010       12.0110 ; qtot   -2.008
        21           c20bf         1   UNL       c20        21    -0.14752       12.0110 ; qtot   -2.156
        22           c21bf         1   UNL       c21        22    -0.05609       12.0110 ; qtot   -2.212
        23           c22bf         1   UNL       c22        23    -0.22020       12.0110 ; qtot   -2.432
        24           c23bf         1   UNL       c23        24     0.35625       12.0110 ; qtot   -2.076
        25           n24bf         1   UNL       n24        25    -0.50685       14.0070 ; qtot   -2.583
        26           n25bf         1   UNL       n25        26    -0.03477       14.0070 ; qtot   -2.617
        27           c26bf         1   UNL       c26        27    -0.03315       12.0110 ; qtot   -2.651
        28           c27bf         1   UNL       c27        28    -0.12410       12.0110 ; qtot   -2.775
        29           c28bf         1   UNL       c28        29    -0.12823       12.0110 ; qtot   -2.903
        30           c29bf         1   UNL       c29        30    -0.16968       12.0110 ; qtot   -3.073
        31           h30bf         1   UNL       h30        31     0.03803        1.0080 ; qtot   -3.035
        32           h31bf         1   UNL       h31        32     0.03803        1.0080 ; qtot   -2.997
        33           h32bf         1   UNL       h32        33     0.03803        1.0080 ; qtot   -2.959
        34           h33bf         1   UNL       h33        34     0.05296        1.0080 ; qtot   -2.906
        35           h34bf         1   UNL       h34        35     0.05296        1.0080 ; qtot   -2.853
        36           h35bf         1   UNL       h35        36     0.04214        1.0080 ; qtot   -2.810
        37           h36bf         1   UNL       h36        37     0.04214        1.0080 ; qtot   -2.768
        38           h37bf         1   UNL       h37        38     0.40803        1.0080 ; qtot   -2.360
        39           h38bf         1   UNL       h38        39     0.13003        1.0080 ; qtot   -2.230
        40           h39bf         1   UNL       h39        40     0.14720        1.0080 ; qtot   -2.083
        41           h40bf         1   UNL       h40        41     0.46054        1.0080 ; qtot   -1.623
        42           h41bf         1   UNL       h41        42     0.17402        1.0080 ; qtot   -1.449
        43           h42bf         1   UNL       h42        43     0.18619        1.0080 ; qtot   -1.262
        44           h43bf         1   UNL       h43        44     0.17120        1.0080 ; qtot   -1.091
        45           h44bf         1   UNL       h44        45     0.14353        1.0080 ; qtot   -0.948
        46           h45bf         1   UNL       h45        46     0.14235        1.0080 ; qtot   -0.805
        47           h46bf         1   UNL       h46        47     0.05012        1.0080 ; qtot   -0.755
        48           h47bf         1   UNL       h47        48     0.32822        1.0080 ; qtot   -0.427
        49           h48bf         1   UNL       h48        49     0.14965        1.0080 ; qtot   -0.277
        50           h49bf         1   UNL       h49        50     0.14720        1.0080 ; qtot   -0.130
        51           h50bf         1   UNL       h50        51     0.13005        1.0080 ; qtot   -0.000

[ bonds ]
;       ai        aj funct               r               k
         1         2     1        0.145011   242586.118701    ;  uncertainty r = 0.000025, k = 7.042304
         1        31     1        0.109655   309063.989844    ;  uncertainty r = 0.000030, k = 1.570991
         1        32     1        0.109655   309063.989844    ;  uncertainty r = 0.000030, k = 1.570991
         1        33     1        0.109655   309063.989844    ;  uncertainty r = 0.000030, k = 1.570991
         2         3     1        0.144630   246529.610205    ;  uncertainty r = 0.000170, k = 6.439800
         2         6     1        0.139994   367864.869629    ;  uncertainty r = 0.000064, k = 5.631889
         3         4     1        0.152966   205602.459717    ;  uncertainty r = 0.000050, k = 7.178842
         3        34     1        0.109727   305609.278613    ;  uncertainty r = 0.000050, k = 1.267532
         3        35     1        0.109727   305609.278613    ;  uncertainty r = 0.000050, k = 1.267532
         4         5     1        0.142161   261938.421094    ;  uncertainty r = 0.000031, k = 4.770723
         4        36     1        0.109830   307804.652832    ;  uncertainty r = 0.000039, k = 1.480603
         4        37     1        0.109830   307804.652832    ;  uncertainty r = 0.000039, k = 1.480603
         5        38     1        0.096978   460626.631836    ;  uncertainty r = 0.000028, k = 2.862564
         6         7     1        0.140739   344449.357764    ;  uncertainty r = 0.000054, k = 3.681556
         6        30     1        0.140739   344449.357764    ;  uncertainty r = 0.000054, k = 3.681539
         7         8     1        0.139017   361241.820313    ;  uncertainty r = 0.000038, k = 4.163936
         7        39     1        0.108752   336321.406592    ;  uncertainty r = 0.000043, k = 2.751506
         8         9     1        0.140015   351001.158545    ;  uncertainty r = 0.000089, k = 5.905160
         8        40     1        0.108789   335593.343604    ;  uncertainty r = 0.000061, k = 1.644051
         9        10     1        0.141243   346119.484717    ;  uncertainty r = 0.000076, k = 13.516863
         9        29     1        0.140015   351001.158545    ;  uncertainty r = 0.000089, k = 5.905142
        10        11     1        0.137928   330364.033105    ;  uncertainty r = 0.000233, k = 32.504541
        10        41     1        0.102080   426606.656543    ;  uncertainty r = 0.000044, k = 5.060956
        11        12     1        0.132293   443196.890723    ;  uncertainty r = 0.000185, k = 13.473043
        11        19     1        0.143016   286566.945654    ;  uncertainty r = 0.000095, k = 10.976562
        12        13     1        0.137539   259289.788721    ;  uncertainty r = 0.000221, k = 27.333167
        13        14     1        0.136983   380120.690234    ;  uncertainty r = 0.000106, k = 13.129494
        13        20     1        0.147341   266299.291113    ;  uncertainty r = 0.000140, k = 10.421868
        14        15     1        0.137903   324759.863379    ;  uncertainty r = 0.000057, k = 6.440736
        14        42     1        0.108483   340864.892480    ;  uncertainty r = 0.000069, k = 2.329540
        15        16     1        0.137812   342777.392139    ;  uncertainty r = 0.000099, k = 5.087981
        15        19     1        0.139016   307421.187598    ;  uncertainty r = 0.000151, k = 23.940610
        16        17     1        0.138713   413349.296045    ;  uncertainty r = 0.000044, k = 11.515259
        16        43     1        0.108153   341281.147363    ;  uncertainty r = 0.000029, k = 4.725641
        17        18     1        0.136694   264650.947314    ;  uncertainty r = 0.000104, k = 21.676771
        17        44     1        0.108374   336399.652295    ;  uncertainty r = 0.000052, k = 2.763013
        18        19     1        0.133277   447135.836621    ;  uncertainty r = 0.000097, k = 11.841719
        20        21     1        0.142221   330382.215527    ;  uncertainty r = 0.000108, k = 4.226718
        20        28     1        0.138999   355014.238672    ;  uncertainty r = 0.000049, k = 4.165741
        21        22     1        0.138406   365370.174951    ;  uncertainty r = 0.000051, k = 6.484539
        21        45     1        0.108740   335079.715723    ;  uncertainty r = 0.000026, k = 2.762628
        22        23     1        0.140636   363954.065625    ;  uncertainty r = 0.000045, k = 4.520849
        22        46     1        0.108793   334157.723926    ;  uncertainty r = 0.000027, k = 0.888009
        23        24     1        0.143565   236002.166699    ;  uncertainty r = 0.000085, k = 10.251197
        23        27     1        0.141896   395442.598340    ;  uncertainty r = 0.000042, k = 7.271248
        24        25     1        0.132527   481307.910937    ;  uncertainty r = 0.000030, k = 4.804422
        24        47     1        0.108445   339950.331982    ;  uncertainty r = 0.000029, k = 2.772015
        25        26     1        0.136464   286651.243652    ;  uncertainty r = 0.000028, k = 6.362411
        26        27     1        0.137432   293777.118652    ;  uncertainty r = 0.000025, k = 8.625484
        26        48     1        0.101061   415482.921533    ;  uncertainty r = 0.000029, k = 2.943442
        27        28     1        0.139860   363187.467139    ;  uncertainty r = 0.000057, k = 4.398211
        28        49     1        0.108825   335126.984912    ;  uncertainty r = 0.000043, k = 1.321162
        29        30     1        0.139017   361241.820313    ;  uncertainty r = 0.000038, k = 4.163914
        29        50     1        0.108789   335593.343604    ;  uncertainty r = 0.000061, k = 1.644052
        30        51     1        0.108752   336321.406592    ;  uncertainty r = 0.000043, k = 2.751511

[ angles ]
;       ai        aj        ak funct           theta             cth
         1         2         3     1      111.315536      427.098482    ;  uncertainty theta = 0.003524, k = 0.174534
         1         2         6     1      111.471313      442.304458    ;  uncertainty theta = 0.001907, k = 0.091741
         2         1        31     1      109.457809      473.857504    ;  uncertainty theta = 0.001877, k = 0.055833
         2         1        32     1      109.457809      473.857504    ;  uncertainty theta = 0.001877, k = 0.055833
         2         1        33     1      109.457809      473.857504    ;  uncertainty theta = 0.001877, k = 0.055833
         2         3         4     1      110.155960      578.357175    ;  uncertainty theta = 0.001724, k = 0.157535
         2         3        34     1      107.192276      440.488482    ;  uncertainty theta = 0.001691, k = 0.062252
         2         3        35     1      107.192276      440.488482    ;  uncertainty theta = 0.001691, k = 0.062252
         2         6         7     1      121.708046      474.448752    ;  uncertainty theta = 0.003337, k = 0.089816
         2         6        30     1      121.708046      474.448688    ;  uncertainty theta = 0.003337, k = 0.089816
         3         2         6     1      111.219772      421.721516    ;  uncertainty theta = 0.002185, k = 0.121906
         3         4         5     1      110.842239      739.867964    ;  uncertainty theta = 0.001305, k = 0.074235
         3         4        36     1      108.793457      404.094207    ;  uncertainty theta = 0.001953, k = 0.020654
         3         4        37     1      108.793457      404.094207    ;  uncertainty theta = 0.001953, k = 0.020654
         4         3        34     1      108.015060      416.216322    ;  uncertainty theta = 0.001384, k = 0.055461
         4         3        35     1      108.015060      416.216322    ;  uncertainty theta = 0.001384, k = 0.055461
         4         5        38     1      107.325584      449.359723    ;  uncertainty theta = 0.001592, k = 0.031158
         5         4        36     1      108.424026      475.817062    ;  uncertainty theta = 0.001067, k = 0.031080
         5         4        37     1      108.424026      475.817062    ;  uncertainty theta = 0.001067, k = 0.031080
         6         7         8     1      121.466408      519.344363    ;  uncertainty theta = 0.002746, k = 0.016753
         6         7        39     1      119.197128      269.216197    ;  uncertainty theta = 0.002208, k = 0.057329
         6        30        29     1      121.466408      519.344427    ;  uncertainty theta = 0.002746, k = 0.016753
         6        30        51     1      119.197128      269.216229    ;  uncertainty theta = 0.002208, k = 0.057329
         7         6        30     1      119.495995      366.032646    ;  uncertainty theta = 0.002703, k = 0.081296
         7         8         9     1      120.819504      492.000439    ;  uncertainty theta = 0.003519, k = 0.119153
         7         8        40     1      120.736160      295.096206    ;  uncertainty theta = 0.002351, k = 0.113156
         8         7        39     1      119.497177      288.224776    ;  uncertainty theta = 0.002282, k = 0.028389
         8         9        10     1      120.205849      517.894717    ;  uncertainty theta = 0.002909, k = 0.188911
         8         9        29     1      118.722412      369.925874    ;  uncertainty theta = 0.005489, k = 0.114355
         9         8        40     1      119.391090      273.109776    ;  uncertainty theta = 0.002498, k = 0.075547
         9        10        11     1      116.385880      382.930743    ;  uncertainty theta = 0.003694, k = 0.173585
         9        10        41     1      114.324707      350.836789    ;  uncertainty theta = 0.005205, k = 0.234549
         9        29        30     1      120.819504      492.000439    ;  uncertainty theta = 0.003519, k = 0.119153
         9        29        50     1      119.391090      273.109776    ;  uncertainty theta = 0.002498, k = 0.075547
        10         9        29     1      120.205849      517.894717    ;  uncertainty theta = 0.002909, k = 0.188911
        10        11        12     1      122.101028      744.137513    ;  uncertainty theta = 0.006060, k = 0.183514
        10        11        19     1      118.389694      493.671492    ;  uncertainty theta = 0.006677, k = 0.107017
        11        10        41     1      116.994568      430.564506    ;  uncertainty theta = 0.006061, k = 0.204563
        11        12        13     1      121.081543      436.533806    ;  uncertainty theta = 0.009425, k = 0.261818
        11        19        15     1      111.142784      333.997874    ;  uncertainty theta = 0.012736, k = 0.456017
        11        19        18     1      125.515465      293.447945    ;  uncertainty theta = 0.008643, k = 0.324339
        12        11        19     1      122.405640      559.409789    ;  uncertainty theta = 0.006101, k = 0.247559
        12        13        14     1      124.529945      546.825995    ;  uncertainty theta = 0.003188, k = 0.249818
        12        13        20     1      117.266068      449.509754    ;  uncertainty theta = 0.001673, k = 0.093555
        13        14        15     1      117.545448      533.201245    ;  uncertainty theta = 0.004801, k = 0.198048
        13        14        42     1      124.661926      232.745215    ;  uncertainty theta = 0.008830, k = 0.220531
        13        20        21     1      119.027603      411.436892    ;  uncertainty theta = 0.003206, k = 0.096656
        13        20        28     1      119.097130      398.595621    ;  uncertainty theta = 0.002830, k = 0.193564
        14        13        20     1      121.495850      379.274084    ;  uncertainty theta = 0.004582, k = 0.073177
        14        15        16     1      129.660461      429.070873    ;  uncertainty theta = 0.002332, k = 0.325292
        14        15        19     1      117.456383      429.436979    ;  uncertainty theta = 0.007676, k = 0.177572
        15        14        42     1      117.405563      315.690512    ;  uncertainty theta = 0.003645, k = 0.141949
        15        16        17     1      105.324829      767.668044    ;  uncertainty theta = 0.004981, k = 0.189091
        15        16        43     1      119.539230      282.399762    ;  uncertainty theta = 0.002926, k = 0.163945
        15        19        18     1      114.523727      791.406958    ;  uncertainty theta = 0.003446, k = 0.159720
        16        15        19     1      106.195152      846.636320    ;  uncertainty theta = 0.003800, k = 0.266753
        16        17        18     1      111.223167      865.900238    ;  uncertainty theta = 0.003390, k = 0.157111
        16        17        44     1      125.339600      238.965624    ;  uncertainty theta = 0.004247, k = 0.092338
        17        16        43     1      130.781433      240.351858    ;  uncertainty theta = 0.003259, k = 0.025087
        17        18        19     1      106.065872      820.721453    ;  uncertainty theta = 0.001716, k = 0.145916
        18        17        44     1      119.156937      297.238833    ;  uncertainty theta = 0.004129, k = 0.152925
        20        21        22     1      123.016739      525.733939    ;  uncertainty theta = 0.003070, k = 0.077649
        20        21        45     1      117.874733      272.056881    ;  uncertainty theta = 0.003138, k = 0.063286
        20        28        27     1      116.866013      520.760715    ;  uncertainty theta = 0.004532, k = 0.170114
        20        28        49     1      119.930405      268.313620    ;  uncertainty theta = 0.002430, k = 0.106947
        21        20        28     1      123.809654      434.126710    ;  uncertainty theta = 0.003394, k = 0.121259
        21        22        23     1      118.929970      553.342300    ;  uncertainty theta = 0.002680, k = 0.060560
        21        22        46     1      120.653542      279.974630    ;  uncertainty theta = 0.001067, k = 0.066865
        22        21        45     1      119.509888      297.701821    ;  uncertainty theta = 0.002978, k = 0.036486
        22        23        24     1      132.278717      354.679390    ;  uncertainty theta = 0.004732, k = 0.185731
        22        23        27     1      116.909569      406.929752    ;  uncertainty theta = 0.004133, k = 0.092172
        23        22        46     1      121.803482      294.188936    ;  uncertainty theta = 0.000418, k = 0.134142
        23        24        25     1      112.801369      922.850035    ;  uncertainty theta = 0.002508, k = 0.102828
        23        24        47     1      126.617455      244.294835    ;  uncertainty theta = 0.003682, k = 0.151304
        23        27        26     1      105.521866      689.300082    ;  uncertainty theta = 0.003740, k = 0.125051
        23        27        28     1      121.842789      372.926708    ;  uncertainty theta = 0.004893, k = 0.200656
        24        23        27     1      103.430092      742.155004    ;  uncertainty theta = 0.005190, k = 0.108760
        24        25        26     1      108.574791      922.564020    ;  uncertainty theta = 0.002937, k = 0.116121
        25        24        47     1      118.543495      289.957533    ;  uncertainty theta = 0.002336, k = 0.058293
        25        26        27     1      109.065674      992.744529    ;  uncertainty theta = 0.003990, k = 0.161433
        25        26        48     1      108.465378      343.985566    ;  uncertainty theta = 0.006748, k = 0.092752
        26        27        28     1      129.650360      395.528709    ;  uncertainty theta = 0.003691, k = 0.176020
        27        26        48     1      116.092789      288.358080    ;  uncertainty theta = 0.006888, k = 0.111410
        27        28        49     1      122.512741      295.371464    ;  uncertainty theta = 0.001496, k = 0.111125
        29        30        51     1      119.497192      288.224776    ;  uncertainty theta = 0.002282, k = 0.028389
        30        29        50     1      120.736168      295.096206    ;  uncertainty theta = 0.002351, k = 0.113157
        31         1        32     1      106.687057      330.508356    ;  uncertainty theta = 0.002118, k = 0.027293
        31         1        33     1      106.687057      330.508356    ;  uncertainty theta = 0.002118, k = 0.027293
        32         1        33     1      106.687057      330.508356    ;  uncertainty theta = 0.002118, k = 0.027293
        34         3        35     1      106.048355      319.280679    ;  uncertainty theta = 0.002642, k = 0.042338
        36         4        37     1      107.463333      320.118455    ;  uncertainty theta = 0.002024, k = 0.036176

[ dihedrals ] ; propers for gromacs 4.5 or higher, use funct 9
;       ai        aj        ak        al funct           phase               k        pn
         1         2         3         4     9        0.000000        0.171809         1    ;  uncertainty k = 0.668368
         1         2         3         4     9      180.000000       -1.525636         2    ;  uncertainty k = 0.247046
         1         2         3         4     9        0.000000        0.978816         3    ;  uncertainty k = 0.170900
         1         2         3         4     9      180.000000        0.155429         4    ;  uncertainty k = 0.036349
         1         2         3        34     9        0.000000       -1.796303         1    ;  uncertainty k = 0.276582
         1         2         3        34     9      180.000000       -0.657161         2    ;  uncertainty k = 0.303357
         1         2         3        34     9        0.000000        0.824768         3    ;  uncertainty k = 0.113791
         1         2         3        34     9      180.000000        0.072614         4    ;  uncertainty k = 0.042930
         1         2         3        35     9        0.000000       -1.796303         1    ;  uncertainty k = 0.276582
         1         2         3        35     9      180.000000       -0.657161         2    ;  uncertainty k = 0.303357
         1         2         3        35     9        0.000000        0.824768         3    ;  uncertainty k = 0.113791
         1         2         3        35     9      180.000000        0.072614         4    ;  uncertainty k = 0.042930
         1         2         6         7     9        0.000000        1.407050         1    ;  uncertainty k = 1.014692
         1         2         6         7     9      180.000000        7.214945         2    ;  uncertainty k = 0.103105
         1         2         6         7     9        0.000000        0.537391         3    ;  uncertainty k = 0.176149
         1         2         6         7     9      180.000000        0.145740         4    ;  uncertainty k = 0.053966
         1         2         6        30     9        0.000000        1.407051         1    ;  uncertainty k = 1.014694
         1         2         6        30     9      180.000000        7.214949         2    ;  uncertainty k = 0.103105
         1         2         6        30     9        0.000000        0.537392         3    ;  uncertainty k = 0.176148
         1         2         6        30     9      180.000000        0.145740         4    ;  uncertainty k = 0.053965
         2         3         4         5     9        0.000000       -2.040757         1    ;  uncertainty k = 0.761584
         2         3         4         5     9      180.000000       -1.719533         2    ;  uncertainty k = 0.843196
         2         3         4         5     9        0.000000        2.165585         3    ;  uncertainty k = 0.453513
         2         3         4         5     9      180.000000       -0.132652         4    ;  uncertainty k = 0.079845
         2         3         4        36     9        0.000000        1.397626         1    ;  uncertainty k = 0.740067
         2         3         4        36     9      180.000000       -1.599577         2    ;  uncertainty k = 0.701203
         2         3         4        36     9        0.000000        0.801463         3    ;  uncertainty k = 0.094525
         2         3         4        36     9      180.000000        0.038176         4    ;  uncertainty k = 0.062314
         2         3         4        37     9        0.000000        1.397626         1    ;  uncertainty k = 0.740067
         2         3         4        37     9      180.000000       -1.599577         2    ;  uncertainty k = 0.701203
         2         3         4        37     9        0.000000        0.801463         3    ;  uncertainty k = 0.094525
         2         3         4        37     9      180.000000        0.038176         4    ;  uncertainty k = 0.062314
         2         6         7         8     9        0.000000        0.339059         1    ;  uncertainty k = 0.563531
         2         6         7         8     9      180.000000        8.893807         2    ;  uncertainty k = 0.355774
         2         6         7         8     9        0.000000        1.039328         3    ;  uncertainty k = 0.317237
         2         6         7         8     9      180.000000        1.588938         4    ;  uncertainty k = 0.230376
         2         6         7        39     9        0.000000       -0.210704         1    ;  uncertainty k = 0.302417
         2         6         7        39     9      180.000000        7.560904         2    ;  uncertainty k = 0.358497
         2         6         7        39     9        0.000000        0.818770         3    ;  uncertainty k = 0.140524
         2         6         7        39     9      180.000000        1.186908         4    ;  uncertainty k = 0.077386
         2         6        30        29     9        0.000000        0.339057         1    ;  uncertainty k = 0.563531
         2         6        30        29     9      180.000000        8.893806         2    ;  uncertainty k = 0.355774
         2         6        30        29     9        0.000000        1.039328         3    ;  uncertainty k = 0.317237
         2         6        30        29     9      180.000000        1.588938         4    ;  uncertainty k = 0.230376
         2         6        30        51     9        0.000000       -0.210706         1    ;  uncertainty k = 0.302420
         2         6        30        51     9      180.000000        7.560902         2    ;  uncertainty k = 0.358497
         2         6        30        51     9        0.000000        0.818769         3    ;  uncertainty k = 0.140525
         2         6        30        51     9      180.000000        1.186908         4    ;  uncertainty k = 0.077388
         3         2         1        31     9        0.000000       -0.539047         1    ;  uncertainty k = 0.409900
         3         2         1        31     9      180.000000       -1.922746         2    ;  uncertainty k = 0.329389
         3         2         1        31     9        0.000000        0.893501         3    ;  uncertainty k = 0.069608
         3         2         1        31     9      180.000000        0.109982         4    ;  uncertainty k = 0.029641
         3         2         1        32     9        0.000000       -0.539047         1    ;  uncertainty k = 0.409900
         3         2         1        32     9      180.000000       -1.922746         2    ;  uncertainty k = 0.329389
         3         2         1        32     9        0.000000        0.893501         3    ;  uncertainty k = 0.069608
         3         2         1        32     9      180.000000        0.109982         4    ;  uncertainty k = 0.029641
         3         2         1        33     9        0.000000       -0.539047         1    ;  uncertainty k = 0.409900
         3         2         1        33     9      180.000000       -1.922746         2    ;  uncertainty k = 0.329389
         3         2         1        33     9        0.000000        0.893501         3    ;  uncertainty k = 0.069608
         3         2         1        33     9      180.000000        0.109982         4    ;  uncertainty k = 0.029641
         3         2         6         7     9        0.000000        1.998063         1    ;  uncertainty k = 1.197778
         3         2         6         7     9      180.000000        6.766350         2    ;  uncertainty k = 0.146447
         3         2         6         7     9        0.000000        0.616452         3    ;  uncertainty k = 0.124742
         3         2         6         7     9      180.000000        0.022041         4    ;  uncertainty k = 0.049747
         3         2         6        30     9        0.000000        1.998062         1    ;  uncertainty k = 1.197778
         3         2         6        30     9      180.000000        6.766351         2    ;  uncertainty k = 0.146447
         3         2         6        30     9        0.000000        0.616453         3    ;  uncertainty k = 0.124742
         3         2         6        30     9      180.000000        0.022041         4    ;  uncertainty k = 0.049746
         3         4         5        38     9        0.000000       15.554302         1    ;  uncertainty k = 0.177370
         3         4         5        38     9      180.000000       -4.401328         2    ;  uncertainty k = 0.459823
         3         4         5        38     9        0.000000        1.170504         3    ;  uncertainty k = 0.180556
         3         4         5        38     9      180.000000        0.442740         4    ;  uncertainty k = 0.149062
         4         3         2         6     9        0.000000        1.761241         1    ;  uncertainty k = 0.865592
         4         3         2         6     9      180.000000       -2.047615         2    ;  uncertainty k = 0.295056
         4         3         2         6     9        0.000000        0.421489         3    ;  uncertainty k = 0.176449
         4         3         2         6     9      180.000000        0.246389         4    ;  uncertainty k = 0.084622
         5         4         3        34     9        0.000000       -1.912433         1    ;  uncertainty k = 0.762465
         5         4         3        34     9      180.000000        0.379629         2    ;  uncertainty k = 0.173586
         5         4         3        34     9        0.000000        1.758032         3    ;  uncertainty k = 0.266207
         5         4         3        34     9      180.000000       -0.261684         4    ;  uncertainty k = 0.093618
         5         4         3        35     9        0.000000       -1.912433         1    ;  uncertainty k = 0.762465
         5         4         3        35     9      180.000000        0.379629         2    ;  uncertainty k = 0.173586
         5         4         3        35     9        0.000000        1.758032         3    ;  uncertainty k = 0.266207
         5         4         3        35     9      180.000000       -0.261684         4    ;  uncertainty k = 0.093618
         6         2         1        31     9        0.000000       -0.486651         1    ;  uncertainty k = 0.133740
         6         2         1        31     9      180.000000       -1.457517         2    ;  uncertainty k = 0.165883
         6         2         1        31     9        0.000000        0.809713         3    ;  uncertainty k = 0.054126
         6         2         1        31     9      180.000000        0.174006         4    ;  uncertainty k = 0.055402
         6         2         1        32     9        0.000000       -0.486651         1    ;  uncertainty k = 0.133740
         6         2         1        32     9      180.000000       -1.457517         2    ;  uncertainty k = 0.165883
         6         2         1        32     9        0.000000        0.809713         3    ;  uncertainty k = 0.054126
         6         2         1        32     9      180.000000        0.174006         4    ;  uncertainty k = 0.055402
         6         2         1        33     9        0.000000       -0.486651         1    ;  uncertainty k = 0.133740
         6         2         1        33     9      180.000000       -1.457517         2    ;  uncertainty k = 0.165883
         6         2         1        33     9        0.000000        0.809713         3    ;  uncertainty k = 0.054126
         6         2         1        33     9      180.000000        0.174006         4    ;  uncertainty k = 0.055402
         6         2         3        34     9        0.000000       -0.415808         1    ;  uncertainty k = 0.373240
         6         2         3        34     9      180.000000       -0.640222         2    ;  uncertainty k = 0.312570
         6         2         3        34     9        0.000000        0.501449         3    ;  uncertainty k = 0.137673
         6         2         3        34     9      180.000000        0.035978         4    ;  uncertainty k = 0.074110
         6         2         3        35     9        0.000000       -0.415808         1    ;  uncertainty k = 0.373240
         6         2         3        35     9      180.000000       -0.640222         2    ;  uncertainty k = 0.312570
         6         2         3        35     9        0.000000        0.501449         3    ;  uncertainty k = 0.137673
         6         2         3        35     9      180.000000        0.035978         4    ;  uncertainty k = 0.074110
         6         7         8         9     9        0.000000       -0.060026         1    ;  uncertainty k = 0.214173
         6         7         8         9     9      180.000000       13.659862         2    ;  uncertainty k = 0.418032
         6         7         8         9     9        0.000000       -0.832567         3    ;  uncertainty k = 0.466553
         6         7         8         9     9      180.000000        0.794554         4    ;  uncertainty k = 0.314915
         6         7         8        40     9        0.000000        0.006940         1    ;  uncertainty k = 0.389475
         6         7         8        40     9      180.000000        9.017245         2    ;  uncertainty k = 0.313383
         6         7         8        40     9        0.000000        1.121763         3    ;  uncertainty k = 0.412579
         6         7         8        40     9      180.000000        1.691197         4    ;  uncertainty k = 0.159637
         6        30        29         9     9        0.000000       -0.060026         1    ;  uncertainty k = 0.214172
         6        30        29         9     9      180.000000       13.659861         2    ;  uncertainty k = 0.418032
         6        30        29         9     9        0.000000       -0.832567         3    ;  uncertainty k = 0.466553
         6        30        29         9     9      180.000000        0.794554         4    ;  uncertainty k = 0.314915
         6        30        29        50     9        0.000000        0.006939         1    ;  uncertainty k = 0.389474
         6        30        29        50     9      180.000000        9.017247         2    ;  uncertainty k = 0.313382
         6        30        29        50     9        0.000000        1.121763         3    ;  uncertainty k = 0.412579
         6        30        29        50     9      180.000000        1.691197         4    ;  uncertainty k = 0.159638
         7         6        30        29     9        0.000000       -0.042887         1    ;  uncertainty k = 0.272855
         7         6        30        29     9      180.000000        8.259100         2    ;  uncertainty k = 0.509375
         7         6        30        29     9        0.000000        0.055568         3    ;  uncertainty k = 0.329201
         7         6        30        29     9      180.000000        1.301759         4    ;  uncertainty k = 0.257683
         7         6        30        51     9        0.000000        0.177942         1    ;  uncertainty k = 0.377528
         7         6        30        51     9      180.000000        6.119637         2    ;  uncertainty k = 0.691728
         7         6        30        51     9        0.000000        1.334941         3    ;  uncertainty k = 0.249773
         7         6        30        51     9      180.000000        1.527259         4    ;  uncertainty k = 0.072402
         7         8         9        10     9        0.000000       -0.001506         1    ;  uncertainty k = 0.530633
         7         8         9        10     9      180.000000        9.461761         2    ;  uncertainty k = 0.240494
         7         8         9        10     9        0.000000        0.879549         3    ;  uncertainty k = 0.289803
         7         8         9        10     9      180.000000        1.519427         4    ;  uncertainty k = 0.168211
         7         8         9        29     9        0.000000        0.015517         1    ;  uncertainty k = 0.231142
         7         8         9        29     9      180.000000        9.084313         2    ;  uncertainty k = 0.262042
         7         8         9        29     9        0.000000       -0.065006         3    ;  uncertainty k = 0.205918
         7         8         9        29     9      180.000000        1.177209         4    ;  uncertainty k = 0.273245
         8         7         6        30     9        0.000000       -0.042885         1    ;  uncertainty k = 0.272854
         8         7         6        30     9      180.000000        8.259103         2    ;  uncertainty k = 0.509376
         8         7         6        30     9        0.000000        0.055568         3    ;  uncertainty k = 0.329200
         8         7         6        30     9      180.000000        1.301759         4    ;  uncertainty k = 0.257683
         8         9        10        11     9        0.000000        1.721141         1    ;  uncertainty k = 0.685183
         8         9        10        11     9      180.000000        5.623386         2    ;  uncertainty k = 0.077961
         8         9        10        11     9        0.000000        0.933229         3    ;  uncertainty k = 0.179340
         8         9        10        11     9      180.000000        0.191017         4    ;  uncertainty k = 0.099107
         8         9        10        41     9        0.000000        2.607370         1    ;  uncertainty k = 0.409086
         8         9        10        41     9      180.000000        4.230940         2    ;  uncertainty k = 0.251949
         8         9        10        41     9        0.000000        0.646263         3    ;  uncertainty k = 0.145755
         8         9        10        41     9      180.000000        0.431106         4    ;  uncertainty k = 0.060778
         8         9        29        30     9        0.000000        0.015519         1    ;  uncertainty k = 0.231143
         8         9        29        30     9      180.000000        9.084311         2    ;  uncertainty k = 0.262042
         8         9        29        30     9        0.000000       -0.065006         3    ;  uncertainty k = 0.205918
         8         9        29        30     9      180.000000        1.177210         4    ;  uncertainty k = 0.273245
         8         9        29        50     9        0.000000       -0.016301         1    ;  uncertainty k = 0.231038
         8         9        29        50     9      180.000000        6.324005         2    ;  uncertainty k = 0.737573
         8         9        29        50     9        0.000000        1.238166         3    ;  uncertainty k = 0.299185
         8         9        29        50     9      180.000000        1.443803         4    ;  uncertainty k = 0.156978
         9         8         7        39     9        0.000000       -0.091730         1    ;  uncertainty k = 0.210953
         9         8         7        39     9      180.000000        8.631984         2    ;  uncertainty k = 0.293838
         9         8         7        39     9        0.000000        1.258740         3    ;  uncertainty k = 0.280486
         9         8         7        39     9      180.000000        1.608568         4    ;  uncertainty k = 0.110174
         9        10        11        12     9        0.000000        4.125700         1    ;  uncertainty k = 1.239534
         9        10        11        12     9      180.000000       10.657982         2    ;  uncertainty k = 0.233544
         9        10        11        12     9        0.000000        0.703739         3    ;  uncertainty k = 0.297962
         9        10        11        12     9      180.000000       -0.490826         4    ;  uncertainty k = 0.041726
         9        10        11        19     9        0.000000        6.969199         1    ;  uncertainty k = 0.514890
         9        10        11        19     9      180.000000        8.626872         2    ;  uncertainty k = 0.128868
         9        10        11        19     9        0.000000        0.929434         3    ;  uncertainty k = 0.393957
         9        10        11        19     9      180.000000       -0.140932         4    ;  uncertainty k = 0.197706
         9        29        30        51     9        0.000000       -0.091731         1    ;  uncertainty k = 0.210954
         9        29        30        51     9      180.000000        8.631988         2    ;  uncertainty k = 0.293839
         9        29        30        51     9        0.000000        1.258739         3    ;  uncertainty k = 0.280486
         9        29        30        51     9      180.000000        1.608568         4    ;  uncertainty k = 0.110174
        10         9         8        40     9        0.000000       -0.282765         1    ;  uncertainty k = 0.229730
        10         9         8        40     9      180.000000        7.942440         2    ;  uncertainty k = 0.224826
        10         9         8        40     9        0.000000        0.880703         3    ;  uncertainty k = 0.219410
        10         9         8        40     9      180.000000        1.067385         4    ;  uncertainty k = 0.167198
        10         9        29        30     9        0.000000       -0.001505         1    ;  uncertainty k = 0.530634
        10         9        29        30     9      180.000000        9.461760         2    ;  uncertainty k = 0.240494
        10         9        29        30     9        0.000000        0.879549         3    ;  uncertainty k = 0.289804
        10         9        29        30     9      180.000000        1.519427         4    ;  uncertainty k = 0.168211
        10         9        29        50     9        0.000000       -0.282765         1    ;  uncertainty k = 0.229729
        10         9        29        50     9      180.000000        7.942440         2    ;  uncertainty k = 0.224827
        10         9        29        50     9        0.000000        0.880703         3    ;  uncertainty k = 0.219411
        10         9        29        50     9      180.000000        1.067385         4    ;  uncertainty k = 0.167199
        10        11        12        13     9        0.000000        1.094677         1    ;  uncertainty k = 1.061918
        10        11        12        13     9      180.000000       18.029313         2    ;  uncertainty k = 0.463163
        10        11        12        13     9        0.000000        2.921584         3    ;  uncertainty k = 0.300070
        10        11        12        13     9      180.000000        1.660946         4    ;  uncertainty k = 0.300808
        10        11        19        15     9        0.000000       -0.935144         1    ;  uncertainty k = 0.961490
        10        11        19        15     9      180.000000        5.420647         2    ;  uncertainty k = 0.735007
        10        11        19        15     9        0.000000        0.466482         3    ;  uncertainty k = 0.276418
        10        11        19        15     9      180.000000        0.426563         4    ;  uncertainty k = 0.145930
        10        11        19        18     9        0.000000       -0.723521         1    ;  uncertainty k = 0.720899
        10        11        19        18     9      180.000000        4.573870         2    ;  uncertainty k = 1.073141
        10        11        19        18     9        0.000000        0.567897         3    ;  uncertainty k = 0.420061
        10        11        19        18     9      180.000000        0.320348         4    ;  uncertainty k = 0.222145
        11        10         9        29     9        0.000000        1.721142         1    ;  uncertainty k = 0.685182
        11        10         9        29     9      180.000000        5.623386         2    ;  uncertainty k = 0.077962
        11        10         9        29     9        0.000000        0.933229         3    ;  uncertainty k = 0.179340
        11        10         9        29     9      180.000000        0.191018         4    ;  uncertainty k = 0.099108
        11        12        13        14     9        0.000000        1.017504         1    ;  uncertainty k = 1.516360
        11        12        13        14     9      180.000000        5.410036         2    ;  uncertainty k = 1.406424
        11        12        13        14     9        0.000000        1.183504         3    ;  uncertainty k = 0.850444
        11        12        13        14     9      180.000000        0.501686         4    ;  uncertainty k = 0.531969
        11        12        13        20     9        0.000000        1.001242         1    ;  uncertainty k = 1.290635
        11        12        13        20     9      180.000000        8.728254         2    ;  uncertainty k = 0.911473
        11        12        13        20     9        0.000000        1.568762         3    ;  uncertainty k = 0.631592
        11        12        13        20     9      180.000000        0.401595         4    ;  uncertainty k = 0.332617
        11        19        15        14     9        0.000000       -0.065679         1    ;  uncertainty k = 0.930309
        11        19        15        14     9      180.000000        5.131901         2    ;  uncertainty k = 1.526753
        11        19        15        14     9        0.000000        1.363593         3    ;  uncertainty k = 0.467515
        11        19        15        14     9      180.000000        0.395973         4    ;  uncertainty k = 0.312049
        11        19        15        16     9        0.000000        0.340421         1    ;  uncertainty k = 0.792595
        11        19        15        16     9      180.000000        6.024515         2    ;  uncertainty k = 0.492566
        11        19        15        16     9        0.000000        0.209998         3    ;  uncertainty k = 0.527723
        11        19        15        16     9      180.000000        0.585310         4    ;  uncertainty k = 0.374830
        11        19        18        17     9        0.000000       -0.258736         1    ;  uncertainty k = 0.813751
        11        19        18        17     9      180.000000       16.417004         2    ;  uncertainty k = 0.455553
        11        19        18        17     9        0.000000        0.694004         3    ;  uncertainty k = 0.637623
        11        19        18        17     9      180.000000        1.345365         4    ;  uncertainty k = 0.597909
        12        11        10        41     9        0.000000        8.943455         1    ;  uncertainty k = 0.591279
        12        11        10        41     9      180.000000        9.687470         2    ;  uncertainty k = 0.280063
        12        11        10        41     9        0.000000        1.090516         3    ;  uncertainty k = 0.309512
        12        11        10        41     9      180.000000       -0.065768         4    ;  uncertainty k = 0.148564
        12        11        19        15     9        0.000000       -0.508120         1    ;  uncertainty k = 0.649583
        12        11        19        15     9      180.000000        6.006908         2    ;  uncertainty k = 0.721136
        12        11        19        15     9        0.000000       -0.359701         3    ;  uncertainty k = 0.319120
        12        11        19        15     9      180.000000        0.564109         4    ;  uncertainty k = 0.160688
        12        11        19        18     9        0.000000       -1.431194         1    ;  uncertainty k = 2.218090
        12        11        19        18     9      180.000000        4.468096         2    ;  uncertainty k = 0.589322
        12        11        19        18     9        0.000000        0.454907         3    ;  uncertainty k = 0.408290
        12        11        19        18     9      180.000000        0.386347         4    ;  uncertainty k = 0.295938
        12        13        14        15     9        0.000000        0.021628         1    ;  uncertainty k = 0.553837
        12        13        14        15     9      180.000000       21.308096         2    ;  uncertainty k = 0.618902
        12        13        14        15     9        0.000000        0.542129         3    ;  uncertainty k = 0.330363
        12        13        14        15     9      180.000000        0.532400         4    ;  uncertainty k = 0.522570
        12        13        14        42     9        0.000000        0.413530         1    ;  uncertainty k = 1.053393
        12        13        14        42     9      180.000000       12.778725         2    ;  uncertainty k = 0.373644
        12        13        14        42     9        0.000000        1.633797         3    ;  uncertainty k = 0.611850
        12        13        14        42     9      180.000000        1.088488         4    ;  uncertainty k = 0.439227
        12        13        20        21     9        0.000000       -0.628626         1    ;  uncertainty k = 1.518760
        12        13        20        21     9      180.000000        5.052242         2    ;  uncertainty k = 0.325806
        12        13        20        21     9        0.000000        0.583181         3    ;  uncertainty k = 0.127910
        12        13        20        21     9      180.000000        0.120920         4    ;  uncertainty k = 0.102121
        12        13        20        28     9        0.000000       -0.766604         1    ;  uncertainty k = 0.919108
        12        13        20        28     9      180.000000        4.899228         2    ;  uncertainty k = 0.217939
        12        13        20        28     9        0.000000        0.251595         3    ;  uncertainty k = 0.135564
        12        13        20        28     9      180.000000        0.082027         4    ;  uncertainty k = 0.123430
        13        12        11        19     9        0.000000       -0.097990         1    ;  uncertainty k = 2.188335
        13        12        11        19     9      180.000000       13.736996         2    ;  uncertainty k = 0.596844
        13        12        11        19     9        0.000000        2.511290         3    ;  uncertainty k = 0.854062
        13        12        11        19     9      180.000000        1.344029         4    ;  uncertainty k = 0.393277
        13        14        15        16     9        0.000000        0.387181         1    ;  uncertainty k = 1.514247
        13        14        15        16     9      180.000000        4.670308         2    ;  uncertainty k = 0.661014
        13        14        15        16     9        0.000000        0.721864         3    ;  uncertainty k = 0.341868
        13        14        15        16     9      180.000000        0.327281         4    ;  uncertainty k = 0.086812
        13        14        15        19     9        0.000000       -0.099694         1    ;  uncertainty k = 1.661026
        13        14        15        19     9      180.000000        6.351588         2    ;  uncertainty k = 0.533147
        13        14        15        19     9        0.000000       -0.869395         3    ;  uncertainty k = 0.839908
        13        14        15        19     9      180.000000        0.595359         4    ;  uncertainty k = 0.141779
        13        20        21        22     9        0.000000        0.068897         1    ;  uncertainty k = 0.215292
        13        20        21        22     9      180.000000        7.691152         2    ;  uncertainty k = 0.666200
        13        20        21        22     9        0.000000        1.290426         3    ;  uncertainty k = 0.312196
        13        20        21        22     9      180.000000        1.752418         4    ;  uncertainty k = 0.200484
        13        20        21        45     9        0.000000       -0.141044         1    ;  uncertainty k = 0.221408
        13        20        21        45     9      180.000000        6.709611         2    ;  uncertainty k = 0.380861
        13        20        21        45     9        0.000000        0.642981         3    ;  uncertainty k = 0.210089
        13        20        21        45     9      180.000000        1.030651         4    ;  uncertainty k = 0.217591
        13        20        28        27     9        0.000000        0.000207         1    ;  uncertainty k = 0.464893
        13        20        28        27     9      180.000000       11.593241         2    ;  uncertainty k = 0.463797
        13        20        28        27     9        0.000000        1.506096         3    ;  uncertainty k = 0.271513
        13        20        28        27     9      180.000000        1.554865         4    ;  uncertainty k = 0.288141
        13        20        28        49     9        0.000000       -0.122720         1    ;  uncertainty k = 0.281943
        13        20        28        49     9      180.000000        7.836517         2    ;  uncertainty k = 0.236328
        13        20        28        49     9        0.000000        0.688202         3    ;  uncertainty k = 0.200003
        13        20        28        49     9      180.000000        1.091534         4    ;  uncertainty k = 0.143245
        14        13        20        21     9        0.000000       -0.057218         1    ;  uncertainty k = 0.349503
        14        13        20        21     9      180.000000        3.916624         2    ;  uncertainty k = 0.545493
        14        13        20        21     9        0.000000        0.619050         3    ;  uncertainty k = 0.176087
        14        13        20        21     9      180.000000       -0.314910         4    ;  uncertainty k = 0.160497
        14        13        20        28     9        0.000000        0.027964         1    ;  uncertainty k = 0.248734
        14        13        20        28     9      180.000000        3.790324         2    ;  uncertainty k = 0.442273
        14        13        20        28     9        0.000000        0.910899         3    ;  uncertainty k = 0.183968
        14        13        20        28     9      180.000000       -0.341866         4    ;  uncertainty k = 0.189715
        14        15        16        17     9        0.000000        0.238879         1    ;  uncertainty k = 1.268059
        14        15        16        17     9      180.000000        9.618342         2    ;  uncertainty k = 0.775422
        14        15        16        17     9        0.000000        0.407411         3    ;  uncertainty k = 0.759266
        14        15        16        17     9      180.000000        0.559103         4    ;  uncertainty k = 0.314044
        14        15        16        43     9        0.000000        0.591128         1    ;  uncertainty k = 1.266310
        14        15        16        43     9      180.000000        2.793743         2    ;  uncertainty k = 1.401654
        14        15        16        43     9        0.000000        1.235888         3    ;  uncertainty k = 0.395832
        14        15        16        43     9      180.000000        0.135474         4    ;  uncertainty k = 0.120547
        14        15        19        18     9        0.000000        0.318033         1    ;  uncertainty k = 0.549936
        14        15        19        18     9      180.000000        8.739854         2    ;  uncertainty k = 0.549403
        14        15        19        18     9        0.000000        0.448820         3    ;  uncertainty k = 0.411752
        14        15        19        18     9      180.000000        0.878822         4    ;  uncertainty k = 0.217911
        15        14        13        20     9        0.000000        0.576730         1    ;  uncertainty k = 0.305749
        15        14        13        20     9      180.000000       17.337469         2    ;  uncertainty k = 0.521845
        15        14        13        20     9        0.000000        1.919282         3    ;  uncertainty k = 0.425533
        15        14        13        20     9      180.000000        0.788516         4    ;  uncertainty k = 0.297652
        15        16        17        18     9        0.000000       -0.424259         1    ;  uncertainty k = 0.720471
        15        16        17        18     9      180.000000       21.948844         2    ;  uncertainty k = 0.272817
        15        16        17        18     9        0.000000       -9.453916         3    ;  uncertainty k = 0.408148
        15        16        17        18     9      180.000000        1.578950         4    ;  uncertainty k = 0.654473
        15        16        17        44     9        0.000000        0.427383         1    ;  uncertainty k = 0.828520
        15        16        17        44     9      180.000000       13.870596         2    ;  uncertainty k = 0.182398
        15        16        17        44     9        0.000000        1.815389         3    ;  uncertainty k = 0.320274
        15        16        17        44     9      180.000000        0.903574         4    ;  uncertainty k = 0.223947
        15        19        18        17     9        0.000000       -0.698106         1    ;  uncertainty k = 0.543243
        15        19        18        17     9      180.000000       23.970051         2    ;  uncertainty k = 0.495895
        15        19        18        17     9        0.000000      -11.206153         3    ;  uncertainty k = 1.161985
        15        19        18        17     9      180.000000        1.981051         4    ;  uncertainty k = 0.603215
        16        15        14        42     9        0.000000        1.230264         1    ;  uncertainty k = 1.227408
        16        15        14        42     9      180.000000        2.935755         2    ;  uncertainty k = 1.100422
        16        15        14        42     9        0.000000        1.028872         3    ;  uncertainty k = 0.513157
        16        15        14        42     9      180.000000        0.182735         4    ;  uncertainty k = 0.171564
        16        15        19        18     9        0.000000       -0.600194         1    ;  uncertainty k = 0.427509
        16        15        19        18     9      180.000000       12.032075         2    ;  uncertainty k = 0.540572
        16        15        19        18     9        0.000000       -4.884606         3    ;  uncertainty k = 1.243656
        16        15        19        18     9      180.000000        1.176890         4    ;  uncertainty k = 0.463084
        16        17        18        19     9        0.000000       -0.719371         1    ;  uncertainty k = 0.806440
        16        17        18        19     9      180.000000       16.306391         2    ;  uncertainty k = 0.372137
        16        17        18        19     9        0.000000       -5.546726         3    ;  uncertainty k = 0.784851
        16        17        18        19     9      180.000000        2.138755         4    ;  uncertainty k = 0.319469
        17        16        15        19     9        0.000000        0.425340         1    ;  uncertainty k = 0.911889
        17        16        15        19     9      180.000000       13.121731         2    ;  uncertainty k = 1.266973
        17        16        15        19     9        0.000000      -13.119121         3    ;  uncertainty k = 1.817832
        17        16        15        19     9      180.000000        1.693366         4    ;  uncertainty k = 0.377703
        18        17        16        43     9        0.000000       -0.210816         1    ;  uncertainty k = 0.409318
        18        17        16        43     9      180.000000       14.525460         2    ;  uncertainty k = 0.474526
        18        17        16        43     9        0.000000        1.399987         3    ;  uncertainty k = 0.472591
        18        17        16        43     9      180.000000        0.597840         4    ;  uncertainty k = 0.116226
        19        11        10        41     9        0.000000        5.300787         1    ;  uncertainty k = 1.095312
        19        11        10        41     9      180.000000        6.151860         2    ;  uncertainty k = 0.321337
        19        11        10        41     9        0.000000        1.372350         3    ;  uncertainty k = 0.427877
        19        11        10        41     9      180.000000       -0.022341         4    ;  uncertainty k = 0.217792
        19        15        14        42     9        0.000000        1.226557         1    ;  uncertainty k = 1.441980
        19        15        14        42     9      180.000000        4.293775         2    ;  uncertainty k = 0.542296
        19        15        14        42     9        0.000000        1.116225         3    ;  uncertainty k = 0.349206
        19        15        14        42     9      180.000000        0.197252         4    ;  uncertainty k = 0.128616
        19        15        16        43     9        0.000000        0.337817         1    ;  uncertainty k = 0.998519
        19        15        16        43     9      180.000000        7.392009         2    ;  uncertainty k = 0.385665
        19        15        16        43     9        0.000000        1.061986         3    ;  uncertainty k = 0.365240
        19        15        16        43     9      180.000000        0.171584         4    ;  uncertainty k = 0.281011
        19        18        17        44     9        0.000000       -0.095582         1    ;  uncertainty k = 0.393923
        19        18        17        44     9      180.000000       14.177386         2    ;  uncertainty k = 0.352374
        19        18        17        44     9        0.000000        1.588169         3    ;  uncertainty k = 0.688228
        19        18        17        44     9      180.000000        0.904862         4    ;  uncertainty k = 0.448977
        20        13        14        42     9        0.000000       -0.219214         1    ;  uncertainty k = 0.332985
        20        13        14        42     9      180.000000        9.215237         2    ;  uncertainty k = 0.441043
        20        13        14        42     9        0.000000        1.515665         3    ;  uncertainty k = 0.270368
        20        13        14        42     9      180.000000        0.995306         4    ;  uncertainty k = 0.143311
        20        21        22        23     9        0.000000        0.036572         1    ;  uncertainty k = 0.331158
        20        21        22        23     9      180.000000       16.840932         2    ;  uncertainty k = 0.256778
        20        21        22        23     9        0.000000       -0.285123         3    ;  uncertainty k = 0.467322
        20        21        22        23     9      180.000000        0.632981         4    ;  uncertainty k = 0.299892
        20        21        22        46     9        0.000000       -0.036442         1    ;  uncertainty k = 0.215492
        20        21        22        46     9      180.000000        8.973969         2    ;  uncertainty k = 0.439173
        20        21        22        46     9        0.000000        1.439949         3    ;  uncertainty k = 0.248957
        20        21        22        46     9      180.000000        1.896736         4    ;  uncertainty k = 0.257135
        20        28        27        23     9        0.000000       -0.198172         1    ;  uncertainty k = 0.398265
        20        28        27        23     9      180.000000       12.419193         2    ;  uncertainty k = 0.132303
        20        28        27        23     9        0.000000       -1.380873         3    ;  uncertainty k = 0.530178
        20        28        27        23     9      180.000000        0.756409         4    ;  uncertainty k = 0.234868
        20        28        27        26     9        0.000000        0.161251         1    ;  uncertainty k = 0.187507
        20        28        27        26     9      180.000000       10.407056         2    ;  uncertainty k = 0.716703
        20        28        27        26     9        0.000000        0.894492         3    ;  uncertainty k = 0.361046
        20        28        27        26     9      180.000000        1.248653         4    ;  uncertainty k = 0.351138
        21        20        28        27     9        0.000000        0.050053         1    ;  uncertainty k = 0.216230
        21        20        28        27     9      180.000000       13.680778         2    ;  uncertainty k = 0.248895
        21        20        28        27     9        0.000000        0.002234         3    ;  uncertainty k = 0.286610
        21        20        28        27     9      180.000000        0.895120         4    ;  uncertainty k = 0.337935
        21        20        28        49     9        0.000000        0.247218         1    ;  uncertainty k = 0.158863
        21        20        28        49     9      180.000000        7.919297         2    ;  uncertainty k = 0.573084
        21        20        28        49     9        0.000000        1.544085         3    ;  uncertainty k = 0.138737
        21        20        28        49     9      180.000000        1.705629         4    ;  uncertainty k = 0.254640
        21        22        23        24     9        0.000000        0.312960         1    ;  uncertainty k = 0.413870
        21        22        23        24     9      180.000000        8.161813         2    ;  uncertainty k = 0.408100
        21        22        23        24     9        0.000000        0.680187         3    ;  uncertainty k = 0.316207
        21        22        23        24     9      180.000000        1.318401         4    ;  uncertainty k = 0.118210
        21        22        23        27     9        0.000000        0.024027         1    ;  uncertainty k = 0.234713
        21        22        23        27     9      180.000000       13.393022         2    ;  uncertainty k = 0.123364
        21        22        23        27     9        0.000000       -1.965306         3    ;  uncertainty k = 0.693199
        21        22        23        27     9      180.000000        0.688655         4    ;  uncertainty k = 0.252291
        22        21        20        28     9        0.000000       -0.064850         1    ;  uncertainty k = 0.238097
        22        21        20        28     9      180.000000        8.627471         2    ;  uncertainty k = 0.426027
        22        21        20        28     9        0.000000       -0.116894         3    ;  uncertainty k = 0.347151
        22        21        20        28     9      180.000000        1.107068         4    ;  uncertainty k = 0.235544
        22        23        24        25     9        0.000000        0.545698         1    ;  uncertainty k = 0.710680
        22        23        24        25     9      180.000000        7.153060         2    ;  uncertainty k = 0.604346
        22        23        24        25     9        0.000000       -0.042578         3    ;  uncertainty k = 0.385672
        22        23        24        25     9      180.000000        1.038495         4    ;  uncertainty k = 0.212607
        22        23        24        47     9        0.000000        0.564420         1    ;  uncertainty k = 0.984440
        22        23        24        47     9      180.000000        3.627038         2    ;  uncertainty k = 0.844669
        22        23        24        47     9        0.000000        1.294258         3    ;  uncertainty k = 0.243708
        22        23        24        47     9      180.000000        0.092482         4    ;  uncertainty k = 0.127683
        22        23        27        26     9        0.000000       -0.063129         1    ;  uncertainty k = 0.386315
        22        23        27        26     9      180.000000        8.412513         2    ;  uncertainty k = 0.121049
        22        23        27        26     9        0.000000       -0.287403         3    ;  uncertainty k = 0.440323
        22        23        27        26     9      180.000000        1.255913         4    ;  uncertainty k = 0.401647
        22        23        27        28     9        0.000000       -0.562856         1    ;  uncertainty k = 0.745394
        22        23        27        28     9      180.000000        7.458514         2    ;  uncertainty k = 0.459216
        22        23        27        28     9        0.000000        0.136454         3    ;  uncertainty k = 0.199056
        22        23        27        28     9      180.000000        1.050165         4    ;  uncertainty k = 0.325664
        23        22        21        45     9        0.000000        0.020909         1    ;  uncertainty k = 0.300364
        23        22        21        45     9      180.000000       11.611134         2    ;  uncertainty k = 0.328467
        23        22        21        45     9        0.000000        1.514345         3    ;  uncertainty k = 0.287097
        23        22        21        45     9      180.000000        1.729218         4    ;  uncertainty k = 0.314044
        23        24        25        26     9        0.000000       -0.120151         1    ;  uncertainty k = 0.731968
        23        24        25        26     9      180.000000       26.305453         2    ;  uncertainty k = 0.190420
        23        24        25        26     9        0.000000       -5.118995         3    ;  uncertainty k = 1.092191
        23        24        25        26     9      180.000000        1.921340         4    ;  uncertainty k = 0.544336
        23        27        26        25     9        0.000000        0.445886         1    ;  uncertainty k = 0.538503
        23        27        26        25     9      180.000000       17.377664         2    ;  uncertainty k = 0.937307
        23        27        26        25     9        0.000000       -8.620328         3    ;  uncertainty k = 1.375362
        23        27        26        25     9      180.000000        0.798738         4    ;  uncertainty k = 0.449853
        23        27        26        48     9        0.000000        4.597756         1    ;  uncertainty k = 2.148014
        23        27        26        48     9      180.000000        5.842092         2    ;  uncertainty k = 1.205206
        23        27        26        48     9        0.000000        1.417090         3    ;  uncertainty k = 0.198828
        23        27        26        48     9      180.000000        0.079654         4    ;  uncertainty k = 0.179784
        23        27        28        49     9        0.000000        0.013418         1    ;  uncertainty k = 0.418706
        23        27        28        49     9      180.000000        6.790814         2    ;  uncertainty k = 1.175804
        23        27        28        49     9        0.000000        1.352570         3    ;  uncertainty k = 0.132010
        23        27        28        49     9      180.000000        1.195216         4    ;  uncertainty k = 0.438465
        24        23        22        46     9        0.000000        0.217395         1    ;  uncertainty k = 0.480879
        24        23        22        46     9      180.000000        5.634350         2    ;  uncertainty k = 0.518608
        24        23        22        46     9        0.000000        1.012531         3    ;  uncertainty k = 0.158569
        24        23        22        46     9      180.000000        0.531503         4    ;  uncertainty k = 0.245181
        24        23        27        26     9        0.000000       -0.643775         1    ;  uncertainty k = 0.381049
        24        23        27        26     9      180.000000       11.992308         2    ;  uncertainty k = 0.969249
        24        23        27        26     9        0.000000       -3.882658         3    ;  uncertainty k = 1.450463
        24        23        27        26     9      180.000000        1.660887         4    ;  uncertainty k = 0.668480
        24        23        27        28     9        0.000000        0.241076         1    ;  uncertainty k = 0.298478
        24        23        27        28     9      180.000000        6.850321         2    ;  uncertainty k = 0.103680
        24        23        27        28     9        0.000000        0.207085         3    ;  uncertainty k = 0.461047
        24        23        27        28     9      180.000000        1.308351         4    ;  uncertainty k = 0.339157
        24        25        26        27     9        0.000000        0.010604         1    ;  uncertainty k = 0.662710
        24        25        26        27     9      180.000000       18.143358         2    ;  uncertainty k = 0.626429
        24        25        26        27     9        0.000000       -5.124361         3    ;  uncertainty k = 1.731977
        24        25        26        27     9      180.000000        1.047797         4    ;  uncertainty k = 0.635563
        24        25        26        48     9        0.000000        4.250974         1    ;  uncertainty k = 1.972130
        24        25        26        48     9      180.000000       14.221018         2    ;  uncertainty k = 0.376681
        24        25        26        48     9        0.000000        1.503734         3    ;  uncertainty k = 1.418969
        24        25        26        48     9      180.000000       -0.516135         4    ;  uncertainty k = 0.508753
        25        24        23        27     9        0.000000        0.359306         1    ;  uncertainty k = 0.778422
        25        24        23        27     9      180.000000       13.632398         2    ;  uncertainty k = 1.052808
        25        24        23        27     9        0.000000      -12.345143         3    ;  uncertainty k = 2.648213
        25        24        23        27     9      180.000000        2.230091         4    ;  uncertainty k = 0.628090
        25        26        27        28     9        0.000000        1.000030         1    ;  uncertainty k = 0.963976
        25        26        27        28     9      180.000000        6.598531         2    ;  uncertainty k = 0.456533
        25        26        27        28     9        0.000000        0.523615         3    ;  uncertainty k = 0.549524
        25        26        27        28     9      180.000000        0.305440         4    ;  uncertainty k = 0.151087
        26        25        24        47     9        0.000000        0.518235         1    ;  uncertainty k = 0.650450
        26        25        24        47     9      180.000000       24.335930         2    ;  uncertainty k = 0.403779
        26        25        24        47     9        0.000000        1.548246         3    ;  uncertainty k = 0.953166
        26        25        24        47     9      180.000000        1.092166         4    ;  uncertainty k = 0.377301
        26        27        28        49     9        0.000000        0.314928         1    ;  uncertainty k = 0.315516
        26        27        28        49     9      180.000000        5.699467         2    ;  uncertainty k = 0.975195
        26        27        28        49     9        0.000000        1.146583         3    ;  uncertainty k = 0.270923
        26        27        28        49     9      180.000000        0.857597         4    ;  uncertainty k = 0.459903
        27        23        22        46     9        0.000000       -0.020110         1    ;  uncertainty k = 0.552058
        27        23        22        46     9      180.000000        7.540400         2    ;  uncertainty k = 0.762481
        27        23        22        46     9        0.000000        1.344634         3    ;  uncertainty k = 0.335085
        27        23        22        46     9      180.000000        1.075326         4    ;  uncertainty k = 0.499322
        27        23        24        47     9        0.000000        0.126420         1    ;  uncertainty k = 0.442510
        27        23        24        47     9      180.000000        8.054401         2    ;  uncertainty k = 0.926413
        27        23        24        47     9        0.000000        1.381881         3    ;  uncertainty k = 0.459935
        27        23        24        47     9      180.000000        0.310454         4    ;  uncertainty k = 0.234121
        28        20        21        45     9        0.000000       -0.091765         1    ;  uncertainty k = 0.174121
        28        20        21        45     9      180.000000        6.129199         2    ;  uncertainty k = 0.575207
        28        20        21        45     9        0.000000        1.243235         3    ;  uncertainty k = 0.113303
        28        20        21        45     9      180.000000        1.508541         4    ;  uncertainty k = 0.244145
        28        27        26        48     9        0.000000        1.977926         1    ;  uncertainty k = 0.648831
        28        27        26        48     9      180.000000        1.587494         2    ;  uncertainty k = 0.601508
        28        27        26        48     9        0.000000        1.310227         3    ;  uncertainty k = 0.630296
        28        27        26        48     9      180.000000        0.107901         4    ;  uncertainty k = 0.145848
        29         9         8        40     9        0.000000       -0.016302         1    ;  uncertainty k = 0.231038
        29         9         8        40     9      180.000000        6.324004         2    ;  uncertainty k = 0.737574
        29         9         8        40     9        0.000000        1.238166         3    ;  uncertainty k = 0.299185
        29         9         8        40     9      180.000000        1.443803         4    ;  uncertainty k = 0.156978
        29         9        10        41     9        0.000000        2.607371         1    ;  uncertainty k = 0.409087
        29         9        10        41     9      180.000000        4.230940         2    ;  uncertainty k = 0.251949
        29         9        10        41     9        0.000000        0.646263         3    ;  uncertainty k = 0.145755
        29         9        10        41     9      180.000000        0.431106         4    ;  uncertainty k = 0.060778
        30         6         7        39     9        0.000000        0.177941         1    ;  uncertainty k = 0.377528
        30         6         7        39     9      180.000000        6.119638         2    ;  uncertainty k = 0.691729
        30         6         7        39     9        0.000000        1.334942         3    ;  uncertainty k = 0.249773
        30         6         7        39     9      180.000000        1.527259         4    ;  uncertainty k = 0.072402
        34         3         4        36     9        0.000000        0.047897         1    ;  uncertainty k = 0.272185
        34         3         4        36     9      180.000000       -0.194114         2    ;  uncertainty k = 0.178756
        34         3         4        36     9        0.000000        0.253403         3    ;  uncertainty k = 0.074665
        34         3         4        36     9      180.000000        0.008358         4    ;  uncertainty k = 0.101680
        34         3         4        37     9        0.000000        0.047897         1    ;  uncertainty k = 0.272185
        34         3         4        37     9      180.000000       -0.194114         2    ;  uncertainty k = 0.178756
        34         3         4        37     9        0.000000        0.253403         3    ;  uncertainty k = 0.074665
        34         3         4        37     9      180.000000        0.008358         4    ;  uncertainty k = 0.101680
        35         3         4        36     9        0.000000        0.047897         1    ;  uncertainty k = 0.272185
        35         3         4        36     9      180.000000       -0.194114         2    ;  uncertainty k = 0.178756
        35         3         4        36     9        0.000000        0.253403         3    ;  uncertainty k = 0.074665
        35         3         4        36     9      180.000000        0.008358         4    ;  uncertainty k = 0.101680
        35         3         4        37     9        0.000000        0.047897         1    ;  uncertainty k = 0.272185
        35         3         4        37     9      180.000000       -0.194114         2    ;  uncertainty k = 0.178756
        35         3         4        37     9        0.000000        0.253403         3    ;  uncertainty k = 0.074665
        35         3         4        37     9      180.000000        0.008358         4    ;  uncertainty k = 0.101680
        36         4         5        38     9        0.000000       10.859528         1    ;  uncertainty k = 0.231628
        36         4         5        38     9      180.000000       -1.895495         2    ;  uncertainty k = 0.217215
        36         4         5        38     9        0.000000        0.762529         3    ;  uncertainty k = 0.049141
        36         4         5        38     9      180.000000        0.105946         4    ;  uncertainty k = 0.065822
        37         4         5        38     9        0.000000       10.859528         1    ;  uncertainty k = 0.231628
        37         4         5        38     9      180.000000       -1.895495         2    ;  uncertainty k = 0.217215
        37         4         5        38     9        0.000000        0.762529         3    ;  uncertainty k = 0.049141
        37         4         5        38     9      180.000000        0.105946         4    ;  uncertainty k = 0.065822
        39         7         8        40     9        0.000000       -0.084273         1    ;  uncertainty k = 0.305916
        39         7         8        40     9      180.000000        7.833368         2    ;  uncertainty k = 0.602153
        39         7         8        40     9        0.000000       -0.413838         3    ;  uncertainty k = 0.422765
        39         7         8        40     9      180.000000        0.293281         4    ;  uncertainty k = 0.219658
        43        16        17        44     9        0.000000       -0.311075         1    ;  uncertainty k = 0.492453
        43        16        17        44     9      180.000000        5.384359         2    ;  uncertainty k = 0.598234
        43        16        17        44     9        0.000000        1.243313         3    ;  uncertainty k = 0.430720
        43        16        17        44     9      180.000000        0.271791         4    ;  uncertainty k = 0.092255
        45        21        22        46     9        0.000000       -0.250847         1    ;  uncertainty k = 0.196331
        45        21        22        46     9      180.000000        8.235112         2    ;  uncertainty k = 0.381562
        45        21        22        46     9        0.000000       -0.155117         3    ;  uncertainty k = 0.220769
        45        21        22        46     9      180.000000        0.305847         4    ;  uncertainty k = 0.262587
        50        29        30        51     9        0.000000       -0.084271         1    ;  uncertainty k = 0.305917
        50        29        30        51     9      180.000000        7.833369         2    ;  uncertainty k = 0.602153
        50        29        30        51     9        0.000000       -0.413839         3    ;  uncertainty k = 0.422766
        50        29        30        51     9      180.000000        0.293281         4    ;  uncertainty k = 0.219659

[ dihedrals ] ; impropers
;       ai        aj        ak        al funct           phase               k        pn
         6         2         7        30     4      180.000000       19.840831         2    ;  uncertainty k = 0.068139
         6         7        30         2     4      180.000000       19.840831         2    ;  uncertainty k = 0.068139
         6        30         2         7     4      180.000000       19.840831         2    ;  uncertainty k = 0.068139
         7         6         8        39     4      180.000000        2.396769         2    ;  uncertainty k = 0.435824
         7         8        39         6     4      180.000000        2.396769         2    ;  uncertainty k = 0.435824
         7        39         6         8     4      180.000000        2.396769         2    ;  uncertainty k = 0.435824
         8         7         9        40     4      180.000000        3.388206         2    ;  uncertainty k = 0.219872
         8         9        40         7     4      180.000000        3.388206         2    ;  uncertainty k = 0.219872
         8        40         7         9     4      180.000000        3.388206         2    ;  uncertainty k = 0.219872
         9         8        10        29     4      180.000000       16.915228         2    ;  uncertainty k = 0.048034
         9        10        29         8     4      180.000000       16.915228         2    ;  uncertainty k = 0.048034
         9        29         8        10     4      180.000000       16.915228         2    ;  uncertainty k = 0.048034
        10         9        11        41     4      180.000000        1.618495         2    ;  uncertainty k = 0.654898
        10        11        41         9     4      180.000000        1.618495         2    ;  uncertainty k = 0.654898
        10        41         9        11     4      180.000000        1.618495         2    ;  uncertainty k = 0.654898
        11        10        12        19     4      180.000000       28.346684         2    ;  uncertainty k = 0.062767
        11        12        19        10     4      180.000000       28.346684         2    ;  uncertainty k = 0.062767
        11        19        10        12     4      180.000000       28.346684         2    ;  uncertainty k = 0.062767
        13        12        14        20     4      180.000000       19.200791         2    ;  uncertainty k = 0.081082
        13        14        20        12     4      180.000000       19.200791         2    ;  uncertainty k = 0.081082
        13        20        12        14     4      180.000000       19.200791         2    ;  uncertainty k = 0.081082
        14        13        15        42     4      180.000000        1.291987         2    ;  uncertainty k = 1.146498
        14        15        42        13     4      180.000000        1.291987         2    ;  uncertainty k = 1.146498
        14        42        13        15     4      180.000000        1.291987         2    ;  uncertainty k = 1.146498
        15        14        16        19     4      180.000000        1.588086         2    ;  uncertainty k = 1.398469
        15        16        19        14     4      180.000000        1.588086         2    ;  uncertainty k = 1.398469
        15        19        14        16     4      180.000000        1.588086         2    ;  uncertainty k = 1.398469
        16        15        17        43     4      180.000000        0.105195         2    ;  uncertainty k = 0.235223
        16        17        43        15     4      180.000000        0.105195         2    ;  uncertainty k = 0.235223
        16        43        15        17     4      180.000000        0.105195         2    ;  uncertainty k = 0.235223
        17        16        18        44     4      180.000000        1.779599         2    ;  uncertainty k = 0.230150
        17        18        44        16     4      180.000000        1.779599         2    ;  uncertainty k = 0.230150
        17        44        16        18     4      180.000000        1.779599         2    ;  uncertainty k = 0.230150
        19        11        15        18     4      180.000000        2.165379         2    ;  uncertainty k = 0.627946
        19        15        18        11     4      180.000000        2.165379         2    ;  uncertainty k = 0.627946
        19        18        11        15     4      180.000000        2.165379         2    ;  uncertainty k = 0.627946
        20        13        21        28     4      180.000000       11.787880         2    ;  uncertainty k = 0.110513
        20        21        28        13     4      180.000000       11.787880         2    ;  uncertainty k = 0.110513
        20        28        13        21     4      180.000000       11.787880         2    ;  uncertainty k = 0.110513
        21        20        22        45     4      180.000000        2.954189         2    ;  uncertainty k = 0.225776
        21        22        45        20     4      180.000000        2.954189         2    ;  uncertainty k = 0.225776
        21        45        20        22     4      180.000000        2.954189         2    ;  uncertainty k = 0.225776
        22        21        23        46     4      180.000000        5.148360         2    ;  uncertainty k = 0.214210
        22        23        46        21     4      180.000000        5.148360         2    ;  uncertainty k = 0.214210
        22        46        21        23     4      180.000000        5.148360         2    ;  uncertainty k = 0.214210
        24        23        25        47     4      180.000000        1.421392         2    ;  uncertainty k = 0.357579
        24        25        47        23     4      180.000000        1.421392         2    ;  uncertainty k = 0.357579
        24        47        23        25     4      180.000000        1.421392         2    ;  uncertainty k = 0.357579
        27        23        26        28     4      180.000000        1.427404         2    ;  uncertainty k = 0.758146
        27        26        28        23     4      180.000000        1.427404         2    ;  uncertainty k = 0.758146
        27        28        23        26     4      180.000000        1.427404         2    ;  uncertainty k = 0.758146
        28        20        27        49     4      180.000000        2.575294         2    ;  uncertainty k = 0.237857
        28        27        49        20     4      180.000000        2.575294         2    ;  uncertainty k = 0.237857
        28        49        20        27     4      180.000000        2.575294         2    ;  uncertainty k = 0.237857
        29         9        30        50     4      180.000000        3.388207         2    ;  uncertainty k = 0.219872
        29        30        50         9     4      180.000000        3.388207         2    ;  uncertainty k = 0.219872
        29        50         9        30     4      180.000000        3.388207         2    ;  uncertainty k = 0.219872
        30         6        29        51     4      180.000000        2.396766         2    ;  uncertainty k = 0.435823
        30        29        51         6     4      180.000000        2.396766         2    ;  uncertainty k = 0.435823
        30        51         6        29     4      180.000000        2.396766         2    ;  uncertainty k = 0.435823

[ pairs ]
;       ai        aj funct
         1         4     1
         1         7     1
         1        30     1
         1        34     1
         1        35     1
         2         5     1
         2         8     1
         2        29     1
         2        36     1
         2        37     1
         2        39     1
         2        51     1
         3         7     1
         3        30     1
         3        31     1
         3        32     1
         3        33     1
         3        38     1
         4         6     1
         5        34     1
         5        35     1
         6         9     1
         6        31     1
         6        32     1
         6        33     1
         6        34     1
         6        35     1
         6        40     1
         6        50     1
         7        10     1
         7        29     1
         7        51     1
         8        11     1
         8        30     1
         8        41     1
         8        50     1
         9        12     1
         9        19     1
         9        39     1
         9        51     1
        10        13     1
        10        15     1
        10        18     1
        10        30     1
        10        40     1
        10        50     1
        11        14     1
        11        16     1
        11        17     1
        11        20     1
        11        29     1
        12        15     1
        12        18     1
        12        21     1
        12        28     1
        12        41     1
        12        42     1
        13        16     1
        13        19     1
        13        22     1
        13        27     1
        13        45     1
        13        49     1
        14        17     1
        14        18     1
        14        21     1
        14        28     1
        14        43     1
        15        20     1
        15        44     1
        16        42     1
        18        43     1
        19        41     1
        19        42     1
        19        43     1
        19        44     1
        20        23     1
        20        26     1
        20        42     1
        20        46     1
        21        24     1
        21        27     1
        21        49     1
        22        25     1
        22        26     1
        22        28     1
        22        47     1
        23        45     1
        23        48     1
        23        49     1
        24        28     1
        24        46     1
        24        48     1
        25        28     1
        26        47     1
        26        49     1
        27        46     1
        27        47     1
        28        45     1
        28        48     1
        29        40     1
        29        41     1
        30        39     1
        34        36     1
        34        37     1
        35        36     1
        35        37     1
        36        38     1
        37        38     1
        39        40     1
        43        44     1
        45        46     1
        50        51     1
